Title
55513
    1DOPE     N    1   4.262   3.268  16.963  0.3296  0.4277  0.9431
    1DOPE   HN1    2   4.205   3.275  17.050 -0.5965 -1.7181  0.5544
    1DOPE   HN2    3   4.295   3.171  16.946 -0.2151  0.4858 -0.6457
    1DOPE   HN3    4   4.348   3.326  16.971 -1.4568  3.2913  1.1144
    1DOPE   C12    5   4.174   3.309  16.849 -0.2797  0.0525  0.6347
    1DOPE  H12A    6   4.214   3.268  16.754 -0.2687  2.7575 -0.6253
    1DOPE  H12B    7   4.189   3.418  16.835 -0.7577 -0.0037 -0.4475
    1DOPE   C11    8   4.030   3.277  16.877  0.5416  0.4064 -0.6622
    1DOPE  H11A    9   3.967   3.305  16.789 -0.7728  2.5727  0.8656
    1DOPE  H11B   10   3.995   3.332  16.967 -0.0676  0.4220 -0.9071
    1DOPE     P   11   3.876   3.069  16.917  0.5913  0.1292 -0.2780
    1DOPE   O13   12   3.761   3.168  16.904  0.0166 -0.6154 -0.0980
    1DOPE   O14   13   3.871   2.976  17.030  0.0680  0.3514 -1.0791
    1DOPE   O11   14   3.882   2.989  16.786  0.3384 -0.2640 -0.1952
    1DOPE   O12   15   4.013   3.138  16.922 -0.2504 -0.5199 -0.1788
    1DOPE    C1   16   3.996   2.975  16.697  0.6693 -0.5471  0.0466
    1DOPE    HA   17   4.044   2.874  16.694  3.0290  0.5004  0.3158
    1DOPE    HB   18   4.079   3.040  16.731 -0.3091  1.1356 -0.6775
    1DOPE    C2   19   3.951   2.992  16.548  0.5396 -0.3466  0.2402
    1DOPE    HS   20   4.035   2.985  16.475  1.0698  2.7090  0.4148
    1DOPE   O21   21   3.884   3.115  16.543  0.5015 -0.1675 -0.1274
    1DOPE   C21   22   3.957   3.219  16.538  0.2719 -0.7735  0.2050
    1DOPE   O22   23   4.079   3.227  16.549  0.2568  0.0629  0.6746
    1DOPE   C22   24   3.876   3.341  16.490  0.8710 -0.2484  0.1221
    1DOPE   H2R   25   3.828   3.387  16.579 -0.2225 -0.6543 -0.2490
    1DOPE   H2S   26   3.794   3.314  16.420 -0.0031  2.9176 -0.2587
    1DOPE    C3   27   3.860   2.862  16.526 -0.0221 -0.4239 -0.1875
    1DOPE    HX   28   3.800   2.833  16.614  0.1398 -1.9646 -0.5562
    1DOPE    HY   29   3.927   2.775  16.508 -0.8901 -0.7323 -2.2604
    1DOPE   O31   30   3.767   2.879  16.413 -0.0257  0.7213  0.1761
    1DOPE   C31   31   3.653   2.950  16.451 -0.1893  0.6928  0.5774
    1DOPE   O32   32   3.632   2.983  16.562  0.2005  0.1958 -0.5901
    1DOPE   C32   33   3.561   2.962  16.325 -0.9598 -0.4577 -0.5113
    1DOPE   H2X   34   3.613   2.951  16.227  0.1511 -3.7971  0.2973
    1DOPE   H2Y   35   3.485   2.880  16.332 -0.2176 -1.0382  1.5851
    1DOPE   C23   36   3.960   3.447  16.426 -0.2377  0.0909  0.4165
    1DOPE   H3R   37   4.021   3.417  16.337 -0.9072  1.6452 -0.6045
    1DOPE   H3S   38   4.029   3.495  16.499  0.1842  1.2145 -0.6908
    1DOPE   C24   39   3.878   3.554  16.347  0.9479 -0.5297 -0.3549
    1DOPE   H4R   40   3.943   3.644  16.340  1.2482 -0.4904  2.0850
    1DOPE   H4S   41   3.782   3.580  16.398  0.5327  0.3157 -1.5253
    1DOPE   C25   42   3.836   3.508  16.210 -0.3488  0.1020  0.5735
    1DOPE   H5R   43   3.745   3.445  16.211 -0.2623 -0.1314 -1.4326
    1DOPE   H5S   44   3.912   3.457  16.147  0.1676  1.9223 -0.3595
    1DOPE   C26   45   3.807   3.631  16.121  0.7130 -0.2595 -0.3376
    1DOPE   H6R   46   3.896   3.698  16.117  0.5134 -0.0010 -0.4021
    1DOPE   H6S   47   3.727   3.689  16.170  2.0300  1.5524 -0.2005
    1DOPE   C27   48   3.763   3.596  15.978  0.3480 -0.0949  0.1926
    1DOPE   H7R   49   3.739   3.691  15.925  0.0889 -1.1435 -1.6448
    1DOPE   H7S   50   3.689   3.514  15.968 -0.7960  1.1496 -3.3776
    1DOPE   C28   51   3.889   3.549  15.898  0.2977  0.6337  1.1768
    1DOPE   H8R   52   3.858   3.535  15.792  0.6798 -1.5050  1.3140
    1DOPE   H8S   53   3.919   3.449  15.934 -2.1192  0.1316  1.9716
    1DOPE   C29   54   4.006   3.644  15.883  0.3724 -0.4498 -0.3598
    1DOPE   H9R   55   3.986   3.714  15.801  2.5689 -0.6449 -1.1435
    1DOPE  C210   56   4.131   3.626  15.916 -1.0012 -0.5980  0.2952
    1DOPE  H10R   57   4.206   3.707  15.913  1.4665 -2.6203  2.4308
    1DOPE  C211   58   4.193   3.511  15.995 -1.2348 -0.0565 -0.2283
    1DOPE  H11R   59   4.259   3.455  15.925 -1.4181  0.2771 -0.6812
    1DOPE  H11S   60   4.120   3.443  16.042 -0.8966 -1.0498 -1.0950
    1DOPE  C212   61   4.290   3.557  16.105 -0.4006 -0.5685 -0.1388
    1DOPE  H12R   62   4.223   3.595  16.186 -1.3665 -0.4492 -0.9754
    1DOPE  H12S   63   4.351   3.636  16.057  1.0297  0.0362  2.4419
    1DOPE  C213   64   4.368   3.443  16.173 -0.2558 -0.1097  0.2496
    1DOPE  H13R   65   4.302   3.388  16.243  0.4958 -0.3453  0.7867
    1DOPE  H13S   66   4.447   3.501  16.226  0.2378 -1.9950  1.6674
    1DOPE  C214   67   4.440   3.354  16.075 -0.3069 -0.4290 -0.6279
    1DOPE  H14R   68   4.468   3.404  15.980 -2.5686 -0.5385 -1.4159
    1DOPE  H14S   69   4.364   3.283  16.037 -0.2508  0.3742 -2.2900
    1DOPE  C215   70   4.553   3.275  16.142 -0.2524  0.1751  0.3864
    1DOPE  H15R   71   4.507   3.250  16.240 -1.1746  1.2453  0.2498
    1DOPE  H15S   72   4.642   3.337  16.164  0.1423 -0.1840 -0.1951
    1DOPE  C216   73   4.593   3.149  16.065  0.1261 -0.4954  0.1572
    1DOPE  H16R   74   4.636   3.178  15.966  1.0373 -1.9498  0.0848
    1DOPE  H16S   75   4.496   3.097  16.048 -1.5183  2.3428  0.2729
    1DOPE  C217   76   4.687   3.064  16.149  0.3039  0.0797 -0.2967
    1DOPE  H17R   77   4.690   2.960  16.109  1.8080  0.8806 -2.4055
    1DOPE  H17S   78   4.637   3.039  16.246 -0.5497  2.0735 -0.1746
    1DOPE  C218   79   4.839   3.100  16.164 -0.3320 -0.2285 -0.5169
    1DOPE  H18R   80   4.883   3.122  16.064 -0.9440 -0.7861 -0.9205
    1DOPE  H18S   81   4.898   3.017  16.206 -0.3808 -1.3217 -2.4770
    1DOPE  H18T   82   4.852   3.191  16.226 -1.6102 -1.2673  1.3600
    1DOPE   C33   83   3.484   3.094  16.329  0.3618  0.0883  0.3769
    1DOPE   H3X   84   3.454   3.126  16.431 -1.7100  2.2981 -0.8307
    1DOPE   H3Y   85   3.393   3.072  16.269  1.5789 -0.8373 -1.2384
    1DOPE   C34   86   3.542   3.223  16.257  0.3060  0.0020 -0.0479
    1DOPE   H4X   87   3.459   3.296  16.261 -0.1338 -0.4507 -0.7588
    1DOPE   H4Y   88   3.623   3.261  16.323  0.7360  0.6986 -0.9601
    1DOPE   C35   89   3.578   3.209  16.101 -0.1753 -0.3158 -0.1586
    1DOPE   H5X   90   3.673   3.153  16.090  0.7519  1.2949 -0.6400
    1DOPE   H5Y   91   3.602   3.308  16.058  1.8934  0.2120  2.0098
    1DOPE   C36   92   3.482   3.137  15.997 -0.5383 -0.2839  0.1135
    1DOPE   H6X   93   3.389   3.197  16.001 -0.3106  0.1872 -1.2639
    1DOPE   H6Y   94   3.470   3.034  16.037  0.7241 -0.0561  1.1660
    1DOPE   C37   95   3.544   3.126  15.854 -0.7231  0.2028 -0.5123
    1DOPE   H7X   96   3.596   3.219  15.823  0.4563  0.1730  1.2433
    1DOPE   H7Y   97   3.617   3.043  15.853  1.4754  1.9907 -3.4814
    1DOPE   C38   98   3.436   3.100  15.747  0.3463 -0.4343 -0.0782
    1DOPE   H8X   99   3.379   3.017  15.795  0.6366  0.6093  2.1886
    1DOPE   H8Y  100   3.479   3.068  15.650 -2.6812 -2.4441 -0.9047
    1DOPE   C39  101   3.343   3.215  15.722 -0.4689 -0.8083 -0.6068
    1DOPE   H9X  102   3.378   3.317  15.700 -0.8492 -0.4639  0.3204
    1DOPE  C310  103   3.206   3.201  15.715 -0.2477  0.0955 -0.4784
    1DOPE  H10X  104   3.142   3.287  15.688 -1.2051 -0.1421  0.8908
    1DOPE  C311  105   3.124   3.081  15.720  0.5222  1.0239 -1.0369
    1DOPE  H11X  106   3.181   3.004  15.777  0.3497  2.0435  0.5755
    1DOPE  H11Y  107   3.032   3.102  15.778  1.7183  3.1187  0.2214
    1DOPE  C312  108   3.068   3.013  15.595  0.1412  0.0572  0.0645
    1DOPE  H12X  109   2.994   3.085  15.553  0.3757  0.6012  0.5744
    1DOPE  H12Y  110   3.013   2.920  15.624  2.1414 -0.9895  0.7079
    1DOPE  C313  111   3.166   2.964  15.486  0.7017 -0.5641  0.1971
    1DOPE  H13X  112   3.250   3.036  15.480  0.8969 -0.8594 -0.8798
    1DOPE  H13Y  113   3.204   2.864  15.515  2.3933  0.0968  0.3756
    1DOPE  C314  114   3.096   2.958  15.347  0.1050 -0.3396  0.0612
    1DOPE  H14X  115   3.059   3.061  15.327 -0.3435 -0.6417 -0.6938
    1DOPE  H14Y  116   3.008   2.891  15.346 -0.4727  0.4107 -0.3593
    1DOPE  C315  117   3.191   2.927  15.237  0.2770  0.8260  0.4591
    1DOPE  H15X  118   3.257   2.840  15.254  1.0094  0.8580 -1.8246
    1DOPE  H15Y  119   3.261   3.014  15.229  0.0320  1.0021  0.2110
    1DOPE  C316  120   3.120   2.892  15.104 -1.1077  0.0961 -0.5901
    1DOPE  H16X  121   3.061   2.968  15.050 -0.8654  1.5256  1.0508
    1DOPE  H16Y  122   3.077   2.791  15.117  1.6315 -0.9424  1.3549
    1DOPE  C317  123   3.225   2.871  14.994 -0.2292  0.1350  0.0118
    1DOPE  H17X  124   3.280   2.964  14.968  0.8643 -0.3923  0.3721
    1DOPE  H17Y  125   3.304   2.802  15.029 -1.3666 -0.7314  0.9659
    1DOPE  C318  126   3.163   2.809  14.866 -0.3014  0.4345  0.2189
    1DOPE  H18X  127   3.254   2.796  14.803 -1.8045 -0.5914 -1.8475
    1DOPE  H18Y  128   3.113   2.713  14.889  2.8439 -0.9424  1.9211
    1DOPE  H18Z  129   3.086   2.874  14.819 -0.6809  0.5736  1.0221
    2DOPE     N  130   3.757   4.295  16.937  0.6608 -0.2196 -0.4806
    2DOPE   HN1  131   3.684   4.370  16.930 -3.1867 -3.6177 -0.3831
    2DOPE   HN2  132   3.848   4.340  16.915  0.4846  0.3643 -0.0604
    2DOPE   HN3  133   3.731   4.222  16.868 -0.1423  1.1165 -1.6459
    2DOPE   C12  134   3.763   4.234  17.075  0.7294  0.3421 -0.3049
    2DOPE  H12A  135   3.664   4.189  17.097  0.1277  1.3666 -0.8098
    2DOPE  H12B  136   3.782   4.315  17.149 -0.2240  1.6919 -1.4768
    2DOPE   C11  137   3.879   4.135  17.096  0.0283  0.3191 -0.0670
    2DOPE  H11A  138   3.861   4.079  17.190 -2.0914 -1.7417 -1.5699
    2DOPE  H11B  139   3.965   4.203  17.115 -0.1288  0.4358  0.2380
    2DOPE     P  140   3.846   3.893  16.986 -0.0814 -0.8251  0.3068
    2DOPE   O13  141   3.703   3.900  17.000  0.4985 -0.9626  0.6749
    2DOPE   O14  142   3.924   3.823  17.084  0.1195 -0.5194 -0.9510
    2DOPE   O11  143   3.884   3.834  16.842 -0.4736  0.0476 -0.6939
    2DOPE   O12  144   3.903   4.044  16.978  0.1312 -0.1389  0.1767
    2DOPE    C1  145   3.873   3.895  16.720 -0.2409  0.7208 -0.4113
    2DOPE    HA  146   3.946   3.841  16.655 -2.4229 -2.7177 -0.2667
    2DOPE    HB  147   3.881   4.006  16.723  0.1395  0.6988  2.8070
    2DOPE    C2  148   3.745   3.870  16.639  0.2346  0.2860  0.8472
    2DOPE    HS  149   3.670   3.924  16.700  0.5038  0.9840  0.5751
    2DOPE   O21  150   3.710   3.736  16.631  0.0770 -0.0111  0.2293
    2DOPE   C21  151   3.578   3.709  16.634  0.6372  0.0001  0.1529
    2DOPE   O22  152   3.479   3.784  16.644 -0.2212  0.0296  0.7879
    2DOPE   C22  153   3.563   3.555  16.620 -0.3593  0.1798 -0.0786
    2DOPE   H2R  154   3.569   3.527  16.727  0.9447  2.8750  0.6548
    2DOPE   H2S  155   3.654   3.521  16.566 -2.2868 -1.8088 -2.2969
    2DOPE    C3  156   3.761   3.934  16.498  0.5286  0.5773  0.0464
    2DOPE    HX  157   3.852   3.897  16.447  0.2348 -1.4115  0.8842
    2DOPE    HY  158   3.781   4.044  16.501 -1.3574  0.9518  0.3525
    2DOPE   O31  159   3.653   3.904  16.406 -0.4453 -1.0878  0.4016
    2DOPE   C31  160   3.548   3.981  16.428 -0.1842 -0.6160 -0.2572
    2DOPE   O32  161   3.548   4.065  16.519  0.0955 -0.0868  0.1533
    2DOPE   C32  162   3.440   3.974  16.314 -0.9345  0.0829 -0.7806
    2DOPE   H2X  163   3.485   3.908  16.236  0.1669 -0.1099 -0.0009
    2DOPE   H2Y  164   3.345   3.932  16.353 -0.8618 -0.0634 -0.7601
    2DOPE   C23  165   3.438   3.523  16.543  0.0526 -0.2431  0.0651
    2DOPE   H3R  166   3.346   3.540  16.603 -0.7661 -1.5126 -0.7782
    2DOPE   H3S  167   3.444   3.412  16.549  1.5119 -0.1524  0.8549
    2DOPE   C24  168   3.419   3.571  16.396 -0.4652  0.3365 -0.5802
    2DOPE   H4R  169   3.506   3.537  16.337 -1.3554 -2.0987 -0.5951
    2DOPE   H4S  170   3.425   3.680  16.419 -0.6578 -0.1342  1.9851
    2DOPE   C25  171   3.290   3.531  16.341 -0.5028  0.6355  0.4176
    2DOPE   H5R  172   3.204   3.573  16.399 -1.6185 -0.9842 -0.0140
    2DOPE   H5S  173   3.289   3.421  16.330  0.6891  0.6419  0.1675
    2DOPE   C26  174   3.275   3.578  16.195  0.2388 -0.2746 -0.2185
    2DOPE   H6R  175   3.297   3.687  16.195 -0.7964 -0.0569  0.9183
    2DOPE   H6S  176   3.169   3.557  16.169 -0.6128  0.0508  2.7298
    2DOPE   C27  177   3.363   3.513  16.087 -0.1465 -0.0928  0.0808
    2DOPE   H7R  178   3.342   3.404  16.095 -1.8809  0.1113 -1.0764
    2DOPE   H7S  179   3.470   3.537  16.104 -0.7826  2.0628  1.3907
    2DOPE   C28  180   3.334   3.557  15.946 -0.5367  0.1935 -0.0070
    2DOPE   H8R  181   3.232   3.530  15.913 -1.9578  2.5991  2.0541
    2DOPE   H8S  182   3.400   3.487  15.891  1.5864 -0.0379  2.6392
    2DOPE   C29  183   3.382   3.693  15.913  0.3373  0.3254 -0.7893
    2DOPE   H9R  184   3.406   3.759  15.998 -1.8637  0.8890 -0.5319
    2DOPE  C210  185   3.366   3.751  15.792 -0.1550 -0.4064  0.4872
    2DOPE  H10R  186   3.377   3.861  15.792 -0.3138 -0.3825 -0.6529
    2DOPE  C211  187   3.308   3.682  15.664  0.5179  0.4470  0.5127
    2DOPE  H11R  188   3.252   3.754  15.601  0.1414  0.7352  1.1577
    2DOPE  H11S  189   3.236   3.602  15.690 -2.0415  1.4359 -2.8738
    2DOPE  C212  190   3.426   3.645  15.573  0.0040  0.2618 -0.3987
    2DOPE  H12R  191   3.502   3.593  15.636  0.8653  0.3322 -1.3599
    2DOPE  H12S  192   3.467   3.743  15.544 -1.9231  1.2468  0.0064
    2DOPE  C213  193   3.382   3.565  15.444  0.6744 -0.0190 -0.0642
    2DOPE  H13R  194   3.380   3.637  15.360  0.6200  0.8052  0.6252
    2DOPE  H13S  195   3.283   3.528  15.476  2.1642 -2.2514  2.4113
    2DOPE  C214  196   3.488   3.467  15.404 -0.1843  0.2994  0.1752
    2DOPE  H14R  197   3.504   3.402  15.492 -1.3308 -1.2088 -0.6699
    2DOPE  H14S  198   3.583   3.523  15.395  1.0491 -1.7156  0.1411
    2DOPE  C215  199   3.447   3.377  15.284 -0.1244  0.7790 -0.2231
    2DOPE  H15R  200   3.445   3.432  15.187  1.4291 -1.0983 -1.3957
    2DOPE  H15S  201   3.345   3.336  15.302  0.5964 -0.7141  0.6597
    2DOPE  C216  202   3.549   3.263  15.259 -0.2434  0.8832  0.5271
    2DOPE  H16R  203   3.553   3.185  15.338  1.0682 -0.4230 -0.7648
    2DOPE  H16S  204   3.649   3.306  15.237 -0.7462  1.8409  0.0738
    2DOPE  C217  205   3.512   3.193  15.123  0.8329  0.4409 -0.3278
    2DOPE  H17R  206   3.565   3.265  15.057  2.4615  1.2256  1.7033
    2DOPE  H17S  207   3.404   3.203  15.101  1.2412  1.3217 -2.1067
    2DOPE  C218  208   3.553   3.049  15.090  0.1953  0.1265 -0.5509
    2DOPE  H18R  209   3.487   2.980  15.147  1.4828 -0.9579 -0.3176
    2DOPE  H18S  210   3.660   3.030  15.114 -0.0366 -0.8245 -0.2484
    2DOPE  H18T  211   3.556   3.016  14.984  1.1644 -1.2875 -0.1048
    2DOPE   C33  212   3.402   4.110  16.253  0.7826  0.4858 -0.1004
    2DOPE   H3X  213   3.344   4.171  16.326 -0.4869  2.4303 -2.5739
    2DOPE   H3Y  214   3.333   4.097  16.167  1.1801 -1.9365 -0.1302
    2DOPE   C34  215   3.521   4.196  16.215 -0.0379  0.0376  0.1470
    2DOPE   H4X  216   3.482   4.291  16.172  0.5083 -0.7607 -2.2770
    2DOPE   H4Y  217   3.576   4.231  16.305 -1.4124  3.8207 -0.3063
    2DOPE   C35  218   3.613   4.129  16.113  0.0048 -0.9078  0.5737
    2DOPE   H5X  219   3.656   4.034  16.152  2.4493 -0.5046 -0.9296
    2DOPE   H5Y  220   3.696   4.194  16.079 -0.4265 -1.4495 -1.7204
    2DOPE   C36  221   3.542   4.093  15.981  0.2043 -0.2987  0.6135
    2DOPE   H6X  222   3.451   4.031  15.998  1.2542 -1.6562  1.5100
    2DOPE   H6Y  223   3.614   4.029  15.925  1.2626  1.8332 -0.5822
    2DOPE   C37  224   3.502   4.207  15.888  0.0624  0.4826  0.9120
    2DOPE   H7X  225   3.440   4.286  15.936 -0.4450  1.4861 -1.2703
    2DOPE   H7Y  226   3.597   4.259  15.861  0.6070 -0.7830  0.2759
    2DOPE   C38  227   3.427   4.151  15.766  0.0445 -0.0415 -0.0934
    2DOPE   H8X  228   3.343   4.092  15.807 -1.9685  1.5706 -1.6739
    2DOPE   H8Y  229   3.496   4.076  15.722 -0.7054  0.1721 -1.6931
    2DOPE   C39  230   3.377   4.269  15.682  0.3665 -0.0797  0.1460
    2DOPE   H9X  231   3.308   4.341  15.728  0.1562 -0.7679  0.9264
    2DOPE  C310  232   3.389   4.280  15.546  0.3523  0.3117 -0.1008
    2DOPE  H10X  233   3.341   4.356  15.485 -1.9094 -1.5663 -0.8108
    2DOPE  C311  234   3.451   4.178  15.450  0.1216  0.3398 -0.8276
    2DOPE  H11X  235   3.437   4.079  15.499 -0.8188  1.9090  2.3601
    2DOPE  H11Y  236   3.398   4.185  15.353  0.4401  0.1579 -1.0150
    2DOPE  C312  237   3.595   4.192  15.431  0.0370 -1.0044 -0.3487
    2DOPE  H12X  238   3.644   4.183  15.531  0.3004  0.8064 -0.2847
    2DOPE  H12Y  239   3.613   4.299  15.406  0.6143 -0.7189  1.1602
    2DOPE  C313  240   3.659   4.097  15.332  0.1348 -0.5477 -0.1537
    2DOPE  H13X  241   3.769   4.110  15.345  0.0287  2.5170 -1.4845
    2DOPE  H13Y  242   3.632   3.993  15.360  1.0484 -0.7019  0.2156
    2DOPE  C314  243   3.638   4.121  15.178 -0.5576  0.5220 -0.2348
    2DOPE  H14X  244   3.659   4.228  15.157 -0.2880  0.3208 -1.0278
    2DOPE  H14Y  245   3.529   4.111  15.155 -0.2536  1.8552 -2.5576
    2DOPE  C315  246   3.728   4.046  15.080 -0.0734 -0.6212 -0.6151
    2DOPE  H15X  247   3.828   4.087  15.106 -0.5723  0.9438 -1.0388
    2DOPE  H15Y  248   3.708   4.089  14.979 -1.7846  2.2801  0.8614
    2DOPE  C316  249   3.737   3.896  15.096  0.6247 -0.3136  0.1255
    2DOPE  H16X  250   3.755   3.880  15.205  0.1393 -0.6998  0.1519
    2DOPE  H16Y  251   3.817   3.848  15.036  0.4450  0.3491 -0.6634
    2DOPE  C317  252   3.602   3.822  15.064  0.4538  0.4312 -0.2821
    2DOPE  H17X  253   3.532   3.858  15.141  1.7458  1.3084  0.5128
    2DOPE  H17Y  254   3.559   3.848  14.964 -1.8932  0.0036  0.5476
    2DOPE  C318  255   3.617   3.674  15.095 -0.3807 -0.3296  0.0170
    2DOPE  H18X  256   3.647   3.613  15.007 -1.0205 -0.5711 -0.0442
    2DOPE  H18Y  257   3.686   3.662  15.182  0.9566  2.3528 -0.5776
    2DOPE  H18Z  258   3.522   3.630  15.133 -0.9312  1.3032  0.6170
    3DOPE     N  259   2.514   5.405  17.029 -0.1688  0.1974  0.0305
    3DOPE   HN1  260   2.546   5.406  16.930 -1.0587 -1.0979 -0.2838
    3DOPE   HN2  261   2.411   5.412  17.029 -0.0842  1.9310 -0.0089
    3DOPE   HN3  262   2.566   5.485  17.072  1.6933 -1.0745  0.2942
    3DOPE   C12  263   2.540   5.279  17.093  0.0097  0.6003 -0.3959
    3DOPE  H12A  264   2.500   5.293  17.196  0.7109  2.5647 -0.3442
    3DOPE  H12B  265   2.650   5.265  17.088 -0.2405 -1.4899 -1.0338
    3DOPE   C11  266   2.468   5.157  17.027 -0.1047  0.5056  0.0727
    3DOPE  H11A  267   2.473   5.063  17.086 -0.0566  0.9323  0.7542
    3DOPE  H11B  268   2.517   5.142  16.929  0.0369  1.2978  0.0160
    3DOPE     P  269   2.233   5.105  16.942  0.3076  0.4155 -0.5780
    3DOPE   O13  270   2.096   5.166  16.959 -0.3653  0.5192  0.2173
    3DOPE   O14  271   2.249   4.967  16.991 -0.2648  0.1886  0.2619
    3DOPE   O11  272   2.281   5.112  16.788 -0.0856  0.7367 -0.0374
    3DOPE   O12  273   2.338   5.202  17.015  0.4728 -0.0088  0.7657
    3DOPE    C1  274   2.277   5.241  16.717 -0.0328 -0.3473 -0.1155
    3DOPE    HA  275   2.377   5.274  16.679  0.2525  0.1892  1.0434
    3DOPE    HB  276   2.256   5.325  16.787  2.3163  0.9596 -0.8497
    3DOPE    C2  277   2.173   5.239  16.600  0.1019 -0.5748 -0.1513
    3DOPE    HS  278   2.077   5.244  16.656  1.9073 -0.9632  3.2144
    3DOPE   O21  279   2.190   5.120  16.524  0.0966  0.1393  0.7681
    3DOPE   C21  280   2.081   5.097  16.440 -0.6098 -0.6048 -0.7234
    3DOPE   O22  281   1.973   5.150  16.446  0.1315 -0.6283  0.2937
    3DOPE   C22  282   2.099   4.978  16.348 -0.1134 -0.2322  0.1423
    3DOPE   H2R  283   2.007   4.973  16.286  0.5978  1.4032 -1.1415
    3DOPE   H2S  284   2.088   4.882  16.403  3.3075 -1.5177 -1.1108
    3DOPE    C3  285   2.160   5.373  16.518  0.7274  0.2255 -0.2403
    3DOPE    HX  286   2.153   5.448  16.600 -1.4704 -0.4243  0.2327
    3DOPE    HY  287   2.059   5.373  16.470  0.3929  4.0024  0.1522
    3DOPE   O31  288   2.253   5.384  16.416 -0.0813 -0.3926 -0.6899
    3DOPE   C31  289   2.365   5.449  16.452 -1.1775  0.3802 -0.1812
    3DOPE   O32  290   2.393   5.493  16.561 -0.3139  0.6405  0.2006
    3DOPE   C32  291   2.463   5.443  16.332  0.3240 -0.1676 -0.8383
    3DOPE   H2X  292   2.401   5.463  16.243  0.3256  0.0512 -0.7900
    3DOPE   H2Y  293   2.535   5.526  16.349 -1.9711  1.4890  1.6125
    3DOPE   C23  294   2.229   4.987  16.261 -0.6788 -0.0453  0.3577
    3DOPE   H3R  295   2.317   4.974  16.328  0.5092 -0.7644 -1.2841
    3DOPE   H3S  296   2.250   5.082  16.206  0.2242 -1.6700 -2.2751
    3DOPE   C24  297   2.237   4.872  16.158 -0.1164  0.1188 -0.4879
    3DOPE   H4R  298   2.222   4.775  16.211 -0.5730  0.6082  0.2830
    3DOPE   H4S  299   2.342   4.855  16.126  0.0512 -0.6410  0.4089
    3DOPE   C25  300   2.150   4.891  16.027 -0.3072  0.4574  0.4532
    3DOPE   H5R  301   2.208   4.963  15.965  0.3343 -1.2319 -0.9826
    3DOPE   H5S  302   2.053   4.937  16.054 -0.6756  0.3294 -0.6101
    3DOPE   C26  303   2.139   4.761  15.947  0.4046 -0.1945 -0.0856
    3DOPE   H6R  304   2.087   4.684  16.007  0.4072 -2.3870 -2.7248
    3DOPE   H6S  305   2.243   4.724  15.934  1.2136  1.8447  0.1387
    3DOPE   C27  306   2.059   4.774  15.815  0.5305 -0.9096  0.3443
    3DOPE   H7R  307   2.099   4.845  15.740 -0.9418  0.9190  1.2257
    3DOPE   H7S  308   1.962   4.820  15.844  0.7092  0.1756 -0.7234
    3DOPE   C28  309   2.053   4.628  15.743  0.2423  0.1037 -0.6962
    3DOPE   H8R  310   2.039   4.543  15.813 -0.5905 -0.0196 -0.9920
    3DOPE   H8S  311   2.143   4.611  15.680 -0.6770 -0.1203 -1.9891
    3DOPE   C29  312   1.929   4.618  15.658 -0.1577 -0.4717  0.1015
    3DOPE   H9R  313   1.836   4.642  15.712 -0.3753  0.1967 -0.5459
    3DOPE  C210  314   1.929   4.595  15.523 -0.1421 -0.1084 -0.2151
    3DOPE  H10R  315   1.837   4.572  15.468  0.5122 -0.5795 -1.1498
    3DOPE  C211  316   2.044   4.560  15.437 -0.6613 -0.5594  0.1151
    3DOPE  H11R  317   2.129   4.517  15.494  0.4922 -0.3037 -1.3667
    3DOPE  H11S  318   2.075   4.656  15.392  1.1291 -0.0323  2.2868
    3DOPE  C212  319   2.026   4.468  15.318  0.2163 -0.1177  0.0476
    3DOPE  H12R  320   1.979   4.368  15.333  0.8050 -0.5186 -0.6915
    3DOPE  H12S  321   2.127   4.431  15.292 -0.4080 -1.9485  0.0341
    3DOPE  C213  322   1.963   4.548  15.202  0.6662  0.5376  0.2714
    3DOPE  H13R  323   2.030   4.628  15.166 -1.3446  1.7366 -1.0200
    3DOPE  H13S  324   1.863   4.585  15.233 -0.0834 -0.1073 -1.2693
    3DOPE  C214  325   1.925   4.456  15.083  0.5057  0.0527  0.6606
    3DOPE  H14R  326   1.855   4.377  15.116 -0.5799  0.2459 -1.0659
    3DOPE  H14S  327   2.016   4.397  15.057  0.8580  1.6970 -2.2556
    3DOPE  C215  328   1.873   4.515  14.949 -0.1880 -0.1782 -0.5941
    3DOPE  H15R  329   1.894   4.435  14.874 -2.6178 -2.3091  0.8210
    3DOPE  H15S  330   1.940   4.602  14.931 -1.8520  1.2547 -0.1143
    3DOPE  C216  331   1.722   4.555  14.961 -0.6684  0.4473 -0.4659
    3DOPE  H16R  332   1.694   4.615  14.872 -0.2339  1.6434  0.1920
    3DOPE  H16S  333   1.717   4.622  15.050  0.9331 -0.0854  0.0603
    3DOPE  C217  334   1.631   4.432  14.978 -0.4216  0.4180  0.0936
    3DOPE  H17R  335   1.665   4.362  15.057  1.1186 -0.8169 -1.5894
    3DOPE  H17S  336   1.634   4.373  14.884 -1.5145 -0.2961  0.4904
    3DOPE  C218  337   1.493   4.474  15.020 -0.1074  0.2863 -0.1312
    3DOPE  H18R  338   1.451   4.543  14.944 -1.0213 -0.7359 -0.5793
    3DOPE  H18S  339   1.490   4.525  15.118  1.1488  0.1957 -0.0282
    3DOPE  H18T  340   1.430   4.383  15.025  0.6964 -0.2732  0.0846
    3DOPE   C33  341   2.539   5.307  16.305  0.5313 -0.4309  0.2682
    3DOPE   H3X  342   2.460   5.232  16.283  0.8829 -0.6789 -0.1642
    3DOPE   H3Y  343   2.599   5.276  16.393 -1.7368 -3.0712  1.0434
    3DOPE   C34  344   2.636   5.297  16.189  0.2944 -0.2748 -0.3982
    3DOPE   H4X  345   2.711   5.377  16.207 -1.4147  0.8630  2.2107
    3DOPE   H4Y  346   2.692   5.204  16.213 -1.6492 -1.0403  1.4446
    3DOPE   C35  347   2.570   5.289  16.056  0.6535 -0.1809  0.0540
    3DOPE   H5X  348   2.537   5.391  16.024 -2.8392 -0.8402  1.1468
    3DOPE   H5Y  349   2.480   5.224  16.060  0.6815 -0.6382 -3.3641
    3DOPE   C36  350   2.672   5.226  15.964  0.1555 -0.0780  0.2320
    3DOPE   H6X  351   2.693   5.122  15.997  0.1993 -0.4657 -0.9781
    3DOPE   H6Y  352   2.769   5.281  15.959  0.4744 -0.4800  1.5605
    3DOPE   C37  353   2.629   5.229  15.818 -0.4859  0.3794 -0.2887
    3DOPE   H7X  354   2.564   5.142  15.798 -0.6687  0.6201 -0.7575
    3DOPE   H7Y  355   2.563   5.317  15.801 -0.2435  0.8484  1.0182
    3DOPE   C38  356   2.756   5.237  15.723 -0.8597 -0.1708 -0.2320
    3DOPE   H8X  357   2.805   5.138  15.729  0.2218  0.4310  1.8349
    3DOPE   H8Y  358   2.830   5.314  15.755 -0.1656  0.0547 -2.2542
    3DOPE   C39  359   2.714   5.255  15.585 -0.9761 -0.1337 -0.4617
    3DOPE   H9X  360   2.605   5.249  15.570 -1.0787 -1.2096  0.5601
    3DOPE  C310  361   2.788   5.274  15.477 -0.2319 -0.1243  0.6573
    3DOPE  H10X  362   2.736   5.297  15.384 -0.0081  2.9614  1.2007
    3DOPE  C311  363   2.937   5.274  15.471 -0.2726 -0.0027 -0.0241
    3DOPE  H11X  364   2.974   5.372  15.436 -1.2876  0.8918  1.2881
    3DOPE  H11Y  365   2.980   5.254  15.572 -0.6254  1.7199  0.5055
    3DOPE  C312  366   2.974   5.165  15.372 -0.2274 -0.6125  0.3455
    3DOPE  H12X  367   2.938   5.172  15.267 -0.4719 -0.6705  0.4226
    3DOPE  H12Y  368   2.936   5.063  15.398 -1.5554  0.0342  1.0566
    3DOPE  C313  369   3.129   5.140  15.357  0.5256  0.0479 -0.3101
    3DOPE  H13X  370   3.176   5.146  15.458  1.3226  1.3937 -0.7275
    3DOPE  H13Y  371   3.158   5.040  15.319 -0.0980 -0.2493 -0.0247
    3DOPE  C314  372   3.185   5.250  15.270  0.3995 -0.3478 -0.6137
    3DOPE  H14X  373   3.155   5.347  15.314 -0.1449 -1.0271  0.5455
    3DOPE  H14Y  374   3.136   5.249  15.170 -0.1776 -0.3183 -0.3371
    3DOPE  C315  375   3.331   5.244  15.267  0.2129  0.3139  0.0170
    3DOPE  H15X  376   3.369   5.148  15.227  0.3838 -0.1151  1.1732
    3DOPE  H15Y  377   3.370   5.262  15.370 -1.2339  5.9343 -0.0907
    3DOPE  C316  378   3.397   5.359  15.194  0.3554  0.7528 -0.3575
    3DOPE  H16X  379   3.494   5.379  15.245  0.4806  0.8167 -0.6212
    3DOPE  H16Y  380   3.339   5.453  15.210  1.4002  1.2083  0.9224
    3DOPE  C317  381   3.423   5.331  15.049  0.4716 -0.1766 -0.2146
    3DOPE  H17X  382   3.510   5.263  15.034  1.3337  0.3337  2.0327
    3DOPE  H17Y  383   3.339   5.279  14.999 -0.0827  1.0310 -0.5672
    3DOPE  C318  384   3.444   5.463  14.970 -0.6983  0.5343 -0.1451
    3DOPE  H18X  385   3.530   5.524  15.007  1.3570 -0.7071 -2.5676
    3DOPE  H18Y  386   3.462   5.436  14.863  0.7755 -1.2163  0.4878
    3DOPE  H18Z  387   3.357   5.531  14.979 -1.3477 -0.1348 -1.2164
    4DOPE     N  388   4.602   1.375  17.152 -0.0786 -0.3564 -0.7892
    4DOPE   HN1  389   4.691   1.425  17.129 -1.0683  0.8125 -2.2898
    4DOPE   HN2  390   4.604   1.330  17.246 -0.3736  0.1992 -0.5144
    4DOPE   HN3  391   4.587   1.316  17.068  0.2238  1.3965 -2.1328
    4DOPE   C12  392   4.500   1.489  17.162  0.3400  0.4806 -0.5455
    4DOPE  H12A  393   4.521   1.542  17.257 -1.6179  2.6239 -1.1936
    4DOPE  H12B  394   4.399   1.444  17.156  0.9610 -0.9991 -0.2101
    4DOPE   C11  395   4.518   1.592  17.051 -0.4365  0.0125 -0.0662
    4DOPE  H11A  396   4.480   1.549  16.956 -0.0882  1.2536 -0.7851
    4DOPE  H11B  397   4.626   1.613  17.040  0.3491 -2.5033  1.8326
    4DOPE     P  398   4.298   1.725  17.078  0.1607  0.1765  0.2314
    4DOPE   O13  399   4.262   1.868  17.102 -0.0811 -0.0966 -0.0381
    4DOPE   O14  400   4.241   1.631  17.176 -0.5077 -0.8186 -0.5170
    4DOPE   O11  401   4.262   1.679  16.935  0.5522  0.0778 -0.2764
    4DOPE   O12  402   4.453   1.713  17.079 -0.0758  0.0290  0.0508
    4DOPE    C1  403   4.310   1.738  16.819 -0.0831  0.1028  0.3427
    4DOPE    HA  404   4.407   1.691  16.789 -1.0762 -1.4952 -0.4619
    4DOPE    HB  405   4.341   1.845  16.825  2.0339 -0.4438  0.2723
    4DOPE    C2  406   4.205   1.732  16.710  0.6078 -0.2573  0.6520
    4DOPE    HS  407   4.128   1.806  16.743  1.2704 -0.1680  2.0787
    4DOPE   O21  408   4.151   1.594  16.698  0.0912 -0.1242 -0.4941
    4DOPE   C21  409   4.021   1.596  16.674 -0.9353  0.5039  0.5412
    4DOPE   O22  410   3.947   1.691  16.655 -0.1267 -0.2256  0.4399
    4DOPE   C22  411   3.978   1.458  16.654 -0.2505  0.7165 -0.2751
    4DOPE   H2R  412   3.880   1.446  16.705 -0.7179  0.8200 -1.1402
    4DOPE   H2S  413   4.045   1.381  16.698 -1.2602 -1.3316 -2.1745
    4DOPE    C3  414   4.265   1.784  16.573  0.5933 -0.1496  0.2521
    4DOPE    HX  415   4.329   1.710  16.520 -2.8324 -1.7575 -2.0653
    4DOPE    HY  416   4.330   1.871  16.594  0.5780 -0.2427  0.6927
    4DOPE   O31  417   4.162   1.824  16.478 -0.1457  0.3661 -0.0427
    4DOPE   C31  418   4.118   1.945  16.478 -0.3918 -0.1502  0.2164
    4DOPE   O32  419   4.154   2.034  16.554  0.0621  0.4707  0.0148
    4DOPE   C32  420   4.009   1.970  16.371 -0.6858  0.9111  0.1543
    4DOPE   H2X  421   3.929   1.900  16.403 -1.1051 -0.7387 -3.8561
    4DOPE   H2Y  422   3.980   2.077  16.380 -0.2897  0.8591  2.6866
    4DOPE   C23  423   3.969   1.430  16.503 -0.1329  0.4268 -0.2992
    4DOPE   H3R  424   3.955   1.321  16.489  1.0810  0.3163 -0.8263
    4DOPE   H3S  425   4.066   1.454  16.453  0.4576 -0.5496  0.3334
    4DOPE   C24  426   3.856   1.489  16.428 -0.1910 -0.4873 -0.2227
    4DOPE   H4R  427   3.861   1.600  16.422  0.6763 -0.4970  0.1605
    4DOPE   H4S  428   3.758   1.466  16.475  0.0900  0.6247  0.9741
    4DOPE   C25  429   3.846   1.455  16.280 -0.8271 -0.3704 -0.7976
    4DOPE   H5R  430   3.751   1.501  16.245 -2.1283 -0.7917  1.9449
    4DOPE   H5S  431   3.836   1.348  16.254 -0.1035  0.1083 -3.3207
    4DOPE   C26  432   3.970   1.509  16.215  0.4569 -0.0981 -0.8093
    4DOPE   H6R  433   4.069   1.474  16.252  3.0723  4.5622 -2.4649
    4DOPE   H6S  434   3.977   1.619  16.229 -0.6497 -0.0255 -0.7598
    4DOPE   C27  435   3.966   1.463  16.062  0.2738  0.4616 -0.3593
    4DOPE   H7R  436   3.973   1.352  16.061  1.0918  0.4700  1.2364
    4DOPE   H7S  437   4.063   1.496  16.017  0.3564  2.6831  1.2803
    4DOPE   C28  438   3.850   1.524  15.980 -0.3454 -0.4460 -0.1232
    4DOPE   H8R  439   3.853   1.635  15.985 -2.9494 -0.3411  1.5895
    4DOPE   H8S  440   3.751   1.494  16.021 -0.4146 -0.1657 -0.0818
    4DOPE   C29  441   3.876   1.488  15.835 -0.0573 -0.0365  1.2782
    4DOPE   H9R  442   3.973   1.524  15.797  0.6247 -2.2115  0.7889
    4DOPE  C210  443   3.801   1.403  15.758  0.3743  0.7459  0.0774
    4DOPE  H10R  444   3.845   1.370  15.663  0.6020  1.0556  0.0754
    4DOPE  C211  445   3.668   1.341  15.793  0.4557  0.3356 -0.0339
    4DOPE  H11R  446   3.626   1.394  15.881  0.3906  1.3708 -0.6712
    4DOPE  H11S  447   3.688   1.236  15.822 -0.9994 -0.4575 -1.6899
    4DOPE  C212  448   3.573   1.360  15.674 -0.0381  0.2835 -0.2153
    4DOPE  H12R  449   3.588   1.460  15.629  2.4143  0.1757  0.2394
    4DOPE  H12S  450   3.472   1.358  15.719  0.6496 -1.1917  1.3888
    4DOPE  C213  451   3.605   1.263  15.563  1.2437  0.3705  0.2049
    4DOPE  H13R  452   3.578   1.164  15.604  2.2736 -0.3747 -0.8371
    4DOPE  H13S  453   3.709   1.259  15.524  1.3111 -2.0096  0.5234
    4DOPE  C214  454   3.502   1.294  15.454 -0.4692 -0.1772 -0.1022
    4DOPE  H14R  455   3.505   1.404  15.439 -0.7818 -0.0049  0.9903
    4DOPE  H14S  456   3.399   1.271  15.488  0.1235 -1.1367  1.1300
    4DOPE  C215  457   3.528   1.216  15.323 -0.4466  0.0408  0.3664
    4DOPE  H15R  458   3.497   1.110  15.324  1.5943 -0.6194 -1.3325
    4DOPE  H15S  459   3.636   1.212  15.296 -0.3706 -3.1123  0.8426
    4DOPE  C216  460   3.454   1.275  15.197  0.1912 -0.2469 -0.4792
    4DOPE  H16R  461   3.496   1.377  15.185 -0.2572  0.0920  0.6525
    4DOPE  H16S  462   3.346   1.273  15.224 -0.2751  1.7320 -1.9526
    4DOPE  C217  463   3.481   1.195  15.071  0.3099 -0.0271 -0.2930
    4DOPE  H17R  464   3.461   1.088  15.094  0.7928  0.1789  1.2077
    4DOPE  H17S  465   3.590   1.202  15.050  0.4143 -1.0879 -0.1557
    4DOPE  C218  466   3.407   1.240  14.949 -0.5281 -0.0781  0.1600
    4DOPE  H18R  467   3.441   1.181  14.862 -0.7298  1.1494 -0.7714
    4DOPE  H18S  468   3.433   1.346  14.928  0.6844 -0.1673  1.1109
    4DOPE  H18T  469   3.296   1.239  14.957 -0.4649 -0.2645  1.3102
    4DOPE   C33  470   4.067   1.944  16.229  0.6451  0.0590 -0.6131
    4DOPE   H3X  471   4.113   1.845  16.213  0.7314  0.2436 -1.5802
    4DOPE   H3Y  472   4.155   2.009  16.209  0.1102  0.6738 -1.0045
    4DOPE   C34  473   3.973   1.963  16.108  0.0110  0.5153 -0.1302
    4DOPE   H4X  474   3.887   1.893  16.122  0.2511  0.3294  0.4640
    4DOPE   H4Y  475   3.929   2.064  16.107 -2.8096 -0.6140  0.0766
    4DOPE   C35  476   4.050   1.921  15.982  0.7255  0.6366 -0.3076
    4DOPE   H5X  477   4.105   1.826  15.998 -0.1459  0.0728 -0.6365
    4DOPE   H5Y  478   4.130   1.997  15.965  2.1508 -0.1067  2.4653
    4DOPE   C36  479   3.961   1.906  15.858 -0.0699 -0.4650 -0.6668
    4DOPE   H6X  480   3.912   2.002  15.830 -1.8182 -1.2832 -0.5537
    4DOPE   H6Y  481   3.882   1.830  15.879 -0.0861 -0.6252 -1.2626
    4DOPE   C37  482   4.037   1.861  15.734  0.1340  0.7305  0.6779
    4DOPE   H7X  483   4.119   1.932  15.710 -0.1502 -0.0163 -3.0446
    4DOPE   H7Y  484   4.095   1.768  15.750  0.7472  1.3660  2.4094
    4DOPE   C38  485   3.948   1.861  15.609  0.2031 -0.2858 -0.2265
    4DOPE   H8X  486   3.898   1.960  15.609 -1.1084 -0.9254 -1.0109
    4DOPE   H8Y  487   3.866   1.787  15.621 -0.9667  1.0102 -0.0924
    4DOPE   C39  488   4.019   1.839  15.482 -0.3661 -0.4683  0.7466
    4DOPE   H9X  489   4.036   1.930  15.423 -2.6984  0.8550  1.9944
    4DOPE  C310  490   4.050   1.730  15.415 -0.1934 -0.1333  0.1597
    4DOPE  H10X  491   4.085   1.739  15.312 -0.2366 -1.9029 -0.0502
    4DOPE  C311  492   4.006   1.595  15.461  0.5527 -0.1094 -0.2592
    4DOPE  H11X  493   4.095   1.528  15.469 -0.0490 -0.9684 -0.5845
    4DOPE  H11Y  494   3.954   1.593  15.558  1.0431 -2.5039  0.0370
    4DOPE  C312  495   3.913   1.526  15.357 -0.1237 -0.3559  0.0094
    4DOPE  H12X  496   3.833   1.597  15.325  1.1006 -0.0830 -2.7137
    4DOPE  H12Y  497   3.876   1.432  15.403  0.2398 -0.7443 -0.4833
    4DOPE  C313  498   3.981   1.477  15.225 -0.1562 -0.6678 -0.4845
    4DOPE  H13X  499   4.022   1.563  15.169 -0.5457  0.5326  0.9969
    4DOPE  H13Y  500   4.064   1.409  15.256 -0.1005  0.5320  2.3270
    4DOPE  C314  501   3.883   1.394  15.143  0.3678 -0.0389  0.0200
    4DOPE  H14X  502   3.799   1.452  15.100 -1.4844 -0.6152  2.6266
    4DOPE  H14Y  503   3.849   1.306  15.202 -0.2578  0.4267  0.3694
    4DOPE  C315  504   3.965   1.342  15.030  0.4556 -0.3666  0.3356
    4DOPE  H15X  505   4.056   1.291  15.070  0.0179  0.2002  2.1502
    4DOPE  H15Y  506   3.996   1.424  14.962  1.9654 -1.6476 -0.6030
    4DOPE  C316  507   3.895   1.237  14.934 -0.5511  0.3685  0.5174
    4DOPE  H16X  508   3.786   1.252  14.925 -0.5852  0.8501  1.6142
    4DOPE  H16Y  509   3.906   1.148  15.001  0.6925 -0.1564 -0.3471
    4DOPE  C317  510   3.972   1.222  14.795 -0.3363  0.6707  0.7878
    4DOPE  H17X  511   3.923   1.153  14.723  2.1630 -0.2823 -0.0868
    4DOPE  H17Y  512   3.982   1.315  14.735  0.2260  1.1376  1.5857
    4DOPE  C318  513   4.110   1.169  14.816 -0.3125  0.7854  0.3041
    4DOPE  H18X  514   4.158   1.131  14.723  0.5764 -0.5940  1.2776
    4DOPE  H18Y  515   4.176   1.254  14.847 -0.3413  0.1414  2.2532
    4DOPE  H18Z  516   4.112   1.082  14.885 -1.7839 -0.3749 -1.0488
    5DOPE     N  517   1.035   3.888  16.892  0.1387  0.4734 -0.4695
    5DOPE   HN1  518   1.029   3.849  16.989 -0.2140  3.7338  0.9411
    5DOPE   HN2  519   1.034   3.819  16.815  0.3732  1.0662 -1.0128
    5DOPE   HN3  520   1.120   3.947  16.879 -0.7201  1.6223 -0.9867
    5DOPE   C12  521   0.913   3.977  16.886 -1.0179 -0.2951  0.3891
    5DOPE  H12A  522   0.882   3.987  16.992 -1.4155 -0.3918  0.2840
    5DOPE  H12B  523   0.830   3.924  16.836 -0.2299 -1.5731  0.4138
    5DOPE   C11  524   0.938   4.115  16.826  0.2685  0.2141  0.3923
    5DOPE  H11A  525   1.012   4.169  16.889 -0.5049 -0.7416  2.1678
    5DOPE  H11B  526   0.847   4.179  16.836 -1.0360 -1.7449  1.9445
    5DOPE     P  527   0.877   4.113  16.572  0.5100  0.0441 -0.3517
    5DOPE   O13  528   0.820   4.251  16.567 -0.9812 -0.1365 -0.4821
    5DOPE   O14  529   0.784   3.998  16.581 -0.2477  0.1351  0.1650
    5DOPE   O11  530   0.967   4.089  16.444  0.2734 -0.3432 -0.3577
    5DOPE   O12  531   0.985   4.106  16.689 -0.4684 -0.1061  0.8674
    5DOPE    C1  532   1.083   4.007  16.458  0.3643 -0.0510  0.3951
    5DOPE    HA  533   1.075   3.929  16.537 -0.9574  1.1758  1.5258
    5DOPE    HB  534   1.160   4.081  16.490  3.3052 -2.5841 -0.3119
    5DOPE    C2  535   1.119   3.944  16.320  0.0693  0.4167 -0.6270
    5DOPE    HS  536   1.185   3.856  16.333  1.5213  1.7622  2.0138
    5DOPE   O21  537   1.175   4.033  16.230 -0.6670 -0.3273  0.8590
    5DOPE   C21  538   1.299   4.060  16.249  0.3624  0.2130  0.0045
    5DOPE   O22  539   1.368   4.033  16.346  1.0139  0.1215  0.0872
    5DOPE   C22  540   1.350   4.134  16.128 -0.0245  0.2095  0.5392
    5DOPE   H2R  541   1.326   4.082  16.033 -0.9886  1.0766  0.2859
    5DOPE   H2S  542   1.458   4.154  16.146  0.1096 -0.2821  0.3082
    5DOPE    C3  543   0.985   3.899  16.251  0.2413  0.7832 -0.5930
    5DOPE    HX  544   0.913   3.976  16.218 -3.6606 -1.4066  1.9526
    5DOPE    HY  545   0.937   3.852  16.340  0.5931 -0.4023 -1.0080
    5DOPE   O31  546   1.009   3.803  16.145 -0.2818  0.3014  0.5614
    5DOPE   C31  547   0.905   3.743  16.092  0.3004  0.0678 -0.5344
    5DOPE   O32  548   0.789   3.755  16.136 -0.2222  0.4614  0.6550
    5DOPE   C32  549   0.944   3.651  15.974 -0.2576  0.0925 -0.1916
    5DOPE   H2X  550   1.055   3.641  15.983 -0.1860  1.2770  0.4904
    5DOPE   H2Y  551   0.891   3.555  15.985 -0.5219  0.1738 -0.7408
    5DOPE   C23  552   1.280   4.274  16.106  0.8790  0.0103  0.1014
    5DOPE   H3R  553   1.358   4.350  16.082  0.2459  0.3796 -0.8297
    5DOPE   H3S  554   1.225   4.302  16.198 -2.7048 -0.7069 -1.6543
    5DOPE   C24  555   1.174   4.278  15.994  0.1551 -0.0428 -0.7126
    5DOPE   H4R  556   1.100   4.360  16.006  0.5916  0.1671  0.7502
    5DOPE   H4S  557   1.121   4.181  15.999 -0.9239  0.5725  0.4482
    5DOPE   C25  558   1.249   4.333  15.868 -0.3404  0.4091  0.7526
    5DOPE   H5R  559   1.341   4.272  15.854  0.8812  2.2411  0.4457
    5DOPE   H5S  560   1.278   4.439  15.880  0.0652  0.3595  0.2682
    5DOPE   C26  561   1.172   4.321  15.727 -0.2415 -0.2466 -0.0160
    5DOPE   H6R  562   1.143   4.214  15.715  1.8463 -0.9528  0.7442
    5DOPE   H6S  563   1.252   4.341  15.653  0.9224  1.0348  1.5449
    5DOPE   C27  564   1.056   4.424  15.722  0.2227 -0.2553 -0.3896
    5DOPE   H7R  565   1.104   4.512  15.772  0.5222 -1.0711  0.8028
    5DOPE   H7S  566   0.981   4.391  15.796  1.6585  1.8306  2.1914
    5DOPE   C28  567   0.998   4.444  15.581 -0.2536  0.1759 -0.2686
    5DOPE   H8R  568   0.901   4.497  15.597 -0.4651 -0.8372  2.3808
    5DOPE   H8S  569   0.964   4.350  15.534 -2.6360  0.7930  0.0803
    5DOPE   C29  570   1.081   4.526  15.494  0.1982 -0.2525  0.4279
    5DOPE   H9R  571   1.141   4.605  15.541  0.1710  1.7972 -2.6411
    5DOPE  C210  572   1.106   4.500  15.362 -0.4136  0.2963 -0.3248
    5DOPE  H10R  573   1.167   4.571  15.305  2.2698 -0.6436  1.2055
    5DOPE  C211  574   1.054   4.388  15.273  0.3253 -0.0769 -0.5018
    5DOPE  H11R  575   0.964   4.418  15.216  1.3153  0.4158 -1.8495
    5DOPE  H11S  576   1.043   4.299  15.338  0.4928 -0.8447 -1.5013
    5DOPE  C212  577   1.159   4.352  15.161 -0.0254  0.2677 -0.4400
    5DOPE  H12R  578   1.252   4.313  15.207  0.8709  2.4783 -0.2402
    5DOPE  H12S  579   1.202   4.441  15.108  2.1131 -0.0193  0.7170
    5DOPE  C213  580   1.102   4.249  15.056 -0.3793  0.1730  0.1526
    5DOPE  H13R  581   1.056   4.162  15.108 -4.6094 -0.3409 -3.8061
    5DOPE  H13S  582   1.183   4.210  14.990 -2.6999 -3.5510 -0.8422
    5DOPE  C214  583   0.989   4.292  14.964  0.5952 -0.2418 -0.1456
    5DOPE  H14R  584   1.038   4.351  14.884  1.3317 -0.8175 -0.1223
    5DOPE  H14S  585   0.924   4.362  15.021  1.7598 -2.2140  4.0197
    5DOPE  C215  586   0.889   4.180  14.913  0.2587  0.2645  0.3097
    5DOPE  H15R  587   0.830   4.138  14.998  0.1106  2.1812  1.2207
    5DOPE  H15S  588   0.953   4.101  14.870 -0.6799 -0.4670  0.2290
    5DOPE  C216  589   0.800   4.215  14.794 -0.2046  0.6463 -0.8122
    5DOPE  H16R  590   0.860   4.262  14.714 -0.1744  0.4744 -0.8902
    5DOPE  H16S  591   0.737   4.301  14.825 -0.5555 -0.3883  1.5307
    5DOPE  C217  592   0.695   4.100  14.774  0.4792 -0.2913  0.3803
    5DOPE  H17R  593   0.659   4.054  14.868  3.7642 -0.8396  1.4895
    5DOPE  H17S  594   0.747   4.015  14.724 -2.9638 -1.9589 -0.7335
    5DOPE  C218  595   0.580   4.138  14.685  0.2294 -0.1709  0.5499
    5DOPE  H18R  596   0.531   4.047  14.643 -0.9297 -0.2192  1.9223
    5DOPE  H18S  597   0.622   4.205  14.608 -1.1894 -1.4443 -1.4321
    5DOPE  H18T  598   0.497   4.190  14.737 -1.6899 -1.5832 -0.9453
    5DOPE   C33  599   0.895   3.700  15.835 -0.4059  0.4160 -0.3953
    5DOPE   H3X  600   0.912   3.808  15.815 -1.7205  0.3139 -2.4071
    5DOPE   H3Y  601   0.787   3.678  15.818 -0.0135 -2.0443 -0.1479
    5DOPE   C34  602   0.965   3.615  15.720 -0.1781 -0.2079  0.3197
    5DOPE   H4X  603   1.070   3.647  15.707 -0.2648 -0.5643 -1.6070
    5DOPE   H4Y  604   0.965   3.510  15.756  1.7615 -0.5329 -0.5117
    5DOPE   C35  605   0.893   3.629  15.583  0.3212  0.1550 -0.2055
    5DOPE   H5X  606   0.969   3.610  15.504 -0.0164  0.9601 -0.7387
    5DOPE   H5Y  607   0.867   3.733  15.552  0.5795  1.2124  2.8221
    5DOPE   C36  608   0.785   3.524  15.564 -0.1307 -0.4572 -0.0106
    5DOPE   H6X  609   0.698   3.546  15.629 -1.3830 -0.5088 -1.5937
    5DOPE   H6Y  610   0.808   3.415  15.573 -2.1636 -0.8881  0.4681
    5DOPE   C37  611   0.708   3.531  15.426  0.5989 -0.1794  0.4802
    5DOPE   H7X  612   0.773   3.552  15.338 -0.6123 -1.8475 -0.8923
    5DOPE   H7Y  613   0.667   3.429  15.413  0.6587 -0.4563  2.2327
    5DOPE   C38  614   0.595   3.636  15.430  0.8808 -0.2658 -0.3439
    5DOPE   H8X  615   0.639   3.737  15.446  1.2435 -0.6287  1.0982
    5DOPE   H8Y  616   0.530   3.611  15.517 -1.4408  0.7506 -1.6812
    5DOPE   C39  617   0.505   3.624  15.312  0.2885 -0.1165  0.1343
    5DOPE   H9X  618   0.539   3.680  15.224 -0.1478  1.0111  0.6593
    5DOPE  C310  619   0.400   3.543  15.296 -0.3560  0.1339 -0.7430
    5DOPE  H10X  620   0.354   3.546  15.195 -1.2839 -0.5231 -0.3625
    5DOPE  C311  621   0.340   3.447  15.392 -0.3456 -0.0673 -0.1028
    5DOPE  H11X  622   0.422   3.391  15.442 -1.8697 -0.5967  1.9870
    5DOPE  H11Y  623   0.284   3.485  15.481 -1.0887 -1.8748  0.2541
    5DOPE  C312  624   0.268   3.330  15.319 -0.3430  0.4574 -0.3431
    5DOPE  H12X  625   0.182   3.368  15.260  1.0591  3.3416 -0.6687
    5DOPE  H12Y  626   0.236   3.250  15.390  1.4939  0.2130  0.2563
    5DOPE  C313  627   0.342   3.255  15.208 -0.1682 -0.9099 -0.0060
    5DOPE  H13X  628   0.366   3.335  15.134 -0.4334 -0.6140  0.2238
    5DOPE  H13Y  629   0.433   3.204  15.245  0.6546 -0.6177 -1.5647
    5DOPE  C314  630   0.255   3.154  15.137  0.6827  0.2635 -0.1317
    5DOPE  H14X  631   0.161   3.206  15.109  0.1209  0.1635  1.4985
    5DOPE  H14Y  632   0.230   3.085  15.221  2.1628 -0.2721 -0.0936
    5DOPE  C315  633   0.318   3.083  15.014  0.0742 -0.6681 -0.2606
    5DOPE  H15X  634   0.256   2.995  14.988 -1.4066  0.3612 -0.3567
    5DOPE  H15Y  635   0.418   3.044  15.042  0.1054 -0.1606  0.3603
    5DOPE  C316  636   0.317   3.173  14.887 -0.1604 -0.2328 -0.3116
    5DOPE  H16X  637   0.380   3.259  14.921  1.4206 -1.6800  0.5412
    5DOPE  H16Y  638   0.209   3.191  14.869 -0.4288 -0.5907  0.8509
    5DOPE  C317  639   0.366   3.106  14.762 -0.7196  0.1685  0.2128
    5DOPE  H17X  640   0.453   3.042  14.787  0.1667  1.1571 -0.2908
    5DOPE  H17Y  641   0.288   3.041  14.716 -2.6285  0.7792  2.4267
    5DOPE  C318  642   0.423   3.203  14.659 -0.2636  1.5792 -0.3839
    5DOPE  H18X  643   0.495   3.148  14.596 -0.7961  0.5796 -0.1402
    5DOPE  H18Y  644   0.342   3.231  14.588 -0.3929  0.4943 -0.6810
    5DOPE  H18Z  645   0.476   3.290  14.702  0.7318  0.0174  1.7178
    6DOPE     N  646   1.883   4.977  16.952  0.2755  0.2333 -0.2259
    6DOPE   HN1  647   1.830   5.013  17.034  0.5210  0.8538 -0.3309
    6DOPE   HN2  648   1.937   4.891  16.973 -0.0785 -0.0660 -0.5359
    6DOPE   HN3  649   1.955   5.051  16.940  0.4811 -0.0187 -0.5333
    6DOPE   C12  650   1.804   4.963  16.822  0.3618  0.2431 -0.1937
    6DOPE  H12A  651   1.726   5.042  16.820 -0.6970 -0.7859 -1.8265
    6DOPE  H12B  652   1.747   4.868  16.827  2.3027 -0.9410  1.0280
    6DOPE   C11  653   1.897   4.954  16.702  0.5830 -0.4454 -0.2084
    6DOPE  H11A  654   1.938   5.052  16.668 -1.2014 -0.0942 -1.4726
    6DOPE  H11B  655   1.834   4.921  16.617  2.9232 -1.9557 -1.4855
    6DOPE     P  656   2.041   4.731  16.681  0.3379  0.3413 -0.0678
    6DOPE   O13  657   2.057   4.634  16.787 -0.1970  0.9249  0.0320
    6DOPE   O14  658   2.148   4.738  16.586  0.1439  0.6237 -0.1611
    6DOPE   O11  659   1.899   4.711  16.619 -0.2904  0.2155 -0.3531
    6DOPE   O12  660   2.015   4.874  16.740  0.3207  0.2058  0.2583
    6DOPE    C1  661   1.848   4.569  16.615 -0.0944 -0.6600 -0.2210
    6DOPE    HA  662   1.737   4.569  16.616 -0.1582  0.5574  2.7686
    6DOPE    HB  663   1.875   4.508  16.704  0.7087 -0.1618 -0.1144
    6DOPE    C2  664   1.881   4.496  16.484  0.8758 -0.3162  0.4169
    6DOPE    HS  665   1.992   4.487  16.480  0.9422  0.7842 -1.8001
    6DOPE   O21  666   1.819   4.576  16.378  0.8593 -0.3487 -0.0783
    6DOPE   C21  667   1.901   4.621  16.285 -0.8233  0.0302 -0.7046
    6DOPE   O22  668   2.020   4.601  16.284  0.2597  0.6548 -0.8955
    6DOPE   C22  669   1.820   4.703  16.179  0.6141  0.3781  0.0702
    6DOPE   H2R  670   1.891   4.754  16.110  1.5361  0.1076  0.7893
    6DOPE   H2S  671   1.756   4.778  16.227  0.1029  0.1992 -0.3219
    6DOPE    C3  672   1.836   4.346  16.481 -0.3323 -0.0845 -0.0365
    6DOPE    HX  673   1.727   4.338  16.501 -0.4594 -3.4543 -1.4539
    6DOPE    HY  674   1.887   4.293  16.564 -2.7141 -0.6167  1.1881
    6DOPE   O31  675   1.876   4.290  16.360  0.0723  0.5500  0.1811
    6DOPE   C31  676   1.782   4.288  16.267  0.0355  0.3372 -0.5518
    6DOPE   O32  677   1.662   4.314  16.283  0.1317  0.3961  0.4379
    6DOPE   C32  678   1.834   4.245  16.131  0.3373  0.6130 -0.4435
    6DOPE   H2X  679   1.883   4.327  16.073  1.3741 -1.6552 -2.9709
    6DOPE   H2Y  680   1.889   4.151  16.153  0.4623  0.7794 -0.0359
    6DOPE   C23  681   1.737   4.613  16.078  0.4580 -0.2096 -0.0510
    6DOPE   H3R  682   1.648   4.575  16.133 -0.1718  0.4406 -0.6005
    6DOPE   H3S  683   1.796   4.532  16.032  0.2759 -0.4750  0.1762
    6DOPE   C24  684   1.682   4.680  15.958  0.5721 -1.0468  0.2056
    6DOPE   H4R  685   1.763   4.730  15.902 -0.4235  0.5966  0.1573
    6DOPE   H4S  686   1.628   4.773  15.984  0.9521 -0.7750  0.0188
    6DOPE   C25  687   1.581   4.599  15.874  0.6530 -0.4711  0.4823
    6DOPE   H5R  688   1.504   4.555  15.940 -2.3904 -0.9036 -3.0554
    6DOPE   H5S  689   1.645   4.518  15.834  2.1574 -0.1161  2.0150
    6DOPE   C26  690   1.538   4.687  15.756  0.1112  0.4815  0.3504
    6DOPE   H6R  691   1.622   4.751  15.721 -0.0192  0.8858  0.7610
    6DOPE   H6S  692   1.458   4.758  15.787 -0.9871 -0.0898 -1.1131
    6DOPE   C27  693   1.508   4.595  15.639  0.6205 -0.7403  0.0806
    6DOPE   H7R  694   1.408   4.547  15.635  0.7075 -0.8203 -2.0220
    6DOPE   H7S  695   1.591   4.522  15.626  1.9221  0.8640 -0.9815
    6DOPE   C28  696   1.494   4.676  15.508 -0.3544 -0.5070  0.0453
    6DOPE   H8R  697   1.412   4.750  15.510  1.7444  2.0608 -1.7225
    6DOPE   H8S  698   1.466   4.601  15.432  1.5703 -0.5156 -0.7208
    6DOPE   C29  699   1.605   4.763  15.450 -0.2408  0.0459 -0.8847
    6DOPE   H9R  700   1.686   4.780  15.523  1.6282 -2.0110 -2.3425
    6DOPE  C210  701   1.607   4.830  15.337  0.7426 -0.2458  0.1551
    6DOPE  H10R  702   1.697   4.887  15.310 -0.3230 -0.2579 -4.2272
    6DOPE  C211  703   1.510   4.815  15.215 -0.5005  0.5561 -0.6345
    6DOPE  H11R  704   1.436   4.737  15.243 -0.1893 -0.0422 -1.4086
    6DOPE  H11S  705   1.569   4.776  15.129 -0.5810 -3.0925  0.7857
    6DOPE  C212  706   1.450   4.952  15.183  0.0343  0.2989  0.1122
    6DOPE  H12R  707   1.522   5.036  15.188  1.2128 -0.6194 -0.7954
    6DOPE  H12S  708   1.377   4.988  15.258  0.5581  0.3422  0.6073
    6DOPE  C213  709   1.380   4.958  15.049  0.9137 -0.1226  0.3030
    6DOPE  H13R  710   1.314   5.046  15.061 -1.7715 -1.9763 -0.1672
    6DOPE  H13S  711   1.306   4.876  15.039 -1.2904  2.0352 -2.7591
    6DOPE  C214  712   1.470   4.980  14.936 -0.2932  0.4274  0.1924
    6DOPE  H14R  713   1.535   4.890  14.932 -0.3536  0.2839  1.8024
    6DOPE  H14S  714   1.545   5.060  14.953  0.8485 -0.4256 -0.6107
    6DOPE  C215  715   1.390   4.978  14.795 -0.7508 -0.1614 -0.0020
    6DOPE  H15R  716   1.313   5.058  14.796  0.8937  1.5090  1.1042
    6DOPE  H15S  717   1.338   4.881  14.780 -1.1692 -0.0144  0.4599
    6DOPE  C216  718   1.483   5.000  14.675 -0.5120 -0.4084 -0.0271
    6DOPE  H16R  719   1.544   5.093  14.683 -0.7483 -0.3981  3.4681
    6DOPE  H16S  720   1.418   5.010  14.586 -0.9430  0.9414  0.3963
    6DOPE  C217  721   1.588   4.889  14.641  0.3158  0.3331 -0.4303
    6DOPE  H17R  722   1.566   4.790  14.687  2.2338 -0.4205 -1.0104
    6DOPE  H17S  723   1.682   4.924  14.690  0.0850 -0.8728  0.9437
    6DOPE  C218  724   1.610   4.865  14.488 -0.3503  0.1291  0.0451
    6DOPE  H18R  725   1.513   4.840  14.439 -0.3285  0.3664 -0.1197
    6DOPE  H18S  726   1.692   4.795  14.461 -0.9515  0.1194 -1.9465
    6DOPE  H18T  727   1.637   4.967  14.453 -1.2425  0.1079 -0.7494
    6DOPE   C33  728   1.719   4.194  16.043 -0.1362  0.4890  0.2253
    6DOPE   H3X  729   1.654   4.284  16.040  1.0086  1.3516  0.7952
    6DOPE   H3Y  730   1.658   4.109  16.082 -0.2197  0.3782 -0.1401
    6DOPE   C34  731   1.770   4.171  15.898 -0.5933  0.5843  0.3288
    6DOPE   H4X  732   1.817   4.268  15.869 -0.4606 -0.3361 -2.9481
    6DOPE   H4Y  733   1.848   4.094  15.884  2.1272  3.2903 -0.7068
    6DOPE   C35  734   1.647   4.135  15.811 -0.1022 -0.1940 -0.1290
    6DOPE   H5X  735   1.670   4.155  15.704  0.2950  1.4236  0.2315
    6DOPE   H5Y  736   1.566   4.206  15.838 -0.5405 -0.0635 -1.6669
    6DOPE   C36  737   1.591   3.989  15.832 -0.3627  0.1224  0.3469
    6DOPE   H6X  738   1.555   3.982  15.937 -0.8087 -1.2589  0.1115
    6DOPE   H6Y  739   1.681   3.925  15.820  0.6781  1.8700 -1.9181
    6DOPE   C37  740   1.475   3.946  15.734  0.2189 -0.3190 -0.0690
    6DOPE   H7X  741   1.397   4.024  15.744 -1.2649 -1.4742 -1.9435
    6DOPE   H7Y  742   1.506   3.949  15.628 -0.9470  0.6814 -0.3978
    6DOPE   C38  743   1.412   3.807  15.769 -0.4392 -0.5678  0.2136
    6DOPE   H8X  744   1.491   3.730  15.769 -0.9285 -1.1407  2.5277
    6DOPE   H8Y  745   1.355   3.775  15.679  2.5322 -1.2798 -1.5168
    6DOPE   C39  746   1.327   3.817  15.892 -0.0057  0.6104 -0.1770
    6DOPE   H9X  747   1.250   3.895  15.886 -1.4165 -0.6627  0.5125
    6DOPE  C310  748   1.345   3.751  16.007 -0.0654  0.0310 -0.2045
    6DOPE  H10X  749   1.302   3.792  16.100  2.0037  3.6221 -0.6580
    6DOPE  C311  750   1.456   3.646  16.016  0.1554 -0.4651 -1.1906
    6DOPE  H11X  751   1.433   3.560  16.083  0.8515 -0.4303 -0.8993
    6DOPE  H11Y  752   1.472   3.598  15.918  1.2440 -0.3027 -1.1094
    6DOPE  C312  753   1.584   3.718  16.045  0.2794 -0.3847  0.6275
    6DOPE  H12X  754   1.607   3.790  15.963 -1.4231 -0.8975 -0.3620
    6DOPE  H12Y  755   1.671   3.652  16.027  1.7079  1.7744 -1.0322
    6DOPE  C313  756   1.590   3.769  16.185 -0.5710  0.1053 -0.3001
    6DOPE  H13X  757   1.510   3.847  16.188 -1.0122 -0.2268 -2.2771
    6DOPE  H13Y  758   1.564   3.689  16.258 -3.1702  0.5554 -0.6125
    6DOPE  C314  759   1.726   3.830  16.207  0.2075 -0.2618  0.1411
    6DOPE  H14X  760   1.754   3.916  16.143 -1.6793 -0.2663 -0.7880
    6DOPE  H14Y  761   1.807   3.761  16.174 -1.2333 -2.2457  0.5097
    6DOPE  C315  762   1.748   3.865  16.349 -0.6786  0.8837  0.0549
    6DOPE  H15X  763   1.729   3.773  16.408  0.8977 -2.3835 -3.9879
    6DOPE  H15Y  764   1.680   3.944  16.389 -2.2548 -0.7381  0.7099
    6DOPE  C316  765   1.900   3.884  16.391  1.1400  0.2591  0.7795
    6DOPE  H16X  766   1.934   3.988  16.371 -1.3789  1.0382  0.1984
    6DOPE  H16Y  767   1.951   3.817  16.319 -0.1181  0.4643 -0.3454
    6DOPE  C317  768   1.943   3.878  16.536  0.2289 -0.0132 -0.0175
    6DOPE  H17X  769   1.958   3.779  16.584  1.6512 -0.2737 -0.9418
    6DOPE  H17Y  770   2.045   3.920  16.541  0.9663 -1.1638 -3.0505
    6DOPE  C318  771   1.851   3.961  16.621 -0.1468 -0.0774 -0.3547
    6DOPE  H18X  772   1.890   3.979  16.724  0.5462 -1.1153 -0.4263
    6DOPE  H18Y  773   1.837   4.055  16.563  1.1487 -1.1004 -2.4248
    6DOPE  H18Z  774   1.757   3.904  16.635  0.0727  0.0308  2.0908
    7DOPE     N  775   4.091   5.384  17.008  0.9567  0.2889 -0.1781
    7DOPE   HN1  776   4.014   5.441  16.969  0.0331 -1.1593 -0.5699
    7DOPE   HN2  777   4.064   5.352  17.103 -1.9546 -0.4985 -1.1777
    7DOPE   HN3  778   4.178   5.440  17.012  1.2924 -0.2706  0.5608
    7DOPE   C12  779   4.110   5.261  16.924 -0.5815 -0.2922 -0.5659
    7DOPE  H12A  780   4.212   5.219  16.933 -0.4461  0.1865  0.3616
    7DOPE  H12B  781   4.081   5.294  16.822  1.8022  1.4969 -0.7391
    7DOPE   C11  782   4.009   5.149  16.960  0.2442 -0.2982  0.1381
    7DOPE  H11A  783   3.905   5.169  16.926  0.2421 -0.6966 -0.1069
    7DOPE  H11B  784   4.010   5.132  17.070 -1.2158 -0.7296  0.1145
    7DOPE     P  785   3.982   4.899  16.901 -0.1769 -0.0654  0.0473
    7DOPE   O13  786   3.971   4.853  17.043  0.4473 -0.5073 -0.2468
    7DOPE   O14  787   4.050   4.801  16.809  0.4249 -0.5353 -0.2276
    7DOPE   O11  788   3.845   4.935  16.852  0.7069  0.2834 -0.2887
    7DOPE   O12  789   4.058   5.032  16.902  0.2247  0.3242 -0.0880
    7DOPE    C1  790   3.758   4.869  16.760 -0.2403  0.1346 -0.2361
    7DOPE    HA  791   3.657   4.866  16.804 -0.6605 -0.1308 -1.1877
    7DOPE    HB  792   3.785   4.762  16.743 -0.4742  0.0069  0.1894
    7DOPE    C2  793   3.759   4.933  16.621  0.1504 -0.8222 -0.5453
    7DOPE    HS  794   3.688   4.879  16.555  1.0037 -1.4939 -0.9455
    7DOPE   O21  795   3.894   4.950  16.573 -0.0770 -0.2368 -0.0802
    7DOPE   C21  796   3.944   4.848  16.513 -0.1793 -0.2082  0.0770
    7DOPE   O22  797   3.879   4.750  16.487 -0.4214  0.2522 -0.1351
    7DOPE   C22  798   4.087   4.881  16.461 -0.3362  0.2683  0.1190
    7DOPE   H2R  799   4.120   4.796  16.396  0.9668  0.7241  0.1635
    7DOPE   H2S  800   4.153   4.888  16.550 -2.2870 -0.5872  1.7113
    7DOPE    C3  801   3.699   5.076  16.634  0.6912  0.7594 -0.0763
    7DOPE    HX  802   3.759   5.120  16.716  2.1714  0.7108 -1.0902
    7DOPE    HY  803   3.594   5.069  16.669  0.7011 -2.0641 -0.3750
    7DOPE   O31  804   3.700   5.146  16.506  0.0901 -0.0808 -0.0084
    7DOPE   C31  805   3.731   5.275  16.520  0.1776  0.6571  1.0385
    7DOPE   O32  806   3.740   5.334  16.624 -0.2972  0.2837 -0.3823
    7DOPE   C32  807   3.766   5.330  16.380  0.8423 -0.0597 -0.3275
    7DOPE   H2X  808   3.873   5.311  16.357  1.9887  3.9943  0.7998
    7DOPE   H2Y  809   3.707   5.282  16.299  3.2288  0.2703 -2.3604
    7DOPE   C23  810   4.105   5.011  16.366 -0.0976 -0.2003 -0.1821
    7DOPE   H3R  811   4.210   5.011  16.330  0.0165 -0.5175  0.1512
    7DOPE   H3S  812   4.073   5.108  16.411 -1.0094 -1.2317  1.5061
    7DOPE   C24  813   4.022   5.001  16.238 -0.2514  0.0819  0.1834
    7DOPE   H4R  814   3.921   4.980  16.280  0.4787  1.9491  3.2056
    7DOPE   H4S  815   4.053   4.901  16.202 -0.1382  0.2211 -0.1078
    7DOPE   C25  816   4.035   5.125  16.147 -0.4140  0.0173 -0.2113
    7DOPE   H5R  817   4.143   5.130  16.121  0.0760  1.3709  1.7813
    7DOPE   H5S  818   4.001   5.217  16.199  1.7773  1.9154 -1.9299
    7DOPE   C26  819   3.963   5.103  16.013  0.5682  0.1784 -0.1899
    7DOPE   H6R  820   3.961   5.203  15.965 -2.6883  0.9209  1.2123
    7DOPE   H6S  821   3.857   5.076  16.035  0.3128  0.3814 -1.0949
    7DOPE   C27  822   4.032   5.000  15.918 -0.3127 -0.0476  0.0036
    7DOPE   H7R  823   4.032   4.902  15.970 -1.5215  0.4525  1.0133
    7DOPE   H7S  824   4.138   5.028  15.901  0.3056 -1.1246  1.8628
    7DOPE   C28  825   3.949   5.001  15.785 -1.1792 -0.1923 -0.2445
    7DOPE   H8R  826   3.964   5.102  15.743 -0.9241 -0.4043 -0.6664
    7DOPE   H8S  827   3.844   4.986  15.818 -0.4074  1.6267  3.6580
    7DOPE   C29  828   3.994   4.895  15.698 -0.9724  0.7389  0.4950
    7DOPE   H9R  829   3.945   4.798  15.716  0.1846  0.5654  3.1316
    7DOPE  C210  830   4.089   4.904  15.606  0.7148 -0.2129  0.1671
    7DOPE  H10R  831   4.110   4.815  15.544 -0.0935  0.2077 -0.7206
    7DOPE  C211  832   4.167   5.030  15.571 -0.1047  0.5685  0.2794
    7DOPE  H11R  833   4.184   5.092  15.661  1.0943  1.5183 -0.5783
    7DOPE  H11S  834   4.113   5.085  15.491 -0.3619  0.2943  0.2618
    7DOPE  C212  835   4.310   5.004  15.525 -0.1232  0.0985 -0.0647
    7DOPE  H12R  836   4.354   5.104  15.502 -1.6405  0.9218  0.4216
    7DOPE  H12S  837   4.305   4.941  15.434 -0.3360  0.0937 -0.0497
    7DOPE  C213  838   4.395   4.936  15.634  0.7853 -0.2636  0.0701
    7DOPE  H13R  839   4.361   4.831  15.645 -2.8264  0.6656 -0.9598
    7DOPE  H13S  840   4.381   4.986  15.732 -1.5209  0.6332 -0.6549
    7DOPE  C214  841   4.540   4.938  15.579 -0.9426 -0.6307 -0.2616
    7DOPE  H14R  842   4.579   5.041  15.564  1.4289 -1.0971  2.0719
    7DOPE  H14S  843   4.540   4.893  15.477  1.7851 -0.0035 -0.6020
    7DOPE  C215  844   4.637   4.857  15.667  0.0609  0.2047 -0.2900
    7DOPE  H15R  845   4.638   4.911  15.764 -0.5060  3.0114 -1.7588
    7DOPE  H15S  846   4.737   4.858  15.618 -0.4986 -1.1273 -1.5415
    7DOPE  C216  847   4.594   4.715  15.692  0.5801  0.7023  0.5185
    7DOPE  H16R  848   4.631   4.658  15.604 -1.0038  1.1611 -0.5036
    7DOPE  H16S  849   4.484   4.698  15.685  0.7650 -0.2420 -0.5591
    7DOPE  C217  850   4.660   4.648  15.805  1.0643  0.2429 -0.2447
    7DOPE  H17R  851   4.674   4.721  15.887  3.8767  1.7549 -1.9058
    7DOPE  H17S  852   4.762   4.626  15.765  0.1709 -3.9784 -0.7412
    7DOPE  C218  853   4.594   4.515  15.850  0.0354  0.4561  0.1321
    7DOPE  H18R  854   4.589   4.449  15.761 -0.9657 -1.1786  1.3640
    7DOPE  H18S  855   4.492   4.531  15.890  0.0181  2.5504 -0.6172
    7DOPE  H18T  856   4.658   4.460  15.922 -1.0003 -1.7678 -0.5670
    7DOPE   C33  857   3.748   5.479  16.371 -0.0656 -0.1631 -0.0168
    7DOPE   H3X  858   3.833   5.537  16.413 -1.5089  2.9491 -1.0405
    7DOPE   H3Y  859   3.659   5.519  16.424 -0.7623  1.8852 -2.5328
    7DOPE   C34  860   3.739   5.519  16.223 -0.4771 -0.8992 -0.3630
    7DOPE   H4X  861   3.654   5.465  16.176  0.6827 -1.8097 -1.4646
    7DOPE   H4Y  862   3.714   5.627  16.229 -1.6482 -1.1582 -0.2107
    7DOPE   C35  863   3.867   5.499  16.137 -0.3466  0.7861 -1.2273
    7DOPE   H5X  864   3.889   5.390  16.129 -1.7647  0.0957  2.3669
    7DOPE   H5Y  865   3.952   5.538  16.197  1.0228 -0.4736 -2.2461
    7DOPE   C36  866   3.869   5.580  16.006 -0.4080 -0.0015 -0.1861
    7DOPE   H6X  867   3.972   5.577  15.963  0.1561  1.8411  0.9377
    7DOPE   H6Y  868   3.831   5.679  16.040 -1.5579 -0.5903  0.3155
    7DOPE   C37  869   3.768   5.531  15.904 -0.7359 -0.4423  0.1357
    7DOPE   H7X  870   3.809   5.431  15.876 -3.8267 -1.8870  0.3779
    7DOPE   H7Y  871   3.667   5.504  15.942 -0.1138 -1.6396  1.0288
    7DOPE   C38  872   3.773   5.610  15.769 -0.5420 -0.4172  0.0801
    7DOPE   H8X  873   3.750   5.540  15.686 -2.1599  1.4657 -1.1648
    7DOPE   H8Y  874   3.874   5.652  15.747  0.4120 -3.3864 -1.8284
    7DOPE   C39  875   3.657   5.707  15.763 -0.2116  0.4033  0.3424
    7DOPE   H9X  876   3.595   5.716  15.853  0.0454  0.3016  0.5328
    7DOPE  C310  877   3.619   5.780  15.652  0.1480  0.1587 -0.0149
    7DOPE  H10X  878   3.535   5.851  15.656  0.1019  0.0646  2.2058
    7DOPE  C311  879   3.696   5.781  15.521 -0.5279 -0.5144  0.2097
    7DOPE  H11X  880   3.747   5.877  15.498  1.8410 -1.8674 -0.5692
    7DOPE  H11Y  881   3.780   5.708  15.518 -1.1365 -1.2169 -2.0572
    7DOPE  C312  882   3.612   5.721  15.403  0.3172 -0.3326  0.5137
    7DOPE  H12X  883   3.527   5.786  15.373  0.3619 -0.2635  0.5360
    7DOPE  H12Y  884   3.563   5.629  15.440 -0.2219  0.4524  1.8291
    7DOPE  C313  885   3.691   5.681  15.281 -0.1685 -0.1520  0.3487
    7DOPE  H13X  886   3.788   5.628  15.295 -0.7428 -1.2655  0.2429
    7DOPE  H13Y  887   3.619   5.629  15.214  0.3957  1.6188 -1.7522
    7DOPE  C314  888   3.721   5.817  15.208  0.2689 -0.0097  0.2314
    7DOPE  H14X  889   3.771   5.872  15.290 -0.7646  0.6132  0.4564
    7DOPE  H14Y  890   3.623   5.861  15.180 -0.8336 -2.4695 -0.0438
    7DOPE  C315  891   3.825   5.788  15.094  0.3683  0.0217  0.3061
    7DOPE  H15X  892   3.906   5.726  15.138 -0.5530 -0.6971  1.0272
    7DOPE  H15Y  893   3.869   5.890  15.087  0.4237 -0.0118  0.1714
    7DOPE  C316  894   3.770   5.732  14.959  0.2560  0.6830 -0.1183
    7DOPE  H16X  895   3.728   5.635  14.993 -0.6847  1.8889  2.4675
    7DOPE  H16Y  896   3.850   5.713  14.884  0.9152 -0.1106  0.7535
    7DOPE  C317  897   3.656   5.814  14.899  0.0399  0.0197  0.0310
    7DOPE  H17X  898   3.576   5.830  14.974  1.6237  1.1530  1.5673
    7DOPE  H17Y  899   3.689   5.915  14.864  0.5142 -0.4338 -0.8513
    7DOPE  C318  900   3.590   5.745  14.773  0.0343  0.1547 -0.3475
    7DOPE  H18X  901   3.541   5.648  14.794 -2.2683  1.2934 -0.0402
    7DOPE  H18Y  902   3.511   5.814  14.735  0.7772  0.0981 -2.1082
    7DOPE  H18Z  903   3.658   5.737  14.686 -0.2377 -0.5777 -0.4959
    8DOPE     N  904   4.557   5.514  17.431  0.1878  0.0501  0.2841
    8DOPE   HN1  905   4.506   5.432  17.470 -1.7498  1.4231  0.7785
    8DOPE   HN2  906   4.587   5.577  17.508  1.7881  0.0271 -0.2973
    8DOPE   HN3  907   4.478   5.571  17.394 -0.3972 -0.5555  0.5808
    8DOPE   C12  908   4.667   5.480  17.344  1.1201  0.2635  0.4089
    8DOPE  H12A  909   4.622   5.429  17.257 -1.4979  1.8654  0.6998
    8DOPE  H12B  910   4.736   5.409  17.395  0.4976 -0.2441  0.5567
    8DOPE   C11  911   4.745   5.611  17.317 -0.8562 -0.2711  0.2949
    8DOPE  H11A  912   4.832   5.581  17.254 -1.3173 -2.4058  0.5788
    8DOPE  H11B  913   4.792   5.637  17.414 -0.4213  2.0700 -0.4903
    8DOPE     P  914   4.719   5.835  17.175 -0.1049 -0.0277  0.3122
    8DOPE   O13  915   4.841   5.893  17.235 -0.0685  0.0102 -0.2541
    8DOPE   O14  916   4.608   5.929  17.158  0.5598  0.2621 -0.1887
    8DOPE   O11  917   4.762   5.774  17.037 -0.0793  0.8278 -0.3666
    8DOPE   O12  918   4.664   5.711  17.258 -0.0154  0.1095  0.3549
    8DOPE    C1  919   4.664   5.727  16.942  0.0181  0.2606  0.8229
    8DOPE    HA  920   4.617   5.816  16.895 -1.0043  1.4619  3.8508
    8DOPE    HB  921   4.586   5.658  16.980 -1.4425  1.3787 -0.0421
    8DOPE    C2  922   4.735   5.642  16.838  0.1796 -0.2397 -0.6536
    8DOPE    HS  923   4.785   5.565  16.901  1.7373  0.9241 -0.4299
    8DOPE   O21  924   4.825   5.727  16.769 -0.0361  0.7356  0.5169
    8DOPE   C21  925   4.923   5.654  16.700  0.7097 -0.0039  0.4685
    8DOPE   O22  926   4.930   5.532  16.688  0.5035  0.2910  0.0116
    8DOPE   C22  927   5.032   5.747  16.651 -0.3552 -0.5087  0.1225
    8DOPE   H2R  928   5.101   5.694  16.581 -0.4044  1.2595 -1.3219
    8DOPE   H2S  929   5.103   5.752  16.736 -1.7205 -4.1511  1.7180
    8DOPE    C3  930   4.639   5.565  16.740 -0.4284  0.3166 -0.2162
    8DOPE    HX  931   4.557   5.509  16.790 -0.0167 -1.1904 -1.1946
    8DOPE    HY  932   4.688   5.479  16.690 -0.3301 -0.8130  1.7042
    8DOPE   O31  933   4.590   5.646  16.631  0.3414 -0.3035  0.1978
    8DOPE   C31  934   4.475   5.711  16.660  0.3384 -0.0939 -0.2270
    8DOPE   O32  935   4.407   5.690  16.758 -0.7004  0.1195  0.0363
    8DOPE   C32  936   4.443   5.827  16.567  0.0417 -0.1168  0.0896
    8DOPE   H2X  937   4.378   5.785  16.488 -1.7384 -1.2261  2.0408
    8DOPE   H2Y  938   4.371   5.889  16.625 -0.7599 -1.3574  0.4668
    8DOPE   C23  939   5.001   5.885  16.594  0.2335  0.0776 -0.1926
    8DOPE   H3R  940   5.060   5.968  16.638 -0.9128  1.4853 -1.2416
    8DOPE   H3S  941   4.899   5.917  16.621  0.9032 -0.0018  2.8043
    8DOPE   C24  942   5.026   5.888  16.448  0.0904  0.6525  0.4890
    8DOPE   H4R  943   4.971   5.978  16.413 -0.2656 -0.2849 -1.4935
    8DOPE   H4S  944   4.989   5.803  16.387 -1.4307 -1.2636  3.8078
    8DOPE   C25  945   5.167   5.921  16.408 -0.5592  0.1458 -0.2550
    8DOPE   H5R  946   5.229   5.829  16.404 -1.0678 -0.3224  1.5554
    8DOPE   H5S  947   5.209   5.986  16.488 -0.9270  1.7133 -1.2853
    8DOPE   C26  948   5.193   5.985  16.267 -0.2739 -0.2852 -0.1099
    8DOPE   H6R  949   5.299   6.013  16.254 -0.3430 -0.5320 -1.3248
    8DOPE   H6S  950   5.135   6.078  16.244  0.5813 -0.0191 -1.3462
    8DOPE   C27  951   5.164   5.896  16.140 -0.0636  0.0575  0.7402
    8DOPE   H7R  952   5.053   5.890  16.135 -0.0167 -0.2471 -0.0213
    8DOPE   H7S  953   5.196   5.796  16.176 -0.7615  0.1452  1.6421
    8DOPE   C28  954   5.237   5.942  16.010  0.5154  0.3226  0.2577
    8DOPE   H8R  955   5.344   5.948  16.041  0.4654  1.2589  0.2902
    8DOPE   H8S  956   5.209   6.043  15.972  1.1519  0.5626  0.4022
    8DOPE   C29  957   5.227   5.844  15.894  0.1859 -0.0027 -0.3120
    8DOPE   H9R  958   5.304   5.766  15.884 -0.8205 -0.9178 -1.1318
    8DOPE  C210  959   5.141   5.858  15.789 -0.1818  0.0982  0.7051
    8DOPE  H10R  960   5.149   5.787  15.705 -1.3273  1.6405 -0.7742
    8DOPE  C211  961   5.023   5.956  15.762  0.5343 -0.1620  0.3552
    8DOPE  H11R  962   5.002   6.001  15.862 -0.0687  0.3613 -0.0031
    8DOPE  H11S  963   4.932   5.906  15.722  0.5743  2.4792 -3.4784
    8DOPE  C212  964   5.059   6.079  15.668 -0.2391  0.5457 -0.1171
    8DOPE  H12R  965   5.144   6.135  15.713 -0.3013 -1.1405  2.3292
    8DOPE  H12S  966   4.977   6.153  15.675 -1.2472 -0.5920  0.5948
    8DOPE  C213  967   5.091   6.033  15.521 -0.1538  0.0881 -0.7513
    8DOPE  H13R  968   5.003   5.988  15.470 -1.0853  0.4744  0.4774
    8DOPE  H13S  969   5.172   5.958  15.530 -1.1519 -1.1300 -1.5325
    8DOPE  C214  970   5.140   6.146  15.421 -0.0860  0.2227 -0.1917
    8DOPE  H14R  971   5.237   6.185  15.459  0.7242 -0.9193 -1.0067
    8DOPE  H14S  972   5.066   6.229  15.419  0.5472  0.8040  0.2282
    8DOPE  C215  973   5.148   6.096  15.272  0.2496 -0.0056  0.5322
    8DOPE  H15R  974   5.057   6.130  15.219  1.5579  2.3106 -0.3779
    8DOPE  H15S  975   5.164   5.986  15.279 -1.4152 -0.3163 -0.0751
    8DOPE  C216  976   5.271   6.157  15.200  0.6841 -0.2426  0.3359
    8DOPE  H16R  977   5.359   6.145  15.267  0.3382 -1.4358  0.5910
    8DOPE  H16S  978   5.249   6.263  15.174 -1.8837 -0.4040  1.4449
    8DOPE  C217  979   5.299   6.094  15.061  0.0286  0.6888 -0.7832
    8DOPE  H17R  980   5.204   6.110  15.005 -0.7188  0.0567  0.2492
    8DOPE  H17S  981   5.324   5.988  15.086  1.3961  1.3391  0.7694
    8DOPE  C218  982   5.426   6.140  14.987  0.3142  0.1557 -0.5910
    8DOPE  H18R  983   5.428   6.249  14.965  1.7206  0.5533  1.2077
    8DOPE  H18S  984   5.425   6.081  14.893  1.5751 -1.2231  0.2172
    8DOPE  H18T  985   5.509   6.115  15.058  0.3654 -1.3845 -1.1455
    8DOPE   C33  986   4.557   5.921  16.531 -0.3713 -0.0369 -0.5549
    8DOPE   H3X  987   4.652   5.907  16.588  0.3340  1.5668 -1.2640
    8DOPE   H3Y  988   4.531   6.028  16.542  0.2511  0.1008 -0.3572
    8DOPE   C34  989   4.604   5.910  16.383 -0.2858  0.1171 -0.3537
    8DOPE   H4X  990   4.521   5.937  16.314  0.0618  2.3707  0.0089
    8DOPE   H4Y  991   4.681   5.990  16.380 -0.7312  0.6540  1.2630
    8DOPE   C35  992   4.669   5.772  16.354 -0.4149 -0.7986  0.5669
    8DOPE   H5X  993   4.598   5.687  16.361 -1.4365 -0.1985 -1.6106
    8DOPE   H5Y  994   4.737   5.767  16.442 -0.2486  0.3936  0.5138
    8DOPE   C36  995   4.744   5.770  16.224 -0.2231 -0.0703 -0.0529
    8DOPE   H6X  996   4.807   5.678  16.215 -1.0019 -0.5060 -1.4212
    8DOPE   H6Y  997   4.814   5.856  16.217 -2.1459  1.5226 -0.4950
    8DOPE   C37  998   4.652   5.768  16.100  0.6113  0.5459  0.4808
    8DOPE   H7X  999   4.710   5.729  16.013  1.7821 -0.7787  1.7919
    8DOPE   H7Y 1000   4.562   5.706  16.116 -0.1476  1.0371 -1.5794
    8DOPE   C38 1001   4.617   5.906  16.051  0.4157 -1.1838 -0.0636
    8DOPE   H8X 1002   4.706   5.939  15.994  1.3040 -2.6832  0.3957
    8DOPE   H8Y 1003   4.616   5.973  16.140  1.4018  2.5766 -2.6108
    8DOPE   C39 1004   4.495   5.922  15.966  0.5555 -0.3670  0.0200
    8DOPE   H9X 1005   4.405   5.922  16.030  2.4558 -0.0703  2.9244
    8DOPE  C310 1006   4.486   5.914  15.835 -0.9811  0.3555 -0.1571
    8DOPE  H10X 1007   4.391   5.919  15.778 -0.1047 -0.6705 -1.7876
    8DOPE  C311 1008   4.606   5.899  15.747  0.3166  0.7395  0.4762
    8DOPE  H11X 1009   4.689   5.844  15.795 -0.4180 -1.6466 -0.8194
    8DOPE  H11Y 1010   4.583   5.834  15.660  0.7249  2.3930 -0.9232
    8DOPE  C312 1011   4.665   6.024  15.674 -0.5245  0.5459 -0.4679
    8DOPE  H12X 1012   4.743   5.992  15.602 -0.5196  0.6979 -0.5289
    8DOPE  H12Y 1013   4.719   6.087  15.748 -0.3761  0.5274 -0.5618
    8DOPE  C313 1014   4.565   6.115  15.593 -0.9097 -0.0172 -0.0527
    8DOPE  H13X 1015   4.484   6.060  15.541 -1.4725  0.7660 -0.0220
    8DOPE  H13Y 1016   4.510   6.172  15.672  0.6870  1.3558  0.1206
    8DOPE  C314 1017   4.637   6.205  15.502  0.9404  0.0464 -0.8667
    8DOPE  H14X 1018   4.718   6.150  15.449  2.0936  2.0900 -1.3413
    8DOPE  H14Y 1019   4.687   6.287  15.558  0.1833  0.0384 -0.1622
    8DOPE  C315 1020   4.536   6.269  15.405 -0.1470 -0.2683 -0.0205
    8DOPE  H15X 1021   4.459   6.314  15.472 -1.1578 -2.3132  0.2714
    8DOPE  H15Y 1022   4.478   6.202  15.339 -1.8126  2.4908 -1.5575
    8DOPE  C316 1023   4.594   6.371  15.303  0.9820 -0.1906 -0.0504
    8DOPE  H16X 1024   4.674   6.327  15.239 -0.7390 -1.0166 -1.7140
    8DOPE  H16Y 1025   4.632   6.453  15.367  0.9288 -0.0537 -0.1946
    8DOPE  C317 1026   4.481   6.418  15.213  0.0311 -0.3085  0.4014
    8DOPE  H17X 1027   4.454   6.345  15.134 -1.1524  0.2347  0.2727
    8DOPE  H17Y 1028   4.389   6.438  15.271  0.2642  0.8685  0.3936
    8DOPE  C318 1029   4.505   6.550  15.133 -0.2514 -0.3131 -0.2219
    8DOPE  H18X 1030   4.548   6.631  15.196 -1.0495 -0.7036  0.8506
    8DOPE  H18Y 1031   4.414   6.591  15.084  0.2281  1.3508  0.2156
    8DOPE  H18Z 1032   4.578   6.526  15.052  0.5693 -0.0809  0.4318
    9DOPE     N 1033   6.722   3.909  17.105  0.3244  0.4164 -0.1180
    9DOPE   HN1 1034   6.656   3.898  17.184 -0.4935  0.4769 -0.7737
    9DOPE   HN2 1035   6.668   3.875  17.022 -2.4827 -0.6018  1.9489
    9DOPE   HN3 1036   6.800   3.845  17.131 -0.4045 -0.1767  0.6692
    9DOPE   C12 1037   6.763   4.050  17.094 -0.4811  0.5008 -0.0157
    9DOPE  H12A 1038   6.834   4.047  17.009 -0.5882  2.0282 -0.1860
    9DOPE  H12B 1039   6.828   4.081  17.178 -0.2405  2.1387 -0.7545
    9DOPE   C11 1040   6.637   4.146  17.090 -0.3743  0.3637  0.0725
    9DOPE  H11A 1041   6.671   4.251  17.074 -0.9253  0.4837 -0.3416
    9DOPE  H11B 1042   6.593   4.141  17.192  0.3861  1.3989  0.4736
    9DOPE     P 1043   6.413   4.188  16.972  0.0808  0.1285 -0.0692
    9DOPE   O13 1044   6.439   4.322  17.019  0.3641  0.0474  0.2552
    9DOPE   O14 1045   6.301   4.109  17.031  0.3871  0.3116 -0.4155
    9DOPE   O11 1046   6.407   4.195  16.813 -0.2265  0.2117  0.3632
    9DOPE   O12 1047   6.552   4.111  16.984  0.1732 -0.2425 -0.3212
    9DOPE    C1 1048   6.493   4.274  16.729  0.5740  1.1817  0.3770
    9DOPE    HA 1049   6.518   4.372  16.774 -0.7145  1.2206  1.0508
    9DOPE    HB 1050   6.428   4.306  16.645  0.0175  1.0545  0.7522
    9DOPE    C2 1051   6.626   4.205  16.690 -0.0604  0.1260  0.1251
    9DOPE    HS 1052   6.696   4.202  16.777 -0.4949 -0.4263  0.4590
    9DOPE   O21 1053   6.686   4.285  16.588 -0.3067 -0.3393  0.2437
    9DOPE   C21 1054   6.812   4.258  16.560 -0.0794  0.2260  0.0191
    9DOPE   O22 1055   6.888   4.176  16.618  0.1268  0.0084 -0.0640
    9DOPE   C22 1056   6.858   4.340  16.437  0.1836 -0.5426 -0.2097
    9DOPE   H2R 1057   6.851   4.448  16.463 -0.0447 -1.0497  2.0325
    9DOPE   H2S 1058   6.796   4.310  16.350 -0.1496 -2.1545  0.5594
    9DOPE    C3 1059   6.598   4.059  16.651 -0.6475 -0.3110 -0.0290
    9DOPE    HX 1060   6.565   4.011  16.746 -0.3463 -0.3524  0.0554
    9DOPE    HY 1061   6.691   4.006  16.620 -0.7332  0.0038 -0.8614
    9DOPE   O31 1062   6.494   4.044  16.554  0.3587  0.1727  0.2980
    9DOPE   C31 1063   6.527   4.052  16.434  0.1941  0.1560  0.1099
    9DOPE   O32 1064   6.638   4.077  16.391  0.4446  0.4329  0.2781
    9DOPE   C32 1065   6.395   4.051  16.349 -1.2642  0.1783 -0.2660
    9DOPE   H2X 1066   6.417   3.999  16.253 -1.5741  0.3715 -0.4435
    9DOPE   H2Y 1067   6.322   3.988  16.404 -0.5860  0.2480  0.7538
    9DOPE   C23 1068   7.011   4.322  16.397 -0.1879 -0.0843  0.0481
    9DOPE   H3R 1069   7.071   4.295  16.486  2.2566  0.3751 -1.3622
    9DOPE   H3S 1070   7.064   4.417  16.374  0.3186 -0.4773 -0.4495
    9DOPE   C24 1071   7.033   4.214  16.290  0.6153  0.3190 -0.1758
    9DOPE   H4R 1072   7.015   4.259  16.191 -2.1881 -0.9932 -0.3702
    9DOPE   H4S 1073   6.953   4.139  16.309  2.0072 -1.4340 -0.9204
    9DOPE   C25 1074   7.179   4.163  16.289  0.2570  0.2004 -0.2896
    9DOPE   H5R 1075   7.202   4.121  16.389  0.5708  1.4319  0.1752
    9DOPE   H5S 1076   7.228   4.260  16.268 -0.4279  0.6736  0.2325
    9DOPE   C26 1077   7.203   4.046  16.193  0.2384  0.0849 -0.0636
    9DOPE   H6R 1078   7.145   3.959  16.231  2.4218 -1.0883  0.7710
    9DOPE   H6S 1079   7.305   4.005  16.201 -0.9101 -2.8600  0.7434
    9DOPE   C27 1080   7.160   4.064  16.041  0.0456 -0.6613 -0.3495
    9DOPE   H7R 1081   7.210   4.159  16.011 -1.8261  0.3541 -0.3944
    9DOPE   H7S 1082   7.054   4.095  16.047  0.0095 -0.5375 -1.4137
    9DOPE   C28 1083   7.168   3.943  15.948 -0.6301 -0.7023  0.8244
    9DOPE   H8R 1084   7.123   3.962  15.848  0.6387 -1.6583  0.0372
    9DOPE   H8S 1085   7.100   3.868  15.994 -0.4957 -0.5918  1.2125
    9DOPE   C29 1086   7.304   3.873  15.937  0.3608 -0.1925 -0.1126
    9DOPE   H9R 1087   7.345   3.842  16.034 -3.1690  2.2606  2.4114
    9DOPE  C210 1088   7.370   3.848  15.821 -0.2438  0.0610  0.0663
    9DOPE  H10R 1089   7.470   3.803  15.830 -0.5325 -1.1966 -2.3261
    9DOPE  C211 1090   7.319   3.887  15.678 -0.3858 -0.9626  0.2141
    9DOPE  H11R 1091   7.223   3.943  15.679  0.5758  0.8144 -1.2382
    9DOPE  H11S 1092   7.302   3.797  15.616 -1.1723  1.0335 -2.7013
    9DOPE  C212 1093   7.416   3.980  15.603 -0.7301 -0.0535 -1.2854
    9DOPE  H12R 1094   7.498   3.912  15.570 -1.0765 -1.3528  0.3922
    9DOPE  H12S 1095   7.467   4.065  15.654  2.5626 -1.8256 -1.2950
    9DOPE  C213 1096   7.343   4.067  15.497  0.4480  0.1313 -0.0319
    9DOPE  H13R 1097   7.314   4.168  15.531 -2.1248 -0.5511 -0.0249
    9DOPE  H13S 1098   7.244   4.021  15.476  1.1310 -1.0463 -0.8244
    9DOPE  C214 1099   7.432   4.085  15.373 -0.3452  0.1550 -0.1073
    9DOPE  H14R 1100   7.443   3.981  15.334  3.4631  0.9223 -1.4270
    9DOPE  H14S 1101   7.535   4.108  15.408 -0.3810  0.9590 -0.5227
    9DOPE  C215 1102   7.369   4.164  15.264 -0.2938  0.0536  0.0894
    9DOPE  H15R 1103   7.310   4.249  15.305 -0.3342 -0.1549  0.4614
    9DOPE  H15S 1104   7.289   4.109  15.210 -1.6133  1.6951  0.2965
    9DOPE  C216 1105   7.472   4.215  15.152 -0.5374  0.1421  0.8678
    9DOPE  H16R 1106   7.550   4.277  15.200 -0.2296  0.6343 -0.2362
    9DOPE  H16S 1107   7.425   4.281  15.076 -2.8014 -2.0837  0.1799
    9DOPE  C217 1108   7.529   4.100  15.067  0.2306  0.2485 -0.5650
    9DOPE  H17R 1109   7.578   4.036  15.144 -0.9549  0.5204  0.4343
    9DOPE  H17S 1110   7.604   4.147  15.000  0.1839 -0.9012 -1.4517
    9DOPE  C218 1111   7.432   4.010  14.990  0.1953 -0.9577 -0.4996
    9DOPE  H18R 1112   7.480   3.935  14.924 -1.8123 -0.3866 -2.7675
    9DOPE  H18S 1113   7.368   4.074  14.926  0.5427 -0.8811 -0.7717
    9DOPE  H18T 1114   7.360   3.959  15.058 -1.3011  1.0985 -0.4386
    9DOPE   C33 1115   6.329   4.180  16.300  0.1847 -0.3803 -0.3368
    9DOPE   H3X 1116   6.399   4.259  16.262 -2.5378  1.8873 -0.9832
    9DOPE   H3Y 1117   6.267   4.229  16.377 -0.4872 -1.8275  0.0644
    9DOPE   C34 1118   6.244   4.175  16.167  0.4642 -0.3899 -0.1287
    9DOPE   H4X 1119   6.320   4.165  16.087 -0.5336 -0.0470 -1.1418
    9DOPE   H4Y 1120   6.186   4.081  16.162 -2.0443  1.0710 -0.0273
    9DOPE   C35 1121   6.172   4.308  16.135  0.1554 -0.3688  0.3419
    9DOPE   H5X 1122   6.251   4.385  16.150  2.4366 -2.4994 -0.0144
    9DOPE   H5Y 1123   6.096   4.328  16.213 -1.1938  0.0041 -1.0122
    9DOPE   C36 1124   6.109   4.311  15.996  0.4018  0.5530 -0.1257
    9DOPE   H6X 1125   6.056   4.403  15.961 -2.6422 -1.6812 -1.8395
    9DOPE   H6Y 1126   6.028   4.235  16.000 -0.6318  1.6393  3.2915
    9DOPE   C37 1127   6.203   4.279  15.878  1.6422  0.0877 -0.3507
    9DOPE   H7X 1128   6.287   4.346  15.907 -0.2634  2.2109  0.5854
    9DOPE   H7Y 1129   6.236   4.173  15.876  0.6058 -0.3014  1.2955
    9DOPE   C38 1130   6.151   4.314  15.736 -0.0217 -0.3297 -0.2906
    9DOPE   H8X 1131   6.043   4.293  15.745  0.3141 -1.4969  1.5075
    9DOPE   H8Y 1132   6.195   4.239  15.667 -0.6417 -0.1535 -0.8904
    9DOPE   C39 1133   6.190   4.448  15.689 -0.0378  0.0177  0.7930
    9DOPE   H9X 1134   6.284   4.494  15.725  0.5883 -0.3910 -0.2779
    9DOPE  C310 1135   6.116   4.516  15.609 -1.2918 -0.4300  0.7331
    9DOPE  H10X 1136   6.162   4.609  15.573 -0.5614 -0.7909  0.7125
    9DOPE  C311 1137   5.994   4.480  15.535 -0.1063 -0.0432  0.6381
    9DOPE  H11X 1138   5.916   4.452  15.609 -0.4992  2.2581  1.1937
    9DOPE  H11Y 1139   5.962   4.573  15.484  2.0175 -0.5682 -1.8565
    9DOPE  C312 1140   6.027   4.378  15.433 -0.5641  0.6398  1.1542
    9DOPE  H12X 1141   5.931   4.349  15.385 -0.4861  2.2295 -0.0391
    9DOPE  H12Y 1142   6.083   4.291  15.474  1.8034  2.2611  1.5929
    9DOPE  C313 1143   6.114   4.435  15.318 -1.1703  0.0346 -0.5211
    9DOPE  H13X 1144   6.076   4.426  15.214  0.5812 -1.4547 -1.0665
    9DOPE  H13Y 1145   6.098   4.544  15.337 -0.2363  0.2468 -0.8978
    9DOPE  C314 1146   6.269   4.419  15.327 -0.6156  0.0160 -0.4411
    9DOPE  H14X 1147   6.300   4.315  15.301  2.9287  0.9567 -0.5018
    9DOPE  H14Y 1148   6.308   4.438  15.429  3.2768  0.1730 -1.7912
    9DOPE  C315 1149   6.354   4.514  15.236 -0.1476 -0.3236  0.1883
    9DOPE  H15X 1150   6.338   4.623  15.248  1.8188  0.3174 -2.1488
    9DOPE  H15Y 1151   6.314   4.491  15.135 -3.5584  0.0731  1.3391
    9DOPE  C316 1152   6.510   4.489  15.247 -0.1833 -0.3034  0.3331
    9DOPE  H16X 1153   6.543   4.385  15.228  1.3369  0.0594  0.8308
    9DOPE  H16Y 1154   6.536   4.511  15.353  1.3197 -0.3311  0.0001
    9DOPE  C317 1155   6.588   4.561  15.143 -0.8269  0.3070  0.1051
    9DOPE  H17X 1156   6.695   4.532  15.150 -0.6506 -0.9035 -4.5520
    9DOPE  H17Y 1157   6.561   4.533  15.039  3.3285 -0.7428 -0.9095
    9DOPE  C318 1158   6.581   4.717  15.160 -0.3899 -0.2536 -0.6316
    9DOPE  H18X 1159   6.663   4.776  15.115 -0.3479 -1.3378 -2.0509
    9DOPE  H18Y 1160   6.481   4.757  15.131 -1.8946 -1.2746  2.6238
    9DOPE  H18Z 1161   6.591   4.740  15.268  0.1753  2.1277 -1.1441
   10DOPE     N 1162   1.460   5.152  16.926 -0.1893  0.5802 -0.0449
   10DOPE   HN1 1163   1.528   5.147  17.005  0.5239  0.6665 -0.6554
   10DOPE   HN2 1164   1.368   5.157  16.974 -0.9789 -1.1528 -1.2626
   10DOPE   HN3 1165   1.459   5.059  16.880  0.2710 -0.1650  1.3899
   10DOPE   C12 1166   1.500   5.258  16.827  1.1294 -0.1148 -0.4761
   10DOPE  H12A 1167   1.582   5.215  16.766  1.4516 -0.2245  0.0314
   10DOPE  H12B 1168   1.540   5.348  16.877 -0.4258  0.2762  0.1138
   10DOPE   C11 1169   1.376   5.281  16.739 -0.1731  0.1333 -0.0242
   10DOPE  H11A 1170   1.358   5.200  16.665 -2.3491 -0.2440  0.8331
   10DOPE  H11B 1171   1.408   5.374  16.687 -0.3018  0.1857 -0.0115
   10DOPE     P 1172   1.180   5.421  16.853  0.3774  0.0270 -0.0326
   10DOPE   O13 1173   1.281   5.531  16.863 -0.4652 -0.2612 -0.3001
   10DOPE   O14 1174   1.110   5.379  16.978 -0.1035  0.2894  1.1396
   10DOPE   O11 1175   1.088   5.470  16.728  0.1382 -0.0767 -0.6942
   10DOPE   O12 1176   1.251   5.289  16.798  0.2154 -0.0941  0.2235
   10DOPE    C1 1177   1.049   5.379  16.619 -0.4088  0.7246  0.2295
   10DOPE    HA 1178   0.970   5.314  16.661  0.3383  0.6680  1.6113
   10DOPE    HB 1179   1.133   5.309  16.598 -1.5996 -0.8010  0.3740
   10DOPE    C2 1180   1.008   5.447  16.492  0.3810 -0.1930 -0.5371
   10DOPE    HS 1181   0.964   5.377  16.418 -1.5636  0.2354  0.1454
   10DOPE   O21 1182   1.123   5.504  16.426  0.0904  0.0089  0.0727
   10DOPE   C21 1183   1.208   5.424  16.374 -0.9784 -0.1062  0.2688
   10DOPE   O22 1184   1.220   5.302  16.384  0.2985 -0.1495 -0.9202
   10DOPE   C22 1185   1.311   5.506  16.292  0.1673  0.1941 -1.1583
   10DOPE   H2R 1186   1.396   5.437  16.273 -0.4256 -0.8431 -0.1396
   10DOPE   H2S 1187   1.339   5.590  16.360  0.1891 -0.6336 -0.1233
   10DOPE    C3 1188   0.889   5.549  16.510  0.6839 -0.5572 -0.4783
   10DOPE    HX 1189   0.915   5.642  16.565 -3.9310  1.3376 -1.1149
   10DOPE    HY 1190   0.809   5.517  16.580  0.5073 -0.7839 -0.7798
   10DOPE   O31 1191   0.827   5.579  16.379 -0.5573 -0.5457  0.4353
   10DOPE   C31 1192   0.849   5.689  16.313  0.6355 -0.4513 -0.0593
   10DOPE   O32 1193   0.920   5.779  16.355  0.3505 -0.4089  0.2561
   10DOPE   C32 1194   0.781   5.682  16.182  0.2060 -0.0505 -0.0298
   10DOPE   H2X 1195   0.826   5.596  16.129 -0.4487 -1.9621  2.3755
   10DOPE   H2Y 1196   0.672   5.661  16.191 -0.1072 -1.7274 -4.7988
   10DOPE   C23 1197   1.252   5.569  16.169  0.5210  0.7091  0.5423
   10DOPE   H3R 1198   1.334   5.625  16.120  1.3199 -0.8282  0.0540
   10DOPE   H3S 1199   1.174   5.639  16.207 -0.9272 -0.9081  0.6713
   10DOPE   C24 1200   1.188   5.465  16.069  0.4960 -0.3534 -0.1714
   10DOPE   H4R 1201   1.164   5.516  15.973  2.0195 -0.4368 -0.6224
   10DOPE   H4S 1202   1.101   5.417  16.119  1.9984 -1.9056  1.0920
   10DOPE   C25 1203   1.285   5.349  16.041  0.0284 -0.1896 -0.3795
   10DOPE   H5R 1204   1.293   5.274  16.122  1.1825 -1.6039 -1.7339
   10DOPE   H5S 1205   1.388   5.386  16.023  0.9452 -2.4332 -0.0022
   10DOPE   C26 1206   1.236   5.272  15.912  0.0403  0.5127  0.0266
   10DOPE   H6R 1207   1.196   5.356  15.851 -2.5800  0.0792  1.0324
   10DOPE   H6S 1208   1.150   5.213  15.951  1.3526 -1.2460  0.4060
   10DOPE   C27 1209   1.339   5.185  15.837 -0.1874  0.5718 -0.6536
   10DOPE   H7R 1210   1.385   5.117  15.911  0.6841  0.8760 -0.9083
   10DOPE   H7S 1211   1.422   5.251  15.804 -0.4566  0.0038 -2.5955
   10DOPE   C28 1212   1.285   5.115  15.719 -0.3892 -0.4975 -0.0564
   10DOPE   H8R 1213   1.218   5.192  15.675  0.0211 -0.2301 -0.2299
   10DOPE   H8S 1214   1.220   5.029  15.746 -2.2495  0.5449 -1.0157
   10DOPE   C29 1215   1.396   5.070  15.619 -0.3611 -0.4425  1.1232
   10DOPE   H9R 1216   1.437   4.970  15.638  0.0192 -0.7006 -0.8735
   10DOPE  C210 1217   1.424   5.113  15.495  0.0551 -0.0821  0.4382
   10DOPE  H10R 1218   1.487   5.051  15.430 -1.0459  1.1710 -1.9697
   10DOPE  C211 1219   1.358   5.236  15.427  0.4829 -1.0588 -0.2770
   10DOPE  H11R 1220   1.273   5.271  15.490  1.8071  0.0448  0.9842
   10DOPE  H11S 1221   1.315   5.211  15.328 -1.3753 -0.1398  0.2455
   10DOPE  C212 1222   1.454   5.353  15.407  0.3558  0.0992 -0.5887
   10DOPE  H12R 1223   1.509   5.372  15.501  2.0887  3.1423 -2.0679
   10DOPE  H12S 1224   1.392   5.443  15.385  0.6464  0.8964  1.6502
   10DOPE  C213 1225   1.538   5.345  15.274 -0.1458 -0.2435  0.0750
   10DOPE  H13R 1226   1.599   5.252  15.276 -0.0797 -0.2071 -0.1972
   10DOPE  H13S 1227   1.620   5.419  15.274 -0.9940  0.7666 -2.2166
   10DOPE  C214 1228   1.446   5.343  15.153 -0.1364  0.5035  0.4940
   10DOPE  H14R 1229   1.370   5.424  15.162 -0.4486  0.3341 -0.4402
   10DOPE  H14S 1230   1.387   5.250  15.145  0.1678  0.4559 -2.0893
   10DOPE  C215 1231   1.521   5.364  15.018  0.2270 -0.0293  0.1971
   10DOPE  H15R 1232   1.591   5.279  15.014 -2.1014 -2.1518  1.7725
   10DOPE  H15S 1233   1.576   5.461  15.024  0.4140 -0.1652  0.6786
   10DOPE  C216 1234   1.430   5.364  14.892  0.5918  0.6777  0.2015
   10DOPE  H16R 1235   1.364   5.454  14.895  1.2182  1.2178 -1.3075
   10DOPE  H16S 1236   1.374   5.268  14.892  1.2877  0.2671  0.0520
   10DOPE  C217 1237   1.516   5.379  14.766  0.2884  0.8924 -0.5378
   10DOPE  H17R 1238   1.459   5.363  14.672  1.5153  1.1883 -1.3462
   10DOPE  H17S 1239   1.598   5.305  14.776 -1.4669 -1.1719 -0.5500
   10DOPE  C218 1240   1.567   5.516  14.734 -0.1289  0.1084  0.5549
   10DOPE  H18R 1241   1.609   5.572  14.820  0.6399 -0.3885  0.5121
   10DOPE  H18S 1242   1.482   5.571  14.688 -1.9207 -0.7179  2.7297
   10DOPE  H18T 1243   1.643   5.492  14.656 -0.9109 -1.8758  0.3606
   10DOPE   C33 1244   0.791   5.811  16.094  0.4091  0.0830  0.3011
   10DOPE   H3X 1245   0.899   5.821  16.069  0.8263 -3.3192  0.2441
   10DOPE   H3Y 1246   0.751   5.900  16.146 -1.1240 -0.5653  0.2952
   10DOPE   C34 1247   0.717   5.797  15.959 -0.5681 -0.5380  0.3390
   10DOPE   H4X 1248   0.732   5.691  15.927 -1.4786 -1.3924  2.5467
   10DOPE   H4Y 1249   0.611   5.812  15.986  0.3430  1.4275  3.2438
   10DOPE   C35 1250   0.765   5.889  15.851  0.2071 -0.4657  0.5277
   10DOPE   H5X 1251   0.873   5.868  15.831 -0.5760 -2.1569 -2.4980
   10DOPE   H5Y 1252   0.737   5.990  15.887  1.3104  0.9465 -2.2515
   10DOPE   C36 1253   0.696   5.861  15.711  0.3698  0.2218 -0.4132
   10DOPE   H6X 1254   0.585   5.870  15.717  0.5475  1.6337  2.4064
   10DOPE   H6Y 1255   0.724   5.755  15.694 -0.2423 -0.1126  0.6016
   10DOPE   C37 1256   0.738   5.949  15.595  0.2229  0.3044 -0.1609
   10DOPE   H7X 1257   0.702   6.050  15.623  2.7593  1.1295  0.3840
   10DOPE   H7Y 1258   0.848   5.968  15.586  0.1549  0.2057 -1.4643
   10DOPE   C38 1259   0.674   5.902  15.464 -0.3970 -0.1252 -0.1686
   10DOPE   H8X 1260   0.570   5.942  15.471  0.4053  1.9205  1.0184
   10DOPE   H8Y 1261   0.668   5.792  15.472  0.7036 -0.1316  0.9176
   10DOPE   C39 1262   0.746   5.948  15.336  0.2963  0.2048  0.1205
   10DOPE   H9X 1263   0.759   6.056  15.323 -0.6263  0.3771  0.5144
   10DOPE  C310 1264   0.791   5.868  15.240  0.7305  0.3901  0.3011
   10DOPE  H10X 1265   0.827   5.921  15.150 -1.6724 -0.0009 -0.9733
   10DOPE  C311 1266   0.773   5.725  15.212 -0.3156 -0.3079  0.0977
   10DOPE  H11X 1267   0.873   5.680  15.196 -0.1448  0.5624 -1.5040
   10DOPE  H11Y 1268   0.727   5.671  15.297 -1.1359  1.2086  0.6513
   10DOPE  C312 1269   0.671   5.688  15.097 -0.1460 -0.2644 -0.0181
   10DOPE  H12X 1270   0.690   5.747  15.005 -0.7301  0.4127  0.2775
   10DOPE  H12Y 1271   0.575   5.724  15.141  1.1937  3.0843  0.4087
   10DOPE  C313 1272   0.683   5.534  15.072  0.1587 -0.3160 -0.2452
   10DOPE  H13X 1273   0.618   5.520  14.984 -2.1724  1.5959  1.0481
   10DOPE  H13Y 1274   0.785   5.516  15.033  0.8987 -1.0812  1.8679
   10DOPE  C314 1275   0.648   5.443  15.184  0.0920 -0.4306 -0.1897
   10DOPE  H14X 1276   0.563   5.487  15.239 -0.4853 -0.5638 -0.9632
   10DOPE  H14Y 1277   0.731   5.440  15.258 -1.6971 -1.1423  1.8571
   10DOPE  C315 1278   0.605   5.306  15.137  0.1933 -0.1440  0.3532
   10DOPE  H15X 1279   0.691   5.242  15.109 -2.0838 -2.9942 -0.6436
   10DOPE  H15Y 1280   0.540   5.309  15.048 -0.3327  0.2280  0.7434
   10DOPE  C316 1281   0.527   5.228  15.249 -0.3002  0.5548  0.4214
   10DOPE  H16X 1282   0.425   5.270  15.263 -1.1314 -1.1377 -0.2585
   10DOPE  H16Y 1283   0.582   5.246  15.343  0.0145 -1.2964  0.6363
   10DOPE  C317 1284   0.520   5.080  15.231  0.6243  0.6430  0.5773
   10DOPE  H17X 1285   0.467   5.067  15.135 -2.0733  0.0394  2.0383
   10DOPE  H17Y 1286   0.610   5.016  15.239 -0.8716 -1.7296 -0.4864
   10DOPE  C318 1287   0.427   5.016  15.338 -0.0551  0.9135 -0.1730
   10DOPE  H18X 1288   0.331   5.067  15.358 -1.0744 -0.7249 -0.7593
   10DOPE  H18Y 1289   0.419   4.909  15.309  0.8745  0.8607 -0.2761
   10DOPE  H18Z 1290   0.480   5.016  15.436 -0.4017  1.9960  0.0272
   11DOPE     N 1291   0.663   3.768  16.560 -0.0254  0.5700  0.3370
   11DOPE   HN1 1292   0.706   3.860  16.581 -1.6621  1.0081  2.1547
   11DOPE   HN2 1293   0.732   3.694  16.583 -2.1862 -2.1471 -1.2895
   11DOPE   HN3 1294   0.652   3.758  16.457 -0.7783 -1.9135  0.5935
   11DOPE   C12 1295   0.536   3.767  16.646  0.0154 -0.4232 -0.3041
   11DOPE  H12A 1296   0.461   3.828  16.590  0.8915 -0.8239 -1.9773
   11DOPE  H12B 1297   0.565   3.821  16.738  1.8684 -0.7158 -0.6785
   11DOPE   C11 1298   0.490   3.623  16.679 -0.1315  0.2002 -0.1728
   11DOPE  H11A 1299   0.445   3.581  16.586  1.1199 -1.3285 -0.1295
   11DOPE  H11B 1300   0.412   3.637  16.757 -1.3518 -2.2240 -0.8180
   11DOPE     P 1301   0.571   3.387  16.750 -0.1103 -0.0030  0.2843
   11DOPE   O13 1302   0.545   3.374  16.895  0.4014  0.1537  0.1304
   11DOPE   O14 1303   0.680   3.301  16.705  0.1918  0.1035 -0.4347
   11DOPE   O11 1304   0.439   3.350  16.675 -0.7129 -0.1698 -0.0703
   11DOPE   O12 1305   0.601   3.545  16.718 -1.3118 -0.7418  0.3662
   11DOPE    C1 1306   0.422   3.220  16.618  0.9951  0.5475  0.2819
   11DOPE    HA 1307   0.337   3.167  16.667  1.5345  0.8287  1.5470
   11DOPE    HB 1308   0.508   3.148  16.618  1.2469  0.7398 -2.7222
   11DOPE    C2 1309   0.366   3.238  16.475  0.0437 -0.4977  0.4484
   11DOPE    HS 1310   0.320   3.143  16.440 -2.3103  0.9105 -0.5467
   11DOPE   O21 1311   0.462   3.285  16.382 -1.0696  0.6517  0.3037
   11DOPE   C21 1312   0.527   3.185  16.318  0.0530  0.3708 -0.0867
   11DOPE   O22 1313   0.527   3.070  16.359 -0.0119  0.1153 -0.5463
   11DOPE   C22 1314   0.575   3.237  16.182  0.8829  0.2418 -0.7935
   11DOPE   H2R 1315   0.632   3.328  16.210  1.6732 -1.0272  2.1607
   11DOPE   H2S 1316   0.486   3.269  16.124 -0.5634  0.7721  1.5660
   11DOPE    C3 1317   0.251   3.339  16.472  0.1292 -0.2210  0.5561
   11DOPE    HX 1318   0.290   3.443  16.473  0.5231 -0.3358 -0.9420
   11DOPE    HY 1319   0.164   3.332  16.540 -0.7601 -1.8803 -0.6749
   11DOPE   O31 1320   0.179   3.306  16.344 -0.0259 -0.4043 -0.3143
   11DOPE   C31 1321   0.192   3.370  16.236  0.0238  0.8401  0.5231
   11DOPE   O32 1322   0.266   3.459  16.205 -0.2013  0.2085  0.2689
   11DOPE   C32 1323   0.098   3.310  16.126  0.1504 -0.1758  0.0241
   11DOPE   H2X 1324  -0.000   3.286  16.172  0.2006  1.0769  0.8348
   11DOPE   H2Y 1325   0.088   3.383  16.044 -0.0535 -0.3743 -0.1284
   11DOPE   C23 1326   0.679   3.148  16.104  0.2216 -0.3465 -0.6469
   11DOPE   H3R 1327   0.633   3.054  16.069 -0.4342 -0.4916  0.5462
   11DOPE   H3S 1328   0.755   3.112  16.176  0.5997 -0.4639 -1.1028
   11DOPE   C24 1329   0.758   3.230  15.998  0.0441  0.2589  0.2649
   11DOPE   H4R 1330   0.843   3.286  16.044  0.2342  1.5959 -1.5837
   11DOPE   H4S 1331   0.701   3.301  15.933 -1.8990 -2.9280 -1.7882
   11DOPE   C25 1332   0.830   3.131  15.898  0.4399  0.0179  0.4702
   11DOPE   H5R 1333   0.775   3.035  15.893  1.0207 -0.4037  1.6873
   11DOPE   H5S 1334   0.939   3.118  15.919  0.4608  0.9938  1.0046
   11DOPE   C26 1335   0.820   3.183  15.753  0.2700 -0.1799 -0.7031
   11DOPE   H6R 1336   0.880   3.276  15.756  1.6029 -1.0324  0.8772
   11DOPE   H6S 1337   0.714   3.202  15.724  1.0922  1.5463 -2.8253
   11DOPE   C27 1338   0.871   3.086  15.642  0.6919 -1.1855 -0.2761
   11DOPE   H7R 1339   0.812   2.992  15.650 -0.2457 -0.5881  0.0406
   11DOPE   H7S 1340   0.979   3.068  15.658  0.7004  1.0652  3.4591
   11DOPE   C28 1341   0.848   3.152  15.506 -0.3292  0.6249  0.7535
   11DOPE   H8R 1342   0.898   3.251  15.501 -1.6816  1.2891 -1.4755
   11DOPE   H8S 1343   0.738   3.163  15.495 -0.0478  1.7746 -1.8110
   11DOPE   C29 1344   0.900   3.059  15.398  0.1163  0.1762  0.0952
   11DOPE   H9R 1345   1.008   3.046  15.414 -0.3805 -1.9257  2.4776
   11DOPE  C210 1346   0.833   2.987  15.310 -0.2264  0.1283 -0.2189
   11DOPE  H10R 1347   0.896   2.934  15.237 -1.3379 -1.1221 -0.3056
   11DOPE  C211 1348   0.689   2.971  15.293  0.5085 -0.6183 -0.2519
   11DOPE  H11R 1349   0.651   3.018  15.199  0.9367 -1.9134 -1.1026
   11DOPE  H11S 1350   0.649   3.033  15.376  1.0798 -1.4143  0.6410
   11DOPE  C212 1351   0.640   2.827  15.308 -0.8324  0.4134 -0.1307
   11DOPE  H12R 1352   0.678   2.787  15.405  3.1630  3.0514 -0.3442
   11DOPE  H12S 1353   0.684   2.758  15.233 -0.5182 -0.0386  0.4572
   11DOPE  C213 1354   0.491   2.819  15.279 -0.4772 -0.3926 -0.4894
   11DOPE  H13R 1355   0.476   2.842  15.172  1.3727  2.4840 -0.2442
   11DOPE  H13S 1356   0.438   2.895  15.341  0.5660 -0.4599  0.5273
   11DOPE  C214 1357   0.445   2.679  15.322 -0.3528  0.1005 -0.3135
   11DOPE  H14R 1358   0.494   2.648  15.416  0.2821 -1.1615 -1.0308
   11DOPE  H14S 1359   0.496   2.601  15.260  1.3961 -0.2883  1.5279
   11DOPE  C215 1360   0.292   2.663  15.332 -0.0575 -0.1906 -0.2182
   11DOPE  H15R 1361   0.258   2.709  15.237  1.0340  1.9230  0.3495
   11DOPE  H15S 1362   0.267   2.736  15.412  2.2447  1.5400 -0.9384
   11DOPE  C216 1363   0.237   2.517  15.358 -0.2148 -0.3332  0.4393
   11DOPE  H16R 1364   0.253   2.492  15.465 -0.9473 -0.4426  0.5303
   11DOPE  H16S 1365   0.299   2.448  15.298  1.1056  1.5823 -0.5221
   11DOPE  C217 1366   0.084   2.514  15.318  0.4170 -0.3710  0.4092
   11DOPE  H17R 1367   0.074   2.546  15.212 -1.8638 -1.3158  0.2888
   11DOPE  H17S 1368   0.024   2.593  15.369 -0.7516 -0.5843 -0.5821
   11DOPE  C218 1369   0.019   2.380  15.337 -0.8505 -0.1743 -0.1113
   11DOPE  H18R 1370   0.017   2.338  15.440  0.2213 -2.0397 -0.7885
   11DOPE  H18S 1371   0.066   2.304  15.270 -0.5762 -0.5828  0.5338
   11DOPE  H18T 1372  -0.083   2.382  15.293 -1.4142 -1.6846  1.0244
   11DOPE   C33 1373   0.166   3.184  16.074 -0.0844 -0.4429  0.7095
   11DOPE   H3X 1374   0.272   3.187  16.039  0.4081  0.2342  2.1966
   11DOPE   H3Y 1375   0.099   3.156  15.990 -2.8355  1.4102  2.1640
   11DOPE   C34 1376   0.143   3.058  16.153 -0.3928  0.3129 -0.0719
   11DOPE   H4X 1377   0.175   3.063  16.260 -2.0758 -2.9221  0.7096
   11DOPE   H4Y 1378   0.032   3.052  16.145 -0.3737  0.5178 -0.5285
   11DOPE   C35 1379   0.200   2.927  16.092 -0.3990 -0.2085  0.3993
   11DOPE   H5X 1380   0.311   2.938  16.088 -0.6739  3.1367 -2.2446
   11DOPE   H5Y 1381   0.178   2.922  15.984  2.4695 -0.4405 -0.2560
   11DOPE   C36 1382   0.155   2.802  16.172  0.3521  0.0815  0.1179
   11DOPE   H6X 1383   0.046   2.806  16.191  0.5072 -0.3657  1.1442
   11DOPE   H6Y 1384   0.203   2.816  16.271 -0.4699 -0.1496  0.5557
   11DOPE   C37 1385   0.196   2.677  16.103 -0.6629  0.5946  0.5638
   11DOPE   H7X 1386   0.305   2.667  16.083 -0.8342  0.8030 -0.5559
   11DOPE   H7Y 1387   0.195   2.591  16.173  0.2136 -1.1470 -1.4535
   11DOPE   C38 1388   0.111   2.635  15.981  0.5214  0.5618 -0.4877
   11DOPE   H8X 1389   0.075   2.731  15.938 -1.4789  0.2994  0.4526
   11DOPE   H8Y 1390   0.013   2.590  16.010  0.2160 -0.9744 -3.4833
   11DOPE   C39 1391   0.179   2.548  15.880 -0.1645  0.1072 -0.1857
   11DOPE   H9X 1392   0.187   2.440  15.897 -0.4393 -0.2420 -2.0036
   11DOPE  C310 1393   0.239   2.591  15.769 -0.4455  0.5738 -0.1183
   11DOPE  H10X 1394   0.273   2.513  15.699  0.6883  0.1405  0.9017
   11DOPE  C311 1395   0.250   2.734  15.710  0.5816  1.1439 -0.6832
   11DOPE  H11X 1396   0.201   2.747  15.611  0.1405  1.3097 -0.4447
   11DOPE  H11Y 1397   0.197   2.803  15.778  0.3058  1.3123 -1.0690
   11DOPE  C312 1398   0.402   2.793  15.709 -0.0838  0.6335 -0.1772
   11DOPE  H12X 1399   0.463   2.726  15.644  0.4391 -0.5433  1.4582
   11DOPE  H12Y 1400   0.449   2.788  15.810  0.4105 -0.4476 -0.4396
   11DOPE  C313 1401   0.418   2.940  15.651  0.3097  0.4887 -0.8629
   11DOPE  H13X 1402   0.522   2.960  15.617 -0.0009  1.8318 -1.1005
   11DOPE  H13Y 1403   0.346   2.942  15.566 -0.0264  2.2853 -0.5786
   11DOPE  C314 1404   0.381   3.055  15.750  0.0796 -0.7539 -0.4125
   11DOPE  H14X 1405   0.457   3.064  15.830  1.1401 -0.6026 -1.4136
   11DOPE  H14Y 1406   0.283   3.024  15.792  0.2996 -0.2700  0.4851
   11DOPE  C315 1407   0.377   3.194  15.681  0.3241  0.2939 -0.1499
   11DOPE  H15X 1408   0.278   3.208  15.634 -0.0847  1.1798  0.9438
   11DOPE  H15Y 1409   0.453   3.204  15.600  0.1339 -0.2934 -0.4106
   11DOPE  C316 1410   0.399   3.302  15.792  0.2523 -0.6349  0.2564
   11DOPE  H16X 1411   0.484   3.273  15.857  0.3201 -0.2163  0.3535
   11DOPE  H16Y 1412   0.308   3.307  15.854  0.2655 -1.0751  0.3158
   11DOPE  C317 1413   0.436   3.442  15.735 -0.2016  0.0498 -1.2215
   11DOPE  H17X 1414   0.516   3.417  15.661 -0.7256 -1.4136 -1.3231
   11DOPE  H17Y 1415   0.350   3.488  15.682 -0.2722  0.9573 -0.3421
   11DOPE  C318 1416   0.500   3.535  15.842 -0.0385  0.9683 -0.4144
   11DOPE  H18X 1417   0.581   3.484  15.898  0.2868 -0.1641 -1.8440
   11DOPE  H18Y 1418   0.535   3.628  15.793  2.4029  0.0133 -0.6188
   11DOPE  H18Z 1419   0.422   3.559  15.917 -0.2693 -0.6281 -0.1106
   12DOPE     N 1420   2.703   6.357  17.371  0.2092  0.1980 -0.2734
   12DOPE   HN1 1421   2.759   6.444  17.357  1.0345 -0.1023  0.9316
   12DOPE   HN2 1422   2.631   6.366  17.445 -0.2424 -1.5715 -0.4680
   12DOPE   HN3 1423   2.767   6.283  17.406 -0.3408 -0.3877 -0.5084
   12DOPE   C12 1424   2.654   6.295  17.244 -0.0888  0.3104 -0.4142
   12DOPE  H12A 1425   2.592   6.377  17.203 -0.6138  0.6758  1.0515
   12DOPE  H12B 1426   2.584   6.216  17.280 -0.2752  0.4920 -0.3760
   12DOPE   C11 1427   2.773   6.251  17.149  0.2229  0.6112  0.2173
   12DOPE  H11A 1428   2.716   6.198  17.070  1.3279 -0.1053 -0.1216
   12DOPE  H11B 1429   2.830   6.176  17.208  0.5052  1.4754  1.0681
   12DOPE     P 1430   2.960   6.349  16.991 -0.0855  0.1198  0.3695
   12DOPE   O13 1431   3.000   6.208  16.963  0.2432 -0.4470 -0.2369
   12DOPE   O14 1432   3.067   6.448  17.006 -0.4157 -0.1038  0.2928
   12DOPE   O11 1433   2.858   6.397  16.876  0.0115 -0.0364  0.2712
   12DOPE   O12 1434   2.859   6.353  17.116 -0.0078 -0.6746 -0.4862
   12DOPE    C1 1435   2.808   6.532  16.873  0.1116 -0.1119  0.9808
   12DOPE    HA 1436   2.846   6.590  16.960  1.1038  2.3332 -0.9763
   12DOPE    HB 1437   2.697   6.532  16.877  0.1054  0.4221  0.8700
   12DOPE    C2 1438   2.869   6.609  16.754  0.0018 -0.4639  0.4941
   12DOPE    HS 1439   2.809   6.700  16.731  1.9021  0.4720 -1.0758
   12DOPE   O21 1440   2.866   6.526  16.638  0.0284 -0.2718  0.1381
   12DOPE   C21 1441   2.743   6.519  16.582 -0.2291 -0.3173 -0.0560
   12DOPE   O22 1442   2.647   6.585  16.616 -0.1121  0.4150  0.0826
   12DOPE   C22 1443   2.745   6.440  16.446  0.2641  0.3551  0.4145
   12DOPE   H2R 1444   2.782   6.339  16.474  0.4598  0.4683  0.5692
   12DOPE   H2S 1445   2.819   6.484  16.376  1.9624  0.2389  2.0434
   12DOPE    C3 1446   3.013   6.654  16.781 -0.6500 -0.3558  0.1829
   12DOPE    HX 1447   3.078   6.566  16.799  0.8134  0.4762 -0.8264
   12DOPE    HY 1448   3.019   6.711  16.876 -1.0880  0.3973 -0.2345
   12DOPE   O31 1449   3.073   6.726  16.672 -0.2636  0.0434 -0.2889
   12DOPE   C31 1450   3.028   6.847  16.640  0.0683  0.0247  0.0885
   12DOPE   O32 1451   2.940   6.912  16.695 -0.1745  0.8110  0.5336
   12DOPE   C32 1452   3.103   6.901  16.524 -0.1835 -0.8010  0.7131
   12DOPE   H2X 1453   3.041   6.985  16.485  0.5915 -0.3671  0.3949
   12DOPE   H2Y 1454   3.197   6.955  16.550 -0.2645 -0.3528  0.1113
   12DOPE   C23 1455   2.608   6.431  16.375  0.8499 -0.2690 -0.5666
   12DOPE   H3R 1456   2.581   6.536  16.350  1.3349  0.4151  1.6177
   12DOPE   H3S 1457   2.530   6.386  16.440 -0.4738 -0.1304 -1.9994
   12DOPE   C24 1458   2.618   6.350  16.246 -0.8490 -0.0076 -0.3669
   12DOPE   H4R 1459   2.643   6.243  16.260  3.2396  0.5031 -2.3408
   12DOPE   H4S 1460   2.701   6.388  16.182 -0.6411  1.1137  0.5431
   12DOPE   C25 1461   2.494   6.345  16.162  0.4697 -1.3828  0.4644
   12DOPE   H5R 1462   2.394   6.346  16.211 -1.7022  0.3152 -3.5028
   12DOPE   H5S 1463   2.493   6.260  16.091  0.1171  1.5890 -3.3968
   12DOPE   C26 1464   2.501   6.463  16.064 -0.1591  0.1934  0.4424
   12DOPE   H6R 1465   2.608   6.467  16.034 -0.0243 -2.0485  0.4955
   12DOPE   H6S 1466   2.475   6.561  16.111  1.0469  0.2308  1.0653
   12DOPE   C27 1467   2.435   6.439  15.926 -0.6264 -0.1785 -0.0620
   12DOPE   H7R 1468   2.324   6.438  15.936 -0.6168  0.6391  0.1375
   12DOPE   H7S 1469   2.461   6.342  15.878 -0.8168 -0.1090 -0.3069
   12DOPE   C28 1470   2.463   6.561  15.821 -0.4167 -0.3314  0.2019
   12DOPE   H8R 1471   2.573   6.578  15.823 -0.0005 -2.7637  1.6697
   12DOPE   H8S 1472   2.413   6.646  15.872 -0.0557 -0.4553  0.7740
   12DOPE   C29 1473   2.428   6.527  15.677 -0.4934  0.0872  0.3855
   12DOPE   H9R 1474   2.479   6.445  15.625 -0.3028  1.3231 -1.4869
   12DOPE  C210 1475   2.346   6.607  15.598  0.4944  0.3256  0.0272
   12DOPE  H10R 1476   2.324   6.578  15.494  1.8681 -2.2699  0.3695
   12DOPE  C211 1477   2.285   6.738  15.640  0.1369  0.0980  0.1944
   12DOPE  H11R 1478   2.308   6.774  15.743 -0.9519  0.0807  0.4505
   12DOPE  H11S 1479   2.176   6.722  15.627  0.5091 -3.5355  0.4248
   12DOPE  C212 1480   2.311   6.863  15.556 -0.1522 -0.2497  0.0778
   12DOPE  H12R 1481   2.422   6.873  15.553 -0.1771 -0.1015 -3.1366
   12DOPE  H12S 1482   2.275   6.951  15.615  2.0374 -0.9368  2.6611
   12DOPE  C213 1483   2.242   6.864  15.418  0.2735  0.4095  0.0905
   12DOPE  H13R 1484   2.152   6.798  15.421 -1.2371  2.1972 -2.6553
   12DOPE  H13S 1485   2.304   6.803  15.349 -1.1295  0.3094 -1.1090
   12DOPE  C214 1486   2.223   6.998  15.357  0.5074  0.4486  0.6475
   12DOPE  H14R 1487   2.324   7.043  15.369  1.8351 -1.6372 -1.5990
   12DOPE  H14S 1488   2.156   7.060  15.419 -0.6168 -1.1913  1.1384
   12DOPE  C215 1489   2.161   6.988  15.224 -0.0483  0.1278  0.2205
   12DOPE  H15R 1490   2.073   6.921  15.221 -1.1724  1.5573 -0.0292
   12DOPE  H15S 1491   2.242   6.939  15.164 -0.5948  0.5324 -0.8749
   12DOPE  C216 1492   2.127   7.134  15.167  0.1234  0.3523  0.0279
   12DOPE  H16R 1493   2.164   7.209  15.240  0.2869 -0.9797  1.3683
   12DOPE  H16S 1494   2.017   7.150  15.177  0.2665  0.7154  1.1837
   12DOPE  C217 1495   2.184   7.161  15.033 -0.2535  1.0151 -0.0932
   12DOPE  H17R 1496   2.152   7.084  14.960  0.7630  0.6009 -0.1073
   12DOPE  H17S 1497   2.295   7.160  15.033 -0.2549  0.8248 -0.3483
   12DOPE  C218 1498   2.144   7.302  14.989 -0.5712  0.3128 -0.5421
   12DOPE  H18R 1499   2.176   7.319  14.884  0.7534  1.1798 -0.0204
   12DOPE  H18S 1500   2.204   7.369  15.054  1.7363 -2.4253  0.3731
   12DOPE  H18T 1501   2.034   7.319  14.991 -0.4838  0.8410  0.1000
   12DOPE   C33 1502   3.133   6.807  16.403  0.6321 -0.0880 -0.3763
   12DOPE   H3X 1503   3.047   6.737  16.392 -0.0549  0.8960 -1.6040
   12DOPE   H3Y 1504   3.231   6.757  16.421 -0.7056 -2.7867  0.0004
   12DOPE   C34 1505   3.137   6.885  16.272 -0.2927 -0.1157 -0.4138
   12DOPE   H4X 1506   3.059   6.964  16.272 -1.2583 -1.0130  1.9156
   12DOPE   H4Y 1507   3.226   6.952  16.275 -0.7206  0.4633 -0.6570
   12DOPE   C35 1508   3.151   6.804  16.137  0.4990  0.0548 -0.8497
   12DOPE   H5X 1509   3.062   6.737  16.133 -0.8264  1.2234  3.4812
   12DOPE   H5Y 1510   3.236   6.734  16.127 -1.3516 -2.4604  0.1880
   12DOPE   C36 1511   3.153   6.892  16.017 -0.4325 -0.7179  0.2440
   12DOPE   H6X 1512   3.229   6.968  16.042 -0.4701 -1.2228  2.0284
   12DOPE   H6Y 1513   3.069   6.964  16.017  1.2025  1.3268 -1.4575
   12DOPE   C37 1514   3.170   6.826  15.884  0.4765  0.0577  0.3936
   12DOPE   H7X 1515   3.270   6.778  15.884 -0.0455 -1.0886  1.8256
   12DOPE   H7Y 1516   3.100   6.740  15.878 -0.0830  0.5124  0.3310
   12DOPE   C38 1517   3.143   6.918  15.762  0.7868  0.3257  0.0815
   12DOPE   H8X 1518   3.096   7.010  15.803 -2.2575 -0.0525 -2.1292
   12DOPE   H8Y 1519   3.069   6.875  15.691 -0.0143  0.2393  0.9408
   12DOPE   C39 1520   3.276   6.951  15.696 -0.3706  0.1148 -0.2316
   12DOPE   H9X 1521   3.337   7.036  15.730 -0.9981  0.0757  1.0734
   12DOPE  C310 1522   3.338   6.865  15.611 -0.6728  0.4644 -0.0830
   12DOPE  H10X 1523   3.441   6.884  15.577 -1.2193 -0.3137 -2.3544
   12DOPE  C311 1524   3.284   6.733  15.558  0.2760 -0.0683  0.4748
   12DOPE  H11X 1525   3.361   6.655  15.572  2.1922  1.8959  1.4536
   12DOPE  H11Y 1526   3.197   6.701  15.620  1.6476 -1.0449  1.9906
   12DOPE  C312 1527   3.239   6.745  15.414 -0.0937 -0.9566 -0.4254
   12DOPE  H12X 1528   3.317   6.773  15.340 -2.6049 -2.9556 -4.1856
   12DOPE  H12Y 1529   3.164   6.827  15.414  1.3922  0.4965 -1.9405
   12DOPE  C313 1530   3.168   6.622  15.350 -0.0482  0.0031 -0.0807
   12DOPE  H13X 1531   3.236   6.534  15.355  0.7316  0.6818  2.9555
   12DOPE  H13Y 1532   3.084   6.595  15.417  1.2363 -2.1449  0.7706
   12DOPE  C314 1533   3.119   6.632  15.205 -0.0243  0.0384 -0.2566
   12DOPE  H14X 1534   3.201   6.668  15.140 -2.0801 -0.2452 -3.1761
   12DOPE  H14Y 1535   3.037   6.707  15.212  1.4082  1.5423  1.4908
   12DOPE  C315 1536   3.055   6.503  15.164 -0.4393 -0.2461  0.2212
   12DOPE  H15X 1537   2.962   6.507  15.223 -2.3352 -0.8565 -2.5248
   12DOPE  H15Y 1538   3.116   6.416  15.196 -0.8835 -1.0207 -0.9452
   12DOPE  C316 1539   3.022   6.509  15.014 -0.2018  0.2648 -0.6963
   12DOPE  H16X 1540   3.099   6.445  14.965  0.4867  0.8647 -0.4077
   12DOPE  H16Y 1541   3.029   6.611  14.972  2.6769  0.5445  0.2886
   12DOPE  C317 1542   2.890   6.433  14.992 -0.7427  0.3879  0.1680
   12DOPE  H17X 1543   2.904   6.326  15.015 -0.5753  0.5493  0.8191
   12DOPE  H17Y 1544   2.806   6.476  15.050 -0.7948  0.7004 -0.1309
   12DOPE  C318 1545   2.842   6.433  14.844  0.8236 -0.1883  0.0314
   12DOPE  H18X 1546   2.929   6.397  14.786  0.5918  0.1652 -0.5425
   12DOPE  H18Y 1547   2.759   6.363  14.819 -0.0861  1.3043 -1.3262
   12DOPE  H18Z 1548   2.807   6.533  14.810 -2.8001 -1.3535 -0.1551
   13DOPE     N 1549   1.579   0.883  17.434  0.3312 -0.2932 -0.3911
   13DOPE   HN1 1550   1.593   0.948  17.354 -2.6077 -1.1477 -1.7234
   13DOPE   HN2 1551   1.533   0.933  17.513  1.1204 -0.2574  0.0633
   13DOPE   HN3 1552   1.676   0.854  17.460  0.4059  1.7962  2.0270
   13DOPE   C12 1553   1.507   0.760  17.401  0.2123  0.0371 -0.7202
   13DOPE  H12A 1554   1.406   0.767  17.448 -0.4070 -0.9472 -1.8359
   13DOPE  H12B 1555   1.564   0.680  17.453  1.7377  1.1306 -0.6667
   13DOPE   C11 1556   1.511   0.731  17.243  0.2557 -0.4436 -0.2351
   13DOPE  H11A 1557   1.438   0.807  17.207  1.2067  0.6482  0.0984
   13DOPE  H11B 1558   1.475   0.627  17.228  0.4440 -0.7061  1.0220
   13DOPE     P 1559   1.655   0.746  17.035  0.2478  0.1147  0.3302
   13DOPE   O13 1560   1.620   0.605  16.990 -0.4970 -0.8776 -0.0029
   13DOPE   O14 1561   1.789   0.797  17.000 -0.4145  0.8061 -0.6393
   13DOPE   O11 1562   1.543   0.848  16.992  0.0363 -0.2762 -0.4534
   13DOPE   O12 1563   1.639   0.743  17.190  0.1262  0.1219 -0.3355
   13DOPE    C1 1564   1.570   0.982  16.957  0.0903  0.0922  0.4753
   13DOPE    HA 1565   1.676   1.016  16.965 -0.7197  3.2597 -0.5269
   13DOPE    HB 1566   1.512   1.047  17.027 -0.2053  0.6016 -0.2354
   13DOPE    C2 1567   1.517   1.008  16.812  0.1052 -0.3726  0.1261
   13DOPE    HS 1568   1.537   1.115  16.793 -1.1652 -0.4161 -1.8127
   13DOPE   O21 1569   1.373   0.980  16.801 -0.1055  0.1464 -0.4343
   13DOPE   C21 1570   1.290   1.075  16.779  0.9118  0.2298  0.4358
   13DOPE   O22 1571   1.325   1.194  16.770  0.2537 -0.1447 -0.2163
   13DOPE   C22 1572   1.142   1.029  16.793 -0.9539 -0.0004  0.1678
   13DOPE   H2R 1573   1.100   1.063  16.890 -2.3950 -0.2243 -0.3524
   13DOPE   H2S 1574   1.124   0.919  16.796 -0.0492 -0.2131 -1.4904
   13DOPE    C3 1575   1.602   0.922  16.709  0.1322 -0.3800 -0.0229
   13DOPE    HX 1576   1.574   0.818  16.737  0.0380  0.4099  3.1811
   13DOPE    HY 1577   1.708   0.945  16.736 -0.3048 -1.0619  2.5888
   13DOPE   O31 1578   1.556   0.953  16.576  0.7726 -0.6164 -0.8682
   13DOPE   C31 1579   1.619   1.049  16.516  0.2411  0.2917  0.3073
   13DOPE   O32 1580   1.696   1.130  16.567  0.4657 -0.4086 -0.0724
   13DOPE   C32 1581   1.571   1.050  16.368 -0.6335  0.2078  0.2193
   13DOPE   H2X 1582   1.619   0.960  16.323 -1.4761 -0.3343  0.3863
   13DOPE   H2Y 1583   1.462   1.029  16.372 -0.9035  1.3547 -0.6097
   13DOPE   C23 1584   1.040   1.094  16.697  0.5520  0.6777 -0.1345
   13DOPE   H3R 1585   1.061   1.203  16.700 -0.3575  0.8583  0.0644
   13DOPE   H3S 1586   0.939   1.074  16.740  1.6285 -0.4986  2.0033
   13DOPE   C24 1587   1.045   1.040  16.554 -0.3019  0.3109 -0.0981
   13DOPE   H4R 1588   0.943   1.016  16.516 -0.6257  0.7689  0.4642
   13DOPE   H4S 1589   1.092   0.939  16.557  0.5003  0.7020  0.7033
   13DOPE   C25 1590   1.108   1.126  16.443  0.4562  0.2723 -0.1331
   13DOPE   H5R 1591   1.204   1.158  16.490  0.4100 -0.4389  0.4641
   13DOPE   H5S 1592   1.047   1.215  16.418  0.2733  0.0252 -0.5857
   13DOPE   C26 1593   1.142   1.062  16.307 -0.0353  0.0220 -0.4330
   13DOPE   H6R 1594   1.173   0.957  16.327 -0.3961  0.1077  0.6760
   13DOPE   H6S 1595   1.225   1.124  16.269  0.6605 -0.4964  0.1972
   13DOPE   C27 1596   1.015   1.052  16.216 -0.8646 -0.4388  0.1236
   13DOPE   H7R 1597   0.971   1.154  16.213  1.0086  0.4334  0.8151
   13DOPE   H7S 1598   0.945   0.988  16.273  1.1359 -1.8931  1.0437
   13DOPE   C28 1599   1.040   1.002  16.069 -0.0537 -0.2335  0.0171
   13DOPE   H8R 1600   0.943   1.003  16.016  1.1328  3.5666 -2.4708
   13DOPE   H8S 1601   1.077   0.897  16.071 -0.8837 -0.5447 -0.5114
   13DOPE   C29 1602   1.125   1.096  15.981  0.3239 -0.1216 -0.1400
   13DOPE   H9R 1603   1.130   1.195  16.028 -1.2350 -0.7281  1.4270
   13DOPE  C210 1604   1.186   1.064  15.866  0.0022  0.0829  0.3326
   13DOPE  H10R 1605   1.252   1.137  15.816  0.4582  1.0109  2.2054
   13DOPE  C211 1606   1.176   0.924  15.804 -0.4509 -1.1677 -0.4941
   13DOPE  H11R 1607   1.106   0.862  15.865 -1.0777  1.4509  1.6625
   13DOPE  H11S 1608   1.273   0.873  15.787 -0.7322 -0.7852 -4.0808
   13DOPE  C212 1609   1.124   0.925  15.660 -0.3879  0.0358  0.4710
   13DOPE  H12R 1610   1.045   1.000  15.637  0.0651 -0.4523 -3.4000
   13DOPE  H12S 1611   1.074   0.827  15.646  1.6019 -0.7679 -1.7115
   13DOPE  C213 1612   1.239   0.965  15.557  0.9118  0.5828  0.2661
   13DOPE  H13R 1613   1.331   0.906  15.575 -0.5424 -1.5460  1.1799
   13DOPE  H13S 1614   1.266   1.071  15.575  2.0630  0.2793  0.3890
   13DOPE  C214 1615   1.196   0.947  15.410  0.6346  0.1564 -0.1799
   13DOPE  H14R 1616   1.094   0.987  15.396  0.2093 -0.3843  1.1603
   13DOPE  H14S 1617   1.186   0.838  15.392  0.9245  0.0951  0.0104
   13DOPE  C215 1618   1.295   1.002  15.306 -0.1828 -0.3859 -0.5427
   13DOPE  H15R 1619   1.392   1.018  15.359 -2.3633 -0.5095  3.9417
   13DOPE  H15S 1620   1.255   1.104  15.285 -4.1118 -1.1197  2.2601
   13DOPE  C216 1621   1.300   0.918  15.174  0.4054 -0.0381 -0.1718
   13DOPE  H16R 1622   1.198   0.923  15.132  0.8858  3.9989 -1.2127
   13DOPE  H16S 1623   1.340   0.815  15.190  0.2499  0.2490  2.5739
   13DOPE  C217 1624   1.384   0.992  15.071 -0.6110  0.0473  0.1784
   13DOPE  H17R 1625   1.490   1.012  15.099 -0.1047 -0.3816 -1.3479
   13DOPE  H17S 1626   1.355   1.097  15.049  0.7448  0.7924  1.7291
   13DOPE  C218 1627   1.395   0.916  14.934 -0.1471 -0.5389  0.5180
   13DOPE  H18R 1628   1.295   0.885  14.895  0.4064 -1.1997 -0.4198
   13DOPE  H18S 1629   1.459   0.826  14.943 -0.6701 -0.9546  0.1669
   13DOPE  H18T 1630   1.440   0.994  14.869 -0.4471  0.1626  1.1323
   13DOPE   C33 1631   1.613   1.171  16.283  0.0582 -0.1113  0.4270
   13DOPE   H3X 1632   1.713   1.212  16.310  0.0429  0.8302 -0.8281
   13DOPE   H3Y 1633   1.535   1.250  16.281  0.9146  0.7674 -2.1190
   13DOPE   C34 1634   1.629   1.127  16.138 -0.0886  0.1924  0.4606
   13DOPE   H4X 1635   1.725   1.071  16.135  0.5534  1.0994  2.3542
   13DOPE   H4Y 1636   1.545   1.061  16.109 -0.3447  1.3151 -1.5190
   13DOPE   C35 1637   1.639   1.248  16.040  0.0312  0.3326 -0.0823
   13DOPE   H5X 1638   1.742   1.287  16.024  0.2882 -1.2608 -3.0517
   13DOPE   H5Y 1639   1.580   1.331  16.085  1.7012  0.3405  2.2826
   13DOPE   C36 1640   1.587   1.207  15.900 -0.1225  0.2267  0.4657
   13DOPE   H6X 1641   1.489   1.158  15.921  0.1761  0.4560  2.6706
   13DOPE   H6Y 1642   1.659   1.139  15.851  2.0970  2.7950 -0.0760
   13DOPE   C37 1643   1.567   1.325  15.806  0.3087 -0.1307 -0.8158
   13DOPE   H7X 1644   1.498   1.391  15.863 -1.0751 -1.8630 -0.4240
   13DOPE   H7Y 1645   1.668   1.371  15.796  1.5856 -2.8615 -1.4047
   13DOPE   C38 1646   1.509   1.278  15.675  0.1173 -0.0134 -0.0194
   13DOPE   H8X 1647   1.417   1.219  15.695  1.4720 -1.8876  1.0089
   13DOPE   H8Y 1648   1.580   1.212  15.620 -0.8927 -0.2192 -1.1271
   13DOPE   C39 1649   1.477   1.399  15.593  0.1215 -0.3171 -0.1045
   13DOPE   H9X 1650   1.492   1.492  15.649 -1.7844 -1.0729  1.8116
   13DOPE  C310 1651   1.457   1.408  15.463 -0.6508  0.0402 -0.8770
   13DOPE  H10X 1652   1.463   1.511  15.424  0.7204  1.3103  2.3817
   13DOPE  C311 1653   1.436   1.300  15.364 -0.4194 -0.3510 -0.1477
   13DOPE  H11X 1654   1.454   1.199  15.407 -2.4124  0.0050  1.7365
   13DOPE  H11Y 1655   1.329   1.310  15.337 -0.5141  1.2251  0.6865
   13DOPE  C312 1656   1.519   1.319  15.236  0.5708  0.0599 -0.5410
   13DOPE  H12X 1657   1.478   1.238  15.172  0.7003  0.5169 -1.2132
   13DOPE  H12Y 1658   1.630   1.308  15.244  0.2710 -1.8644  2.0996
   13DOPE  C313 1659   1.476   1.445  15.160 -0.0505  0.1822 -0.1050
   13DOPE  H13X 1660   1.367   1.440  15.139 -0.1465 -0.8438  0.5698
   13DOPE  H13Y 1661   1.496   1.542  15.210  1.7386  0.0636 -0.5043
   13DOPE  C314 1662   1.540   1.425  15.015 -0.1737  0.6480 -0.9677
   13DOPE  H14X 1663   1.520   1.319  14.989  0.5842 -0.3612  2.2026
   13DOPE  H14Y 1664   1.651   1.419  15.019 -0.1524  1.6824  0.7603
   13DOPE  C315 1665   1.485   1.516  14.909  0.4180 -0.2168 -0.4608
   13DOPE  H15X 1666   1.483   1.615  14.958  1.4643 -0.8295  0.8840
   13DOPE  H15Y 1667   1.378   1.484  14.902 -0.6087  2.6915  0.6070
   13DOPE  C316 1668   1.578   1.519  14.789  0.1698 -0.2478  0.1612
   13DOPE  H16X 1669   1.680   1.484  14.817 -0.2376 -2.6482 -1.0832
   13DOPE  H16Y 1670   1.592   1.625  14.761 -0.7408  0.6970  3.0308
   13DOPE  C317 1671   1.528   1.434  14.673  0.7556 -0.1118  0.1642
   13DOPE  H17X 1672   1.497   1.334  14.709  0.4537  0.0422  0.3343
   13DOPE  H17Y 1673   1.443   1.484  14.623 -0.1956 -0.8085  1.0592
   13DOPE  C318 1674   1.638   1.392  14.576  0.4201 -0.4707 -0.2827
   13DOPE  H18X 1675   1.591   1.345  14.487 -1.6958 -0.0207  0.5141
   13DOPE  H18Y 1676   1.697   1.482  14.551 -2.3089  0.8727 -2.3946
   13DOPE  H18Z 1677   1.706   1.323  14.630 -1.3389 -1.0702  1.3256
   14DOPE     N 1678   6.044   4.542  17.330 -0.5327  0.1111 -0.1274
   14DOPE   HN1 1679   6.076   4.640  17.334  1.8500 -0.4308 -2.8957
   14DOPE   HN2 1680   5.943   4.535  17.308 -0.7006  0.9932  0.3196
   14DOPE   HN3 1681   6.053   4.488  17.419 -2.1316 -0.1282 -0.0747
   14DOPE   C12 1682   6.117   4.482  17.217  0.1320  0.4785  0.1035
   14DOPE  H12A 1683   6.224   4.473  17.246 -0.0449 -1.8209  0.2105
   14DOPE  H12B 1684   6.113   4.549  17.128  1.4987 -0.6178 -0.8258
   14DOPE   C11 1685   6.060   4.344  17.179 -0.0193  0.1022  0.0611
   14DOPE  H11A 1686   6.087   4.277  17.263 -1.8287 -2.4444 -1.2387
   14DOPE  H11B 1687   6.114   4.297  17.094 -0.7346 -0.2209 -0.2228
   14DOPE     P 1688   5.846   4.386  17.027 -0.1512  0.1298  0.1419
   14DOPE   O13 1689   5.854   4.534  17.036 -0.2115  0.1834  0.6308
   14DOPE   O14 1690   5.711   4.328  17.011  0.0840  0.5257  0.5461
   14DOPE   O11 1691   5.950   4.333  16.915 -0.0229 -0.0389 -0.6685
   14DOPE   O12 1692   5.911   4.340  17.167 -0.1025  0.3002 -0.0585
   14DOPE    C1 1693   6.063   4.410  16.866  0.6232  0.4580 -0.7757
   14DOPE    HA 1694   6.157   4.355  16.888  0.8598  2.2123  3.5218
   14DOPE    HB 1695   6.070   4.501  16.930  0.5845  1.1544 -1.7447
   14DOPE    C2 1696   6.047   4.446  16.713  0.1826 -0.1534 -0.3091
   14DOPE    HS 1697   5.950   4.499  16.698 -0.4199 -0.0838  3.0825
   14DOPE   O21 1698   6.054   4.341  16.622 -0.3832 -0.0783 -0.0059
   14DOPE   C21 1699   5.948   4.271  16.599  0.0311  0.2945 -0.4108
   14DOPE   O22 1700   5.841   4.301  16.647 -0.2923  0.0488  0.3976
   14DOPE   C22 1701   5.970   4.169  16.491  0.7406  0.0367  0.4368
   14DOPE   H2R 1702   6.056   4.104  16.521  0.0078 -1.8746 -1.4025
   14DOPE   H2S 1703   6.003   4.222  16.399  1.3501  0.3237  0.8077
   14DOPE    C3 1704   6.164   4.541  16.660 -1.2153  0.4244  0.2390
   14DOPE    HX 1705   6.266   4.502  16.682 -0.8056  2.1387  1.5532
   14DOPE    HY 1706   6.170   4.639  16.710  0.5678  1.4299 -1.7762
   14DOPE   O31 1707   6.152   4.559  16.521 -0.4191  0.3143 -0.2508
   14DOPE   C31 1708   6.080   4.665  16.476 -0.3589 -0.0950 -0.8134
   14DOPE   O32 1709   6.009   4.735  16.545  0.5152  0.1954 -0.4292
   14DOPE   C32 1710   6.100   4.677  16.328  0.3966 -0.1224  0.2738
   14DOPE   H2X 1711   6.157   4.771  16.314 -1.7502  1.7667  3.1131
   14DOPE   H2Y 1712   6.163   4.592  16.295 -0.6109 -1.3629  1.4149
   14DOPE   C23 1713   5.845   4.092  16.472  0.5940  0.3520  0.9647
   14DOPE   H3R 1714   5.756   4.147  16.435  0.4866 -0.3436  0.1717
   14DOPE   H3S 1715   5.813   4.048  16.569  0.8785 -0.5783  0.6462
   14DOPE   C24 1716   5.872   3.968  16.392 -0.5970  0.3713  0.2566
   14DOPE   H4R 1717   5.780   3.906  16.404  0.3909 -1.7397 -2.2421
   14DOPE   H4S 1718   5.964   3.915  16.424  0.5996  1.5948 -1.0189
   14DOPE   C25 1719   5.886   3.982  16.238 -0.2086  0.8797  0.3529
   14DOPE   H5R 1720   5.873   3.876  16.207  0.5758  0.6937  0.6281
   14DOPE   H5S 1721   5.989   4.012  16.212 -0.6130  0.3641 -2.0143
   14DOPE   C26 1722   5.784   4.071  16.168  0.1985 -0.3084  0.6395
   14DOPE   H6R 1723   5.812   4.178  16.169 -1.1238  0.1055 -1.3659
   14DOPE   H6S 1724   5.685   4.056  16.215 -0.8967  3.1078 -0.3356
   14DOPE   C27 1725   5.776   4.016  16.025 -0.0088  0.3354  0.0984
   14DOPE   H7R 1726   5.734   3.914  16.038  0.3872  0.1744  0.1001
   14DOPE   H7S 1727   5.876   4.010  15.979 -0.5782 -2.6053 -0.9981
   14DOPE   C28 1728   5.677   4.096  15.931  0.1797  0.5210 -0.0398
   14DOPE   H8R 1729   5.571   4.106  15.962  0.5240  1.4100  0.9089
   14DOPE   H8S 1730   5.674   4.034  15.838  0.1341 -1.9559  1.5002
   14DOPE   C29 1731   5.736   4.235  15.890  0.3725 -0.3925 -0.8643
   14DOPE   H9R 1732   5.773   4.294  15.975  0.0975  0.4162 -1.2944
   14DOPE  C210 1733   5.723   4.301  15.776 -0.3705  0.3660 -0.6153
   14DOPE  H10R 1734   5.755   4.405  15.763  1.4744 -0.2022 -0.9136
   14DOPE  C211 1735   5.653   4.242  15.660  0.0132 -0.1036 -0.2219
   14DOPE  H11R 1736   5.606   4.143  15.679  1.3381 -1.5733 -3.7189
   14DOPE  H11S 1737   5.720   4.228  15.573  0.4302 -0.2649  0.1192
   14DOPE  C212 1738   5.533   4.333  15.620  0.0209  0.1595 -0.3471
   14DOPE  H12R 1739   5.477   4.353  15.714  0.5894 -0.1734  0.0685
   14DOPE  H12S 1740   5.471   4.285  15.542  0.0127  0.5659 -0.5904
   14DOPE  C213 1741   5.577   4.467  15.555  0.3940 -0.1342  0.0434
   14DOPE  H13R 1742   5.669   4.458  15.494  0.8956  0.4444  0.6962
   14DOPE  H13S 1743   5.602   4.534  15.640 -0.4542 -1.9529  1.7988
   14DOPE  C214 1744   5.459   4.531  15.483  0.3865 -1.0193  0.4057
   14DOPE  H14R 1745   5.367   4.534  15.544 -0.8689  2.2813 -1.3500
   14DOPE  H14S 1746   5.441   4.478  15.387 -0.4253  0.2691 -0.1864
   14DOPE  C215 1747   5.497   4.683  15.443  0.3837  0.0947  0.3159
   14DOPE  H15R 1748   5.589   4.665  15.384  1.2770 -0.3991  1.8041
   14DOPE  H15S 1749   5.521   4.732  15.539 -1.9519 -0.6303  1.3492
   14DOPE  C216 1750   5.385   4.761  15.377  0.1764  0.1354  0.3523
   14DOPE  H16R 1751   5.291   4.750  15.435  1.7190  1.8844  3.4102
   14DOPE  H16S 1752   5.378   4.723  15.272  0.6460 -0.7074  0.6145
   14DOPE  C217 1753   5.418   4.911  15.353 -0.0110  0.2435 -0.3399
   14DOPE  H17R 1754   5.340   4.952  15.284 -2.2148 -0.0409  1.8238
   14DOPE  H17S 1755   5.517   4.925  15.306  0.8040 -1.0562  0.8985
   14DOPE  C218 1756   5.424   5.005  15.478 -0.0425  0.8003 -0.3970
   14DOPE  H18R 1757   5.472   5.103  15.458  2.5065  0.6409  3.6298
   14DOPE  H18S 1758   5.481   4.951  15.557  1.0362  1.6198 -0.6009
   14DOPE  H18T 1759   5.325   5.021  15.526  0.9652 -0.2223  2.2222
   14DOPE   C33 1760   5.968   4.680  16.256  0.0764 -0.4424 -1.0905
   14DOPE   H3X 1761   5.934   4.786  16.245 -1.4696 -0.8146 -0.2348
   14DOPE   H3Y 1762   5.888   4.624  16.309 -0.2681  1.5709  0.6504
   14DOPE   C34 1763   5.973   4.618  16.117 -0.5779 -0.1841  0.0557
   14DOPE   H4X 1764   6.077   4.643  16.086 -0.8593  0.8361 -0.0845
   14DOPE   H4Y 1765   5.960   4.508  16.115 -0.5200 -0.2136  1.0011
   14DOPE   C35 1766   5.873   4.690  16.021 -0.3657  0.5695  0.6830
   14DOPE   H5X 1767   5.860   4.798  16.044  2.3127  0.5489  2.7591
   14DOPE   H5Y 1768   5.777   4.638  16.046  0.0406 -0.0954  0.8951
   14DOPE   C36 1769   5.902   4.649  15.878 -0.5227  0.2777  0.4736
   14DOPE   H6X 1770   5.906   4.538  15.881  0.6692  0.3342  2.0242
   14DOPE   H6Y 1771   6.005   4.686  15.857 -0.5507  0.7410  1.1184
   14DOPE   C37 1772   5.813   4.710  15.770  0.1373  0.0620  0.2361
   14DOPE   H7X 1773   5.837   4.653  15.678 -2.7690  0.1135 -0.6471
   14DOPE   H7Y 1774   5.705   4.699  15.792 -0.1072  2.4785  0.4822
   14DOPE   C38 1775   5.847   4.856  15.750  0.0154 -0.8321 -0.0048
   14DOPE   H8X 1776   5.956   4.867  15.768  0.2740 -2.1343 -0.7105
   14DOPE   H8Y 1777   5.792   4.914  15.828 -0.8683 -1.3029 -0.2732
   14DOPE   C39 1778   5.801   4.902  15.611  0.0031  0.1077  0.4104
   14DOPE   H9X 1779   5.714   4.852  15.565  0.0238  0.2276  0.2407
   14DOPE  C310 1780   5.865   4.985  15.526 -0.0979 -0.3016  0.3430
   14DOPE  H10X 1781   5.832   4.998  15.422 -0.4082  1.1737  0.5948
   14DOPE  C311 1782   5.995   5.047  15.569  0.8250 -0.5469  0.5642
   14DOPE  H11X 1783   5.978   5.140  15.627 -1.2001 -1.1299  0.9803
   14DOPE  H11Y 1784   6.051   4.974  15.631 -1.5861 -2.3791  0.6977
   14DOPE  C312 1785   6.090   5.069  15.450 -0.0449  0.1029  0.2972
   14DOPE  H12X 1786   6.163   5.143  15.489 -2.6809  1.0368  4.0718
   14DOPE  H12Y 1787   6.033   5.130  15.377  1.9190  0.2835 -1.1750
   14DOPE  C313 1788   6.162   4.952  15.389  0.1826  0.2328 -0.1427
   14DOPE  H13X 1789   6.235   4.908  15.459  0.7703 -2.2033 -2.1500
   14DOPE  H13Y 1790   6.085   4.876  15.366  0.7988 -0.3953 -0.1492
   14DOPE  C314 1791   6.229   4.989  15.256 -0.2976 -0.3195 -0.1960
   14DOPE  H14X 1792   6.161   5.050  15.193 -1.6324 -1.7154 -0.1564
   14DOPE  H14Y 1793   6.251   4.893  15.204  2.2797  0.4224 -0.6581
   14DOPE  C315 1794   6.365   5.061  15.272  0.6496  0.2134 -0.2341
   14DOPE  H15X 1795   6.436   5.021  15.347  0.0594 -0.9058 -0.2583
   14DOPE  H15Y 1796   6.350   5.169  15.296  1.9707  1.2800 -3.5993
   14DOPE  C316 1797   6.439   5.064  15.138  0.9447  0.0426  0.4477
   14DOPE  H16X 1798   6.390   5.125  15.059  1.1446  0.5412  0.7063
   14DOPE  H16Y 1799   6.448   4.957  15.109  0.9684  0.3163 -0.5739
   14DOPE  C317 1800   6.581   5.121  15.138  1.1807 -0.3498 -0.4489
   14DOPE  H17X 1801   6.581   5.225  15.179 -0.8587 -0.9980  1.3483
   14DOPE  H17Y 1802   6.625   5.065  15.223 -2.3856 -1.5212  0.8186
   14DOPE  C318 1803   6.670   5.115  15.013  0.3964 -0.0725 -0.0935
   14DOPE  H18X 1804   6.624   5.187  14.941 -0.1502  0.9427  1.2163
   14DOPE  H18Y 1805   6.770   5.151  15.045  1.0244 -0.4993 -1.5123
   14DOPE  H18Z 1806   6.677   5.019  14.958  0.0116  0.7680 -1.6960
   15DOPE     N 1807   0.617   1.902  16.652  0.5740 -0.1332  0.0533
   15DOPE   HN1 1808   0.672   1.892  16.740  0.2203 -1.6092  0.1340
   15DOPE   HN2 1809   0.678   1.913  16.568 -0.2213  2.3813 -0.2827
   15DOPE   HN3 1810   0.549   1.981  16.642 -2.5673 -2.8292 -2.1820
   15DOPE   C12 1811   0.544   1.773  16.630 -0.5740 -0.7960 -0.0930
   15DOPE  H12A 1812   0.613   1.686  16.629 -0.2285 -0.5634  1.5580
   15DOPE  H12B 1813   0.493   1.776  16.531 -1.4363  0.1238  0.3634
   15DOPE   C11 1814   0.439   1.746  16.743  0.4479  0.4711  0.0171
   15DOPE  H11A 1815   0.487   1.778  16.838  0.3725 -0.4081  0.3638
   15DOPE  H11B 1816   0.405   1.641  16.733  0.7094  0.2667  1.1669
   15DOPE     P 1817   0.213   1.859  16.799  0.3536 -0.0942 -0.0323
   15DOPE   O13 1818   0.259   1.968  16.892  0.1757 -0.2048 -0.1255
   15DOPE   O14 1819   0.158   1.731  16.851  0.8695  0.2599  0.0173
   15DOPE   O11 1820   0.107   1.932  16.704 -0.8041  0.1075 -0.2878
   15DOPE   O12 1821   0.324   1.816  16.701  0.1789 -0.1175  0.0580
   15DOPE    C1 1822   0.155   2.029  16.608 -0.0941  0.2713  0.3589
   15DOPE    HA 1823   0.243   2.082  16.650  0.6829  0.0687 -0.9322
   15DOPE    HB 1824   0.073   2.104  16.604  1.4259  1.9651 -2.1970
   15DOPE    C2 1825   0.182   1.971  16.466  0.1401  0.7416 -0.4824
   15DOPE    HS 1826   0.247   1.883  16.480 -1.6121 -0.5506 -0.1971
   15DOPE   O21 1827   0.227   2.064  16.371 -0.0238 -0.2744 -0.1719
   15DOPE   C21 1828   0.361   2.105  16.380 -0.4680  0.3265 -0.8040
   15DOPE   O22 1829   0.437   2.048  16.451  0.3466  0.3981  0.5361
   15DOPE   C22 1830   0.374   2.235  16.298 -0.4506  0.4777  0.4925
   15DOPE   H2R 1831   0.292   2.307  16.320  0.9212  1.9279  1.0381
   15DOPE   H2S 1832   0.374   2.224  16.187 -0.1142  1.9668  0.3174
   15DOPE    C3 1833   0.042   1.932  16.418  0.3468 -0.1450 -0.1816
   15DOPE    HX 1834  -0.027   2.016  16.440  0.8322  0.9878 -2.6304
   15DOPE    HY 1835   0.016   1.846  16.483  0.0724  0.5765  0.6907
   15DOPE   O31 1836   0.028   1.902  16.285  0.2545 -0.4909  0.1606
   15DOPE   C31 1837  -0.074   1.819  16.246 -0.3712 -0.0294 -0.0124
   15DOPE   O32 1838  -0.152   1.772  16.329  0.3164  0.1261 -0.4022
   15DOPE   C32 1839  -0.074   1.816  16.095 -0.0272  0.2156  0.0468
   15DOPE   H2X 1840  -0.090   1.924  16.071  1.0858  0.9127  2.2208
   15DOPE   H2Y 1841   0.028   1.791  16.059  0.2577  0.5576  0.6019
   15DOPE   C23 1842   0.510   2.304  16.320  0.6064 -0.2731 -0.3771
   15DOPE   H3R 1843   0.542   2.320  16.425 -1.7056  1.9508  0.0749
   15DOPE   H3S 1844   0.497   2.412  16.297 -0.9907 -0.5763 -1.0053
   15DOPE   C24 1845   0.627   2.247  16.236  0.2339  0.6787 -0.4642
   15DOPE   H4R 1846   0.591   2.231  16.133 -1.1529 -1.2394  0.2701
   15DOPE   H4S 1847   0.657   2.149  16.279  0.6071  1.2492  0.6355
   15DOPE   C25 1848   0.752   2.348  16.236 -0.4434  0.4595  0.2276
   15DOPE   H5R 1849   0.837   2.280  16.258 -1.1792 -0.5095  0.1436
   15DOPE   H5S 1850   0.745   2.431  16.309  2.1479 -0.1726  1.3178
   15DOPE   C26 1851   0.771   2.409  16.090  0.0249  0.0430 -1.1683
   15DOPE   H6R 1852   0.764   2.321  16.024  2.8481 -0.4344 -0.9154
   15DOPE   H6S 1853   0.868   2.463  16.081  1.8349 -2.8306 -0.1883
   15DOPE   C27 1854   0.678   2.528  16.060  0.0411 -0.8661 -0.0574
   15DOPE   H7R 1855   0.705   2.604  16.136 -1.3461 -1.0081  0.6099
   15DOPE   H7S 1856   0.578   2.504  16.102 -0.1956  2.8882  1.9247
   15DOPE   C28 1857   0.667   2.594  15.921 -0.5724  0.3791  0.7516
   15DOPE   H8R 1858   0.764   2.616  15.871 -0.8210 -1.7108 -0.7852
   15DOPE   H8S 1859   0.612   2.690  15.930 -0.7302  0.6194 -1.9171
   15DOPE   C29 1860   0.572   2.513  15.840 -0.3404 -0.0840  0.4189
   15DOPE   H9R 1861   0.468   2.514  15.876  0.1497 -3.3650  2.3249
   15DOPE  C210 1862   0.601   2.443  15.724  0.0371  0.2820 -0.1897
   15DOPE  H10R 1863   0.514   2.402  15.672  0.2426  1.1693 -1.2849
   15DOPE  C211 1864   0.732   2.411  15.661  0.5409  0.4006  0.4784
   15DOPE  H11R 1865   0.739   2.303  15.635 -1.3184  0.4498 -0.3951
   15DOPE  H11S 1866   0.812   2.438  15.733  1.4912 -0.0944 -0.3753
   15DOPE  C212 1867   0.750   2.496  15.531 -0.2270 -0.2201 -0.7208
   15DOPE  H12R 1868   0.704   2.597  15.536 -0.4437 -0.3632  0.2585
   15DOPE  H12S 1869   0.694   2.434  15.457 -1.9360 -2.5381  2.2941
   15DOPE  C213 1870   0.900   2.492  15.496  0.3810  0.2774  0.4063
   15DOPE  H13R 1871   0.927   2.385  15.492  3.0100  0.8828 -0.4714
   15DOPE  H13S 1872   0.962   2.541  15.575  1.3790  0.3028 -0.3624
   15DOPE  C214 1873   0.931   2.561  15.357 -0.1210 -0.1462 -0.0062
   15DOPE  H14R 1874   1.042   2.555  15.358  0.0452  2.2203 -0.1999
   15DOPE  H14S 1875   0.920   2.671  15.368  0.7543 -0.1031  0.6285
   15DOPE  C215 1876   0.882   2.483  15.235 -0.2853 -0.4686 -0.1984
   15DOPE  H15R 1877   0.774   2.507  15.220 -0.3140 -0.5810 -0.1708
   15DOPE  H15S 1878   0.889   2.373  15.249  3.3381 -0.9510 -3.9844
   15DOPE  C216 1879   0.966   2.532  15.114 -0.3080  0.1988 -0.0779
   15DOPE  H16R 1880   0.921   2.479  15.028 -0.1670  1.6651 -1.1095
   15DOPE  H16S 1881   1.076   2.513  15.113 -0.6392 -2.0138  1.1033
   15DOPE  C217 1882   0.954   2.682  15.103  0.3266 -0.2474  0.3145
   15DOPE  H17R 1883   1.016   2.730  15.181 -0.3187  0.1537  0.5851
   15DOPE  H17S 1884   0.853   2.709  15.139 -0.2522 -0.1546 -1.3100
   15DOPE  C218 1885   0.982   2.746  14.961 -0.0913 -0.0952 -0.6316
   15DOPE  H18R 1886   0.982   2.856  14.946  2.6352 -0.3243 -3.4601
   15DOPE  H18S 1887   0.908   2.710  14.887 -2.9904  1.8487  1.1402
   15DOPE  H18T 1888   1.079   2.709  14.920 -0.0253 -0.0424 -0.5246
   15DOPE   C33 1889  -0.182   1.727  16.030 -0.2018  0.0989 -0.1832
   15DOPE   H3X 1890  -0.285   1.761  16.055 -1.6400 -2.6204 -1.9826
   15DOPE   H3Y 1891  -0.189   1.621  16.065 -0.9729  0.3251  0.3864
   15DOPE   C34 1892  -0.163   1.721  15.876  0.1132  0.4260 -0.0023
   15DOPE   H4X 1893  -0.064   1.673  15.863  0.1345  0.6872 -0.9069
   15DOPE   H4Y 1894  -0.236   1.647  15.835 -1.9880  2.4106 -0.0512
   15DOPE   C35 1895  -0.170   1.857  15.812  0.7567  0.6025  0.6283
   15DOPE   H5X 1896  -0.082   1.919  15.839  2.7203 -1.7411  0.0667
   15DOPE   H5Y 1897  -0.246   1.926  15.852  1.0028  1.1583  0.1482
   15DOPE   C36 1898  -0.199   1.853  15.661 -0.1788 -0.1572 -0.1020
   15DOPE   H6X 1899  -0.291   1.792  15.647 -1.2965  1.2270  0.9608
   15DOPE   H6Y 1900  -0.113   1.804  15.610 -1.0515  2.2204 -4.4313
   15DOPE   C37 1901  -0.230   1.987  15.592  0.5170 -0.3616  0.3251
   15DOPE   H7X 1902  -0.262   1.967  15.488  2.6153  0.8324 -0.6076
   15DOPE   H7Y 1903  -0.306   2.040  15.654  1.9767  1.0022  1.0264
   15DOPE   C38 1904  -0.105   2.080  15.580  0.0869 -0.2058 -0.7116
   15DOPE   H8X 1905  -0.076   2.121  15.679  0.1772 -1.1554 -0.3324
   15DOPE   H8Y 1906  -0.133   2.161  15.509 -0.8851  0.4288  0.3623
   15DOPE   C39 1907   0.008   2.017  15.508 -0.3627  0.3635  0.3276
   15DOPE   H9X 1908  -0.030   1.940  15.439  1.8247  1.1595 -1.9074
   15DOPE  C310 1909   0.136   2.029  15.537 -0.0244  0.1865  0.8200
   15DOPE  H10X 1910   0.213   1.988  15.470  0.4179  0.0984  1.3741
   15DOPE  C311 1911   0.197   2.116  15.641 -0.1241  0.5772  0.2135
   15DOPE  H11X 1912   0.295   2.158  15.609  0.5028 -0.7590  0.3035
   15DOPE  H11Y 1913   0.128   2.199  15.668 -2.3620 -0.0224 -3.1453
   15DOPE  C312 1914   0.221   2.029  15.767 -0.1069  0.1208  0.2228
   15DOPE  H12X 1915   0.304   1.956  15.754 -1.2010 -1.9196  3.5499
   15DOPE  H12Y 1916   0.138   1.968  15.807  0.4413 -0.6893  0.1579
   15DOPE  C313 1917   0.256   2.110  15.892  0.4275  0.5660 -0.2572
   15DOPE  H13X 1918   0.358   2.152  15.875  0.6638 -0.0384 -0.3540
   15DOPE  H13Y 1919   0.182   2.189  15.914 -0.3186 -0.7922  2.5975
   15DOPE  C314 1920   0.256   2.027  16.023 -0.1168  0.2219 -0.6790
   15DOPE  H14X 1921   0.166   1.961  16.025  1.7608 -2.7053 -2.8593
   15DOPE  H14Y 1922   0.237   2.100  16.104 -0.2353  1.0193 -1.4111
   15DOPE  C315 1923   0.380   1.934  16.041 -0.2988  0.3363  0.1885
   15DOPE  H15X 1924   0.473   1.993  16.060 -0.6747  1.4218 -1.2385
   15DOPE  H15Y 1925   0.401   1.881  15.946 -1.6903 -1.8804  1.0132
   15DOPE  C316 1926   0.353   1.827  16.148 -0.2068 -0.7398 -0.0135
   15DOPE  H16X 1927   0.258   1.772  16.128 -0.0630 -1.4239  1.1096
   15DOPE  H16Y 1928   0.331   1.873  16.247  1.4101  0.8104 -0.3413
   15DOPE  C317 1929   0.471   1.735  16.182 -0.6304 -0.2513  0.1379
   15DOPE  H17X 1930   0.507   1.692  16.087  0.0280 -0.0866  0.3129
   15DOPE  H17Y 1931   0.553   1.799  16.221 -0.1852  0.1072 -1.3234
   15DOPE  C318 1932   0.434   1.631  16.286 -0.1495  0.2905  0.0149
   15DOPE  H18X 1933   0.403   1.671  16.385 -3.2373 -1.0821 -0.3116
   15DOPE  H18Y 1934   0.341   1.578  16.257  0.6737 -1.5349  0.6062
   15DOPE  H18Z 1935   0.508   1.548  16.288 -0.8783 -0.3780 -0.1825
   16DOPE     N 1936   6.023   2.972  17.053 -0.0145 -0.2715 -0.4934
   16DOPE   HN1 1937   5.935   2.922  17.078  0.6333 -0.4138  1.7752
   16DOPE   HN2 1938   5.994   3.061  17.008  0.0923 -0.1358 -0.2949
   16DOPE   HN3 1939   6.080   2.914  16.988  0.1452 -1.8817  0.9891
   16DOPE   C12 1940   6.099   3.006  17.179  0.1197 -0.0809 -0.6364
   16DOPE  H12A 1941   6.164   2.921  17.208  1.5565  1.6117  1.4141
   16DOPE  H12B 1942   6.026   3.023  17.261 -1.5669 -2.6056 -1.5126
   16DOPE   C11 1943   6.193   3.122  17.148  0.2465  0.5160  0.3701
   16DOPE  H11A 1944   6.230   3.155  17.247 -1.9586  0.1292  1.3695
   16DOPE  H11B 1945   6.129   3.206  17.115 -0.1636  0.6796  1.5488
   16DOPE     P 1946   6.402   3.182  17.001  0.0657 -0.3753 -0.4182
   16DOPE   O13 1947   6.529   3.102  17.008 -0.0939 -0.3611  0.0204
   16DOPE   O14 1948   6.398   3.309  17.080  0.1189 -0.2254  0.8481
   16DOPE   O11 1949   6.377   3.218  16.849  0.0190  0.3002  0.3512
   16DOPE   O12 1950   6.292   3.082  17.044  0.0223 -0.2361 -0.0307
   16DOPE    C1 1951   6.266   3.172  16.779  0.5128  0.5298 -0.2906
   16DOPE    HA 1952   6.187   3.249  16.785  1.2608  1.2013  2.0169
   16DOPE    HB 1953   6.224   3.078  16.819 -0.5025  0.4729 -1.4508
   16DOPE    C2 1954   6.304   3.138  16.634 -0.3608 -0.1870 -0.7249
   16DOPE    HS 1955   6.209   3.099  16.592 -0.6546  1.3814 -1.6034
   16DOPE   O21 1956   6.411   3.047  16.617 -0.1852  0.2975 -0.4536
   16DOPE   C21 1957   6.393   2.928  16.666 -0.6112  0.6817  0.3948
   16DOPE   O22 1958   6.297   2.876  16.715  0.0853  0.4566 -0.2774
   16DOPE   C22 1959   6.515   2.845  16.621 -0.2050  0.4326  0.3754
   16DOPE   H2R 1960   6.468   2.753  16.580  0.0754 -0.2720  1.5777
   16DOPE   H2S 1961   6.568   2.816  16.714 -0.5220 -0.0372  0.4140
   16DOPE    C3 1962   6.333   3.268  16.548 -0.5232 -0.6472 -0.6879
   16DOPE    HX 1963   6.411   3.321  16.606 -2.6506  1.1864  0.6757
   16DOPE    HY 1964   6.252   3.343  16.549 -1.1049 -1.2027 -2.3421
   16DOPE   O31 1965   6.360   3.231  16.411 -0.2699  0.2901 -0.3903
   16DOPE   C31 1966   6.488   3.236  16.376  0.8114  0.0793 -1.0209
   16DOPE   O32 1967   6.586   3.251  16.444  0.3046 -0.0950  0.6267
   16DOPE   C32 1968   6.494   3.216  16.219 -0.6061  0.6538  0.2401
   16DOPE   H2X 1969   6.588   3.159  16.201 -0.4402  0.4495  1.6642
   16DOPE   H2Y 1970   6.404   3.156  16.193 -0.4359 -0.0447  1.1948
   16DOPE   C23 1971   6.605   2.906  16.510  0.6597 -1.2191  0.1028
   16DOPE   H3R 1972   6.645   2.998  16.557 -0.6547 -1.4656  1.7821
   16DOPE   H3S 1973   6.540   2.944  16.428 -1.5734 -1.0349  1.8616
   16DOPE   C24 1974   6.712   2.817  16.452  0.1787 -0.0433  0.4206
   16DOPE   H4R 1975   6.661   2.719  16.440 -0.5493  0.2888  0.7351
   16DOPE   H4S 1976   6.798   2.798  16.520  1.9017  1.5036 -1.1997
   16DOPE   C25 1977   6.782   2.871  16.325  0.1515  0.2503 -0.1977
   16DOPE   H5R 1978   6.707   2.880  16.243  2.2032 -1.3161 -2.3689
   16DOPE   H5S 1979   6.864   2.801  16.297  0.6264  0.7421 -0.0424
   16DOPE   C26 1980   6.845   3.013  16.333 -0.1107  0.4761 -0.2801
   16DOPE   H6R 1981   6.908   3.006  16.424 -0.8175  0.4882  0.2162
   16DOPE   H6S 1982   6.771   3.092  16.358 -0.1689  0.6430 -0.9623
   16DOPE   C27 1983   6.924   3.043  16.208 -0.5465  0.7870 -0.2714
   16DOPE   H7R 1984   6.867   3.042  16.112 -1.7813 -1.2921  0.4158
   16DOPE   H7S 1985   7.005   2.967  16.197 -2.2204 -1.0809 -0.4018
   16DOPE   C28 1986   6.990   3.181  16.214  0.3325 -0.4782  0.8834
   16DOPE   H8R 1987   7.043   3.191  16.117 -1.4326  2.6943  0.1237
   16DOPE   H8S 1988   7.068   3.180  16.294 -0.6058  1.2480  1.8695
   16DOPE   C29 1989   6.890   3.285  16.227  0.0719  0.2852  0.1169
   16DOPE   H9R 1990   6.836   3.287  16.323  1.6464  0.4028  1.0426
   16DOPE  C210 1991   6.860   3.383  16.136  0.2832 -0.3647  0.4214
   16DOPE  H10R 1992   6.797   3.464  16.174  1.5280  1.3115 -0.9375
   16DOPE  C211 1993   6.921   3.405  16.002 -0.2110  0.5427  0.2727
   16DOPE  H11R 1994   6.845   3.403  15.921  0.5962  0.5973 -0.5005
   16DOPE  H11S 1995   7.005   3.335  15.983  1.2908  2.7464 -1.9612
   16DOPE  C212 1996   7.002   3.538  16.000  0.1533  0.1851  0.3759
   16DOPE  H12R 1997   7.099   3.519  16.051 -0.3175 -1.0563  0.8471
   16DOPE  H12S 1998   6.951   3.618  16.058 -1.3566  0.5655 -1.3789
   16DOPE  C213 1999   7.017   3.593  15.855 -0.2000  0.1124 -0.1532
   16DOPE  H13R 2000   7.061   3.510  15.796 -2.5542 -0.6694 -0.9184
   16DOPE  H13S 2001   7.091   3.675  15.860 -0.4006  0.2352  1.1475
   16DOPE  C214 2002   6.889   3.629  15.776  0.1580 -0.5185 -0.6391
   16DOPE  H14R 2003   6.828   3.707  15.826  2.0652  1.0241 -0.6300
   16DOPE  H14S 2004   6.830   3.535  15.780  0.1366 -0.4609  1.2085
   16DOPE  C215 2005   6.906   3.670  15.629 -0.8170  0.1989  0.7391
   16DOPE  H15R 2006   6.810   3.672  15.573  0.0257 -1.2451 -0.8708
   16DOPE  H15S 2007   6.972   3.597  15.578 -1.9186 -1.3101  1.3722
   16DOPE  C216 2008   6.965   3.807  15.619 -0.3899 -0.4271  0.6618
   16DOPE  H16R 2009   7.063   3.802  15.671 -0.1267  1.9852  0.5247
   16DOPE  H16S 2010   6.905   3.887  15.668  1.1729  0.4342  1.2468
   16DOPE  C217 2011   6.996   3.856  15.479 -0.1111 -0.0751  1.0096
   16DOPE  H17R 2012   7.088   3.802  15.448 -0.5626 -0.9676  1.2218
   16DOPE  H17S 2013   7.031   3.962  15.488  0.4955  0.1137 -2.4260
   16DOPE  C218 2014   6.880   3.842  15.379 -0.2916 -0.3922  0.2055
   16DOPE  H18R 2015   6.842   3.737  15.377  2.0747 -1.3216 -1.7300
   16DOPE  H18S 2016   6.912   3.884  15.281 -2.3054  1.7432  0.3851
   16DOPE  H18T 2017   6.792   3.904  15.406  0.7217  0.9556  0.5396
   16DOPE   C33 2018   6.483   3.347  16.141  0.0152  0.1548 -0.5497
   16DOPE   H3X 2019   6.549   3.422  16.190 -1.1126 -0.4432  2.1224
   16DOPE   H3Y 2020   6.378   3.385  16.139  0.5691  1.9117  0.7623
   16DOPE   C34 2021   6.525   3.330  15.991  0.1219 -0.6102  0.2596
   16DOPE   H4X 2022   6.633   3.319  15.965  0.2415  0.1845  0.4000
   16DOPE   H4Y 2023   6.468   3.241  15.957  0.2550 -0.1780 -1.1272
   16DOPE   C35 2024   6.477   3.449  15.904  1.1217  0.2961 -0.2418
   16DOPE   H5X 2025   6.511   3.548  15.940 -0.2790  0.9847 -0.7273
   16DOPE   H5Y 2026   6.366   3.446  15.903  0.9633 -5.1213  0.6473
   16DOPE   C36 2027   6.520   3.433  15.756  0.0172 -0.4921  0.6608
   16DOPE   H6X 2028   6.504   3.325  15.737  1.9506 -1.1353  2.2690
   16DOPE   H6Y 2029   6.629   3.451  15.744  0.2161 -1.8751  0.2167
   16DOPE   C37 2030   6.433   3.519  15.655 -0.3901 -0.4096  0.2355
   16DOPE   H7X 2031   6.330   3.479  15.654 -0.6265  0.1930 -0.9012
   16DOPE   H7Y 2032   6.420   3.618  15.704 -0.5056  0.4859 -1.5417
   16DOPE   C38 2033   6.502   3.530  15.519  0.6020 -0.2646  0.6988
   16DOPE   H8X 2034   6.601   3.577  15.539  0.2161  1.3136 -0.8186
   16DOPE   H8Y 2035   6.451   3.603  15.453  0.0749  0.7307  2.1503
   16DOPE   C39 2036   6.501   3.391  15.456 -0.3071 -0.3110  0.2883
   16DOPE   H9X 2037   6.602   3.348  15.459 -0.2683 -0.2439  0.0018
   16DOPE  C310 2038   6.402   3.326  15.398  0.5649 -0.4124  0.0113
   16DOPE  H10X 2039   6.421   3.227  15.354 -1.2459 -1.6473  1.7869
   16DOPE  C311 2040   6.261   3.385  15.366  0.4616 -0.0346 -0.2308
   16DOPE  H11X 2041   6.182   3.344  15.433  0.7082 -0.1289  0.0042
   16DOPE  H11Y 2042   6.255   3.492  15.394 -2.0086 -0.0951 -0.2558
   16DOPE  C312 2043   6.229   3.380  15.211  1.1234 -0.2110  0.4867
   16DOPE  H12X 2044   6.290   3.450  15.150  1.9803  0.2594  1.8191
   16DOPE  H12Y 2045   6.126   3.413  15.189  0.3119 -2.0667  1.2611
   16DOPE  C313 2046   6.227   3.247  15.147  0.5088 -0.3417  0.1255
   16DOPE  H13X 2047   6.334   3.219  15.141  0.3316 -1.0466  0.1052
   16DOPE  H13Y 2048   6.177   3.167  15.206 -2.1694  2.8722  2.5902
   16DOPE  C314 2049   6.157   3.248  15.013  0.4602  0.3431  0.3559
   16DOPE  H14X 2050   6.207   3.322  14.948 -2.9302  0.8645 -1.9282
   16DOPE  H14Y 2051   6.057   3.292  15.031  0.9418  1.1419  1.1627
   16DOPE  C315 2052   6.145   3.111  14.939  0.3252  0.7306  0.0461
   16DOPE  H15X 2053   6.238   3.054  14.957  1.0400  0.5564 -3.4051
   16DOPE  H15Y 2054   6.125   3.116  14.829 -0.6501 -1.8527  0.0411
   16DOPE  C316 2055   6.013   3.039  15.002 -0.0423  0.6450  0.3291
   16DOPE  H16X 2056   5.917   3.083  14.968 -0.3243 -0.0755  0.1687
   16DOPE  H16Y 2057   6.022   3.051  15.112  0.1012 -0.2228  0.4164
   16DOPE  C317 2058   6.002   2.891  14.977 -0.8171 -0.0751  0.6837
   16DOPE  H17X 2059   5.971   2.882  14.871 -1.7213  4.1139  0.4407
   16DOPE  H17Y 2060   6.100   2.838  14.973 -1.0395 -0.4042 -2.0906
   16DOPE  C318 2061   5.904   2.819  15.066 -0.6003  0.5533 -0.0675
   16DOPE  H18X 2062   5.801   2.814  15.025 -0.8918  2.1743  0.4187
   16DOPE  H18Y 2063   5.936   2.712  15.067 -1.6223  0.2394  0.7407
   16DOPE  H18Z 2064   5.913   2.856  15.170  1.1846  0.3919 -0.1345
   17DOPE     N 2065   2.896   6.048  16.780 -0.0814  0.1950  0.3990
   17DOPE   HN1 2066   2.921   6.109  16.860 -0.9842 -0.0320  0.8651
   17DOPE   HN2 2067   2.866   5.961  16.827  0.6770  0.7112  1.8787
   17DOPE   HN3 2068   2.983   6.029  16.725 -0.4445 -2.5666  0.6605
   17DOPE   C12 2069   2.784   6.109  16.702 -0.0152  0.5503  0.0211
   17DOPE  H12A 2070   2.759   6.031  16.627  0.9817 -0.2137  0.4489
   17DOPE  H12B 2071   2.817   6.202  16.651  0.0414  0.5334  0.0281
   17DOPE   C11 2072   2.665   6.134  16.802  0.0092  0.4127  0.1189
   17DOPE  H11A 2073   2.575   6.138  16.737 -0.4012 -2.5188  0.3773
   17DOPE  H11B 2074   2.671   6.225  16.867 -1.1128  0.1425  0.6268
   17DOPE     P 2075   2.518   5.942  16.904 -0.3385 -0.0047  0.2972
   17DOPE   O13 2076   2.515   5.875  17.032  0.1986  0.2008  0.4518
   17DOPE   O14 2077   2.509   5.861  16.781 -0.6876  0.1192 -0.2112
   17DOPE   O11 2078   2.404   6.052  16.899  0.3836  0.0383 -0.1692
   17DOPE   O12 2079   2.645   6.031  16.891  0.4517  0.0869  0.0238
   17DOPE    C1 2080   2.288   6.044  16.825  0.2624 -0.0780 -0.3303
   17DOPE    HA 2081   2.213   6.100  16.884  0.6992 -0.1800  0.3254
   17DOPE    HB 2082   2.252   5.943  16.794 -0.5472  0.3360 -0.7739
   17DOPE    C2 2083   2.296   6.130  16.692  0.0553 -0.0382  0.4533
   17DOPE    HS 2084   2.195   6.136  16.646 -1.1350  1.7775  3.0195
   17DOPE   O21 2085   2.395   6.068  16.605 -0.4583  0.3724 -0.1617
   17DOPE   C21 2086   2.362   5.956  16.552 -0.0319  1.0867 -0.6157
   17DOPE   O22 2087   2.247   5.904  16.553 -0.6864 -0.3725 -0.0457
   17DOPE   C22 2088   2.477   5.897  16.468 -0.1084  0.3770  0.2336
   17DOPE   H2R 2089   2.521   5.817  16.530  1.3197 -0.3082 -1.5610
   17DOPE   H2S 2090   2.553   5.975  16.446  1.9779 -1.0931  1.9142
   17DOPE    C3 2091   2.326   6.280  16.715 -0.6354  0.0519 -0.0510
   17DOPE    HX 2092   2.426   6.290  16.762  0.2187 -2.1534 -1.2836
   17DOPE    HY 2093   2.267   6.338  16.789  0.1986  1.5926 -0.5510
   17DOPE   O31 2094   2.333   6.356  16.596  0.7818  0.2502 -0.3808
   17DOPE   C31 2095   2.210   6.404  16.550 -0.0432  0.2860 -0.5165
   17DOPE   O32 2096   2.105   6.377  16.609  0.1583  0.5796 -0.1786
   17DOPE   C32 2097   2.222   6.502  16.427  0.2709 -0.0326 -0.2234
   17DOPE   H2X 2098   2.237   6.608  16.455 -1.5355  0.1062  0.3738
   17DOPE   H2Y 2099   2.313   6.459  16.379  1.3287  0.4155  1.3028
   17DOPE   C23 2100   2.417   5.832  16.339  0.2453  0.4738  0.3149
   17DOPE   H3R 2101   2.335   5.762  16.364  0.4392  0.2156  0.2345
   17DOPE   H3S 2102   2.495   5.779  16.280 -1.5195 -0.7467 -1.0415
   17DOPE   C24 2103   2.362   5.920  16.230 -0.2756 -0.2528 -0.0325
   17DOPE   H4R 2104   2.439   5.990  16.188 -1.6868  2.0853  1.0763
   17DOPE   H4S 2105   2.285   5.984  16.278 -1.2345 -1.0279 -0.5133
   17DOPE   C25 2106   2.302   5.833  16.123 -0.0859 -0.8286 -0.5398
   17DOPE   H5R 2107   2.208   5.784  16.155 -1.1174  1.8249  0.7741
   17DOPE   H5S 2108   2.382   5.763  16.090  0.3367  0.1105 -1.6197
   17DOPE   C26 2109   2.273   5.917  15.998  0.5068 -0.3529  0.2970
   17DOPE   H6R 2110   2.178   5.973  16.006 -0.3066 -1.2909 -1.9768
   17DOPE   H6S 2111   2.249   5.840  15.922  0.3928 -2.7327  2.5753
   17DOPE   C27 2112   2.387   6.008  15.948 -0.4150 -0.3159  0.4291
   17DOPE   H7R 2113   2.482   5.952  15.957 -1.1977 -1.8811 -0.5855
   17DOPE   H7S 2114   2.409   6.094  16.015  1.0358  0.2529 -0.7206
   17DOPE   C28 2115   2.385   6.056  15.804  0.6966  0.6087 -0.2312
   17DOPE   H8R 2116   2.375   5.966  15.739  0.0168  0.0826  0.5823
   17DOPE   H8S 2117   2.477   6.114  15.780 -1.4793  3.9355 -1.3773
   17DOPE   C29 2118   2.264   6.149  15.787 -0.3279  0.0714 -0.7477
   17DOPE   H9R 2119   2.282   6.242  15.843 -0.9777  1.2149 -2.3812
   17DOPE  C210 2120   2.171   6.143  15.695  0.8814 -0.1383  0.4649
   17DOPE  H10R 2121   2.114   6.235  15.680  0.1538 -1.1047 -4.1116
   17DOPE  C211 2122   2.148   6.043  15.587 -0.1030  0.5577  0.0211
   17DOPE  H11R 2123   2.052   6.056  15.534  0.2495  2.8304 -0.1635
   17DOPE  H11S 2124   2.151   5.942  15.634  0.4007  1.2873  1.6330
   17DOPE  C212 2125   2.257   6.025  15.484  0.0447  0.2491  0.4322
   17DOPE  H12R 2126   2.222   5.965  15.398  1.4911  2.8804 -2.2010
   17DOPE  H12S 2127   2.337   5.965  15.531  0.4594 -0.5375 -1.1959
   17DOPE  C213 2128   2.317   6.166  15.434 -0.2978 -0.2777 -0.4487
   17DOPE  H13R 2129   2.405   6.147  15.370 -0.5606  0.0532 -0.9157
   17DOPE  H13S 2130   2.346   6.221  15.526  1.3814  0.6208 -1.4825
   17DOPE  C214 2131   2.220   6.240  15.346  0.0404  0.2682 -0.4110
   17DOPE  H14R 2132   2.132   6.273  15.405  0.1823 -1.1509  0.6548
   17DOPE  H14S 2133   2.192   6.169  15.266 -0.7591  0.2959 -0.1698
   17DOPE  C215 2134   2.300   6.364  15.289  0.8084  0.7609 -0.4574
   17DOPE  H15R 2135   2.365   6.319  15.211 -1.2423 -0.1315 -1.7513
   17DOPE  H15S 2136   2.364   6.408  15.369 -0.6016 -0.6947  1.5809
   17DOPE  C216 2137   2.204   6.471  15.238 -0.6470  0.4642  0.2760
   17DOPE  H16R 2138   2.153   6.516  15.326 -0.1910 -1.2681  1.4880
   17DOPE  H16S 2139   2.139   6.422  15.163  2.3843 -1.2143 -1.4548
   17DOPE  C217 2140   2.282   6.582  15.165  0.1010  0.3322  0.4227
   17DOPE  H17R 2141   2.366   6.537  15.109 -1.2591 -1.5145 -0.2526
   17DOPE  H17S 2142   2.314   6.656  15.242  1.4313  0.8978 -0.6421
   17DOPE  C218 2143   2.201   6.651  15.050 -0.3247 -0.2123  0.4962
   17DOPE  H18R 2144   2.171   6.575  14.975  1.4517 -0.8722  0.4114
   17DOPE  H18S 2145   2.260   6.736  15.010 -2.5219 -0.2466 -3.2656
   17DOPE  H18T 2146   2.105   6.690  15.091  0.9629  2.2279  1.3806
   17DOPE   C33 2147   2.100   6.496  16.331 -0.1202  0.0564  0.2219
   17DOPE   H3X 2148   2.010   6.535  16.384  0.0901  2.0693 -0.7986
   17DOPE   H3Y 2149   2.081   6.391  16.302  0.4530 -0.5161  1.8278
   17DOPE   C34 2150   2.136   6.563  16.201  0.0825  0.4077  0.7170
   17DOPE   H4X 2151   2.147   6.672  16.216  1.0314  0.3751  0.2977
   17DOPE   H4Y 2152   2.235   6.523  16.170  0.0541  0.5336  0.4577
   17DOPE   C35 2153   2.026   6.542  16.099 -0.1770 -0.1391  0.3106
   17DOPE   H5X 2154   1.924   6.579  16.125 -0.4440  0.2674 -1.1816
   17DOPE   H5Y 2155   2.015   6.435  16.072 -0.1244  0.9481 -5.1845
   17DOPE   C36 2156   2.075   6.620  15.977  0.5872  0.0623 -0.0484
   17DOPE   H6X 2157   2.161   6.564  15.934  0.2076  0.7570 -1.7925
   17DOPE   H6Y 2158   2.110   6.720  16.009  2.1413 -0.2130 -0.8384
   17DOPE   C37 2159   1.954   6.659  15.884 -0.1843  0.3197  0.3243
   17DOPE   H7X 2160   1.887   6.730  15.937 -1.3630 -0.5015 -0.0101
   17DOPE   H7Y 2161   1.984   6.719  15.795 -0.9066  1.5504  0.8760
   17DOPE   C38 2162   1.885   6.531  15.836  0.1652  0.3359 -0.4799
   17DOPE   H8X 2163   1.848   6.468  15.920 -0.9471  1.6531  0.0494
   17DOPE   H8Y 2164   1.957   6.459  15.792  0.1336  0.3750 -0.5949
   17DOPE   C39 2165   1.783   6.565  15.728  0.3108 -0.9773  0.6604
   17DOPE   H9X 2166   1.691   6.599  15.777 -0.5090 -1.1855 -0.6816
   17DOPE  C310 2167   1.786   6.548  15.598 -0.0607 -1.2321 -0.0813
   17DOPE  H10X 2168   1.705   6.598  15.544  0.7710  1.2258  0.7963
   17DOPE  C311 2169   1.899   6.485  15.519  1.2342 -0.1029 -0.3790
   17DOPE  H11X 2170   1.951   6.566  15.463 -0.0138  1.2565  0.3742
   17DOPE  H11Y 2171   1.969   6.428  15.584  1.2882 -0.9216 -1.1295
   17DOPE  C312 2172   1.850   6.389  15.415 -0.9300  0.0894  0.3288
   17DOPE  H12X 2173   1.924   6.361  15.337 -0.9783  1.4576 -0.2499
   17DOPE  H12Y 2174   1.783   6.445  15.346  1.8507 -1.6936 -4.2558
   17DOPE  C313 2175   1.785   6.258  15.469 -0.2278  0.5468  0.2044
   17DOPE  H13X 2176   1.860   6.193  15.519  0.0668  0.7180 -0.0187
   17DOPE  H13Y 2177   1.712   6.281  15.550  0.9966  1.4093  1.0859
   17DOPE  C314 2178   1.718   6.188  15.356  0.4696 -0.2497  0.7712
   17DOPE  H14X 2179   1.796   6.165  15.280 -0.6080 -2.1696  0.1751
   17DOPE  H14Y 2180   1.635   6.247  15.313 -0.9382  0.3954  4.1130
   17DOPE  C315 2181   1.664   6.053  15.403 -0.1218  0.0583 -0.0295
   17DOPE  H15X 2182   1.599   6.069  15.491 -1.2443 -2.4216 -0.3215
   17DOPE  H15Y 2183   1.759   6.004  15.433  1.4691  2.7581 -0.2967
   17DOPE  C316 2184   1.574   5.986  15.301 -0.4670  0.3250  0.3695
   17DOPE  H16X 2185   1.646   5.966  15.219  1.3349 -0.3389  2.0202
   17DOPE  H16Y 2186   1.495   6.056  15.265 -0.7729 -0.0780  0.2594
   17DOPE  C317 2187   1.518   5.856  15.344 -0.0975 -0.1745 -0.1375
   17DOPE  H17X 2188   1.599   5.800  15.395  0.6175  1.8382  1.0501
   17DOPE  H17Y 2189   1.441   5.874  15.422 -0.6631 -3.0460  0.0762
   17DOPE  C318 2190   1.467   5.775  15.219  0.3517 -0.0177 -0.2202
   17DOPE  H18X 2191   1.448   5.670  15.251  1.1000 -0.3187 -0.7608
   17DOPE  H18Y 2192   1.371   5.817  15.181  0.1909 -2.6082 -3.0205
   17DOPE  H18Z 2193   1.534   5.783  15.131 -1.7131  2.3130 -1.7154
   18DOPE     N 2194   6.811   2.216  17.284 -0.2032 -0.2649 -0.1241
   18DOPE   HN1 2195   6.908   2.238  17.253  0.1367 -0.8927  0.4666
   18DOPE   HN2 2196   6.810   2.198  17.387  0.4795 -1.8144 -0.3523
   18DOPE   HN3 2197   6.780   2.131  17.233 -1.2960  0.6616 -1.0342
   18DOPE   C12 2198   6.722   2.318  17.231 -0.4387 -0.0333 -0.9330
   18DOPE  H12A 2199   6.641   2.335  17.306  0.1777 -1.0376 -0.0040
   18DOPE  H12B 2200   6.655   2.272  17.155 -1.6823 -0.9146  0.6260
   18DOPE   C11 2201   6.796   2.446  17.188 -0.1687  0.2410 -0.5148
   18DOPE  H11A 2202   6.857   2.476  17.275  1.9857 -1.6837 -1.2668
   18DOPE  H11B 2203   6.721   2.528  17.177  0.3397  0.8980  0.7384
   18DOPE     P 2204   6.987   2.505  17.020 -0.3943 -0.3369 -0.5415
   18DOPE   O13 2205   7.083   2.419  16.956  0.5369  0.0330 -0.4074
   18DOPE   O14 2206   7.039   2.587  17.138  0.1494  0.2908  0.6673
   18DOPE   O11 2207   6.918   2.604  16.924 -0.1098 -0.3561 -0.2701
   18DOPE   O12 2208   6.870   2.413  17.071 -0.7765  0.2055  0.3912
   18DOPE    C1 2209   6.789   2.603  16.868  0.9994  0.5783  0.2727
   18DOPE    HA 2210   6.770   2.699  16.814 -1.5490  0.7714  1.3870
   18DOPE    HB 2211   6.705   2.589  16.939 -1.1621  1.3315 -1.9940
   18DOPE    C2 2212   6.774   2.491  16.763 -0.9793  0.4436  0.1305
   18DOPE    HS 2213   6.804   2.393  16.805 -1.0737 -0.2184 -1.2621
   18DOPE   O21 2214   6.856   2.534  16.652 -0.1403 -0.4884 -0.0461
   18DOPE   C21 2215   6.910   2.439  16.585  0.8321 -0.0119 -0.0125
   18DOPE   O22 2216   6.901   2.320  16.611 -0.1498 -0.3699  0.1639
   18DOPE   C22 2217   6.984   2.504  16.471 -0.3983  0.2856 -0.1362
   18DOPE   H2R 2218   7.056   2.580  16.508 -1.2517  0.0597  2.1805
   18DOPE   H2S 2219   6.918   2.565  16.406  0.0845  1.6657  0.6304
   18DOPE    C3 2220   6.621   2.463  16.726 -0.3381 -0.2691  0.2143
   18DOPE    HX 2221   6.578   2.565  16.712  0.7175  0.0953 -0.4987
   18DOPE    HY 2222   6.562   2.413  16.806 -1.0674  0.0256 -0.1281
   18DOPE   O31 2223   6.614   2.396  16.602 -0.2930 -0.0215 -0.2500
   18DOPE   C31 2224   6.600   2.259  16.612 -0.3540 -0.7183 -0.6565
   18DOPE   O32 2225   6.582   2.197  16.716 -0.3361  0.8963 -0.0255
   18DOPE   C32 2226   6.615   2.199  16.471  0.3129 -0.9018  0.8055
   18DOPE   H2X 2227   6.513   2.199  16.428 -0.0001  0.0053  1.5122
   18DOPE   H2Y 2228   6.683   2.259  16.407  1.2218 -1.2667  1.3998
   18DOPE   C23 2229   7.061   2.396  16.388 -0.3998 -0.9366 -0.7455
   18DOPE   H3R 2230   6.986   2.323  16.349 -0.3233 -0.5736 -1.6052
   18DOPE   H3S 2231   7.128   2.338  16.456 -0.3417  0.0102  0.0261
   18DOPE   C24 2232   7.140   2.459  16.276  0.4554 -0.1041 -0.7136
   18DOPE   H4R 2233   7.222   2.388  16.248  2.0835  1.0053  0.9532
   18DOPE   H4S 2234   7.198   2.547  16.312  0.5155 -0.3895 -0.0869
   18DOPE   C25 2235   7.053   2.497  16.159 -0.4627  0.1136  0.0596
   18DOPE   H5R 2236   6.963   2.558  16.182  0.0777  1.5119 -1.3061
   18DOPE   H5S 2237   7.015   2.407  16.106  0.4630 -0.0867 -0.2744
   18DOPE   C26 2238   7.125   2.592  16.061  0.0853 -0.4837  0.0289
   18DOPE   H6R 2239   7.215   2.539  16.022  0.5326  1.6724 -2.1191
   18DOPE   H6S 2240   7.160   2.674  16.127  1.5053 -1.4128  0.4721
   18DOPE   C27 2241   7.034   2.661  15.961 -0.0833  0.2350 -0.4134
   18DOPE   H7R 2242   7.096   2.729  15.898 -1.2991  0.6899 -1.1450
   18DOPE   H7S 2243   6.953   2.712  16.017 -1.0590  1.3530 -2.7097
   18DOPE   C28 2244   6.974   2.562  15.860 -0.5211  0.0412  0.2306
   18DOPE   H8R 2245   6.918   2.487  15.920  1.1424 -0.5769  1.0700
   18DOPE   H8S 2246   7.060   2.506  15.819 -1.6981 -0.0449 -2.3420
   18DOPE   C29 2247   6.902   2.619  15.740  0.0359 -0.0193 -0.1344
   18DOPE   H9R 2248   6.958   2.702  15.694 -2.3546  1.8878  0.1766
   18DOPE  C210 2249   6.774   2.595  15.705  0.0206 -0.8352  0.8053
   18DOPE  H10R 2250   6.729   2.640  15.615  0.1739 -0.5255  0.8826
   18DOPE  C211 2251   6.672   2.508  15.772 -0.3452  0.1535 -0.1903
   18DOPE  H11R 2252   6.726   2.426  15.824  0.8380  0.5286 -0.7926
   18DOPE  H11S 2253   6.596   2.465  15.702 -1.2265  0.6997  0.4028
   18DOPE  C212 2254   6.597   2.597  15.873  0.0824  0.3122 -0.3160
   18DOPE  H12R 2255   6.542   2.679  15.822  0.2750  1.8138  1.7433
   18DOPE  H12S 2256   6.676   2.656  15.925  0.8934  1.1880 -2.3979
   18DOPE  C213 2257   6.516   2.516  15.974  0.2396 -0.2359  0.6357
   18DOPE  H13R 2258   6.564   2.423  16.012  1.3345  0.9936  2.4099
   18DOPE  H13S 2259   6.419   2.477  15.935  0.6812 -0.7576  0.0350
   18DOPE  C214 2260   6.472   2.605  16.090  0.1062  0.4714  0.4810
   18DOPE  H14R 2261   6.402   2.681  16.049  0.6377  1.0628  0.6554
   18DOPE  H14S 2262   6.565   2.658  16.119  0.8823 -0.2210 -0.6561
   18DOPE  C215 2263   6.408   2.531  16.203  0.8569  0.0835  0.1711
   18DOPE  H15R 2264   6.490   2.495  16.269  3.2567  4.0776 -0.3291
   18DOPE  H15S 2265   6.336   2.456  16.165  0.5716  1.1500 -1.5394
   18DOPE  C216 2266   6.326   2.619  16.293  0.0795 -0.0064 -0.0403
   18DOPE  H16R 2267   6.242   2.658  16.232  0.9765 -1.9014 -2.6695
   18DOPE  H16S 2268   6.392   2.702  16.326  1.0629 -0.1235 -1.6228
   18DOPE  C217 2269   6.262   2.546  16.405  0.3717  0.1129 -0.7623
   18DOPE  H17R 2270   6.342   2.511  16.474 -0.3654 -0.1223 -0.0140
   18DOPE  H17S 2271   6.197   2.463  16.370 -0.4047 -0.2663  1.4225
   18DOPE  C218 2272   6.160   2.631  16.489 -0.0828  0.0111 -0.0877
   18DOPE  H18R 2273   6.092   2.572  16.555 -0.9424  0.7038 -0.3382
   18DOPE  H18S 2274   6.088   2.685  16.425 -2.7194 -3.2892 -0.1984
   18DOPE  H18T 2275   6.221   2.696  16.555  0.3650 -1.3442  0.8763
   18DOPE   C33 2276   6.673   2.058  16.476  0.0087  0.2948  0.1023
   18DOPE   H3X 2277   6.610   1.980  16.523 -0.3813  0.6397  0.1553
   18DOPE   H3Y 2278   6.776   2.065  16.517 -0.1064  2.7688  0.0850
   18DOPE   C34 2279   6.717   1.996  16.335 -0.3902  0.2568 -0.3572
   18DOPE   H4X 2280   6.792   2.070  16.298 -1.4883 -0.2035 -3.7653
   18DOPE   H4Y 2281   6.776   1.904  16.356 -1.0615  0.2603  1.7540
   18DOPE   C35 2282   6.598   1.987  16.233  0.2660  0.2212 -0.4207
   18DOPE   H5X 2283   6.539   2.080  16.233 -0.8344 -0.4600 -0.5057
   18DOPE   H5Y 2284   6.522   1.919  16.277 -0.6028  1.8638  0.7439
   18DOPE   C36 2285   6.637   1.930  16.098 -0.2426 -0.0150 -0.3331
   18DOPE   H6X 2286   6.681   1.832  16.125 -1.5147  0.1852  2.9148
   18DOPE   H6Y 2287   6.718   1.988  16.048 -2.8506  2.9881 -1.4157
   18DOPE   C37 2288   6.522   1.895  16.002  0.3814 -0.8410 -0.3004
   18DOPE   H7X 2289   6.557   1.838  15.914 -0.3628  1.0195 -1.8932
   18DOPE   H7Y 2290   6.449   1.827  16.050  0.9113 -1.1918  0.0083
   18DOPE   C38 2291   6.446   2.025  15.936 -0.0682  0.4226 -0.3659
   18DOPE   H8X 2292   6.407   2.104  16.005  0.9009 -0.0431  0.7531
   18DOPE   H8Y 2293   6.358   1.975  15.890 -0.7088  0.2011  1.0457
   18DOPE   C39 2294   6.535   2.101  15.838  1.0844  0.2185  0.8578
   18DOPE   H9X 2295   6.625   2.141  15.886  2.0001 -1.3322  0.5170
   18DOPE  C310 2296   6.522   2.137  15.708 -0.1366  0.0035 -0.3326
   18DOPE  H10X 2297   6.597   2.201  15.658  1.4682 -0.8430  0.9036
   18DOPE  C311 2298   6.411   2.115  15.613 -0.6177  0.0297 -0.7866
   18DOPE  H11X 2299   6.449   2.060  15.524  0.2895  0.1513 -0.4898
   18DOPE  H11Y 2300   6.345   2.040  15.661  0.2552  0.4167  1.1044
   18DOPE  C312 2301   6.327   2.240  15.584 -0.3251  0.8712  0.0090
   18DOPE  H12X 2302   6.266   2.216  15.494  1.1135 -0.0311 -0.7734
   18DOPE  H12Y 2303   6.385   2.334  15.569  1.3532 -0.2104 -0.5958
   18DOPE  C313 2304   6.238   2.272  15.704  0.4511  0.3226  0.1927
   18DOPE  H13X 2305   6.176   2.181  15.720  1.9167 -0.9674 -1.0837
   18DOPE  H13Y 2306   6.291   2.285  15.801 -1.3211  4.2242  0.8387
   18DOPE  C314 2307   6.162   2.405  15.687 -0.4321 -0.3630  0.0382
   18DOPE  H14X 2308   6.129   2.431  15.584 -0.7207  2.1504  0.6909
   18DOPE  H14Y 2309   6.231   2.484  15.725 -1.5222  0.2474  0.8134
   18DOPE  C315 2310   6.031   2.415  15.773  0.9036 -0.2535  0.0552
   18DOPE  H15X 2311   6.056   2.421  15.881 -1.4222  3.9886  0.5773
   18DOPE  H15Y 2312   5.966   2.329  15.746 -1.5735  0.6055  2.7193
   18DOPE  C316 2313   5.969   2.550  15.735  0.2312  0.4748 -0.1210
   18DOPE  H16X 2314   5.964   2.576  15.627  1.8057  1.2804 -0.0279
   18DOPE  H16Y 2315   6.039   2.629  15.770 -0.3431  0.1994  1.7265
   18DOPE  C317 2316   5.839   2.589  15.809  0.0160  0.0638  0.7709
   18DOPE  H17X 2317   5.763   2.520  15.768  0.6040 -0.2897  0.2754
   18DOPE  H17Y 2318   5.852   2.569  15.918 -0.8747  1.1115  1.0911
   18DOPE  C318 2319   5.808   2.741  15.807 -0.5765 -0.2082  0.9916
   18DOPE  H18X 2320   5.733   2.772  15.883 -1.0132 -1.6137  1.1493
   18DOPE  H18Y 2321   5.908   2.789  15.814  0.7845 -1.6047 -4.2888
   18DOPE  H18Z 2322   5.764   2.767  15.708  0.3756 -1.7942  0.1097
   19DOPE     N 2323   5.620   3.144  16.979 -0.2492 -0.6372 -0.5804
   19DOPE   HN1 2324   5.562   3.102  16.903 -2.6331 -0.2095  0.8715
   19DOPE   HN2 2325   5.720   3.151  16.953 -0.4451 -2.5625 -2.0623
   19DOPE   HN3 2326   5.619   3.080  17.061  3.3000  0.2090  0.2999
   19DOPE   C12 2327   5.560   3.279  17.009 -0.4823  0.0809 -0.3108
   19DOPE  H12A 2328   5.568   3.296  17.118 -2.2875 -1.6153  0.1517
   19DOPE  H12B 2329   5.452   3.260  16.992  0.1129 -1.4712 -2.9768
   19DOPE   C11 2330   5.613   3.390  16.923 -0.0612  0.4118  0.0108
   19DOPE  H11A 2331   5.548   3.479  16.937 -0.5816  0.1324 -0.6164
   19DOPE  H11B 2332   5.598   3.349  16.821 -1.2255  0.5095  0.1253
   19DOPE     P 2333   5.882   3.347  16.920 -0.0286 -0.5149 -0.0991
   19DOPE   O13 2334   5.865   3.204  16.954  0.1181  0.0990 -0.0590
   19DOPE   O14 2335   5.994   3.420  16.974 -0.1067  0.0248 -0.2502
   19DOPE   O11 2336   5.896   3.361  16.763  0.0615  0.6267 -0.5495
   19DOPE   O12 2337   5.750   3.428  16.953 -0.2960  0.4590  0.5549
   19DOPE    C1 2338   5.906   3.493  16.702 -0.4125  0.5133  0.2903
   19DOPE    HA 2339   6.017   3.504  16.695  0.1765 -3.1553  1.6062
   19DOPE    HB 2340   5.865   3.575  16.765  0.6508  0.6921  0.7909
   19DOPE    C2 2341   5.852   3.489  16.563  0.5304  0.6379  0.1012
   19DOPE    HS 2342   5.749   3.447  16.562  1.1468 -0.9930  0.9699
   19DOPE   O21 2343   5.932   3.404  16.483 -0.1195 -0.2867  0.6792
   19DOPE   C21 2344   5.876   3.303  16.415 -0.5743 -0.1012 -0.3035
   19DOPE   O22 2345   5.761   3.298  16.383  0.4705 -0.5246 -0.0483
   19DOPE   C22 2346   5.981   3.213  16.361  0.0961  0.1213 -0.2409
   19DOPE   H2R 2347   6.044   3.183  16.447  1.3143 -2.7041 -1.9918
   19DOPE   H2S 2348   6.058   3.274  16.309  0.0979  1.1744  0.9660
   19DOPE    C3 2349   5.843   3.637  16.512 -0.2842  0.3704  0.1827
   19DOPE    HX 2350   5.945   3.680  16.514  1.0366 -2.4889  3.0683
   19DOPE    HY 2351   5.778   3.699  16.578  0.0671 -0.5816  1.4675
   19DOPE   O31 2352   5.797   3.646  16.378  0.3205 -0.7072  0.8362
   19DOPE   C31 2353   5.667   3.619  16.356 -0.0991  0.9172  0.1909
   19DOPE   O32 2354   5.583   3.583  16.438  0.9086  0.0318  0.0573
   19DOPE   C32 2355   5.639   3.613  16.202 -0.0971 -0.3179  0.0677
   19DOPE   H2X 2356   5.713   3.676  16.148 -1.6315 -0.5237 -2.4290
   19DOPE   H2Y 2357   5.651   3.509  16.166  0.9478 -0.1721 -0.0336
   19DOPE   C23 2358   5.910   3.101  16.291  0.0292  0.0770 -0.2346
   19DOPE   H3R 2359   5.843   3.127  16.206  0.6861 -0.4027 -0.9114
   19DOPE   H3S 2360   5.840   3.044  16.356  1.7985 -2.5700 -0.5263
   19DOPE   C24 2361   6.011   3.003  16.251 -0.7887 -0.3652 -0.4878
   19DOPE   H4R 2362   5.971   2.901  16.231  3.7563 -2.6756  0.8114
   19DOPE   H4S 2363   6.093   2.986  16.324 -1.5326  0.0494  0.4634
   19DOPE   C25 2364   6.066   3.061  16.118 -0.1634  0.2269 -0.7715
   19DOPE   H5R 2365   6.102   3.165  16.134 -1.0361  0.3426  0.5093
   19DOPE   H5S 2366   5.988   3.051  16.039 -1.4056 -0.9987  0.5588
   19DOPE   C26 2367   6.194   2.988  16.072  0.3862  0.1587  0.4555
   19DOPE   H6R 2368   6.174   2.879  16.066  1.5669 -0.0242 -0.4216
   19DOPE   H6S 2369   6.275   3.005  16.146  0.4854 -0.0908  0.4021
   19DOPE   C27 2370   6.245   3.034  15.938 -0.6239 -0.1836  0.2375
   19DOPE   H7R 2371   6.275   3.141  15.928  0.6482 -0.4956  0.5931
   19DOPE   H7S 2372   6.170   3.021  15.857  0.7747 -1.7349 -0.8624
   19DOPE   C28 2373   6.360   2.949  15.884  0.7185  0.5837  0.2250
   19DOPE   H8R 2374   6.362   2.960  15.774 -1.9338 -0.3805  0.0164
   19DOPE   H8S 2375   6.334   2.842  15.898  0.5296  0.5714 -0.1961
   19DOPE   C29 2376   6.484   2.973  15.954 -0.3111  0.6417 -0.7042
   19DOPE   H9R 2377   6.484   2.936  16.057 -3.4014  2.9104  0.2287
   19DOPE  C210 2378   6.599   3.026  15.915 -0.7554  0.2564  0.4481
   19DOPE  H10R 2379   6.673   3.046  15.994  1.0120  1.4151 -1.4006
   19DOPE  C211 2380   6.628   3.079  15.782  0.0781  0.4532 -0.2705
   19DOPE  H11R 2381   6.671   3.181  15.791  2.1571 -0.3631 -0.2089
   19DOPE  H11S 2382   6.534   3.086  15.724  0.2054 -2.3052 -0.9628
   19DOPE  C212 2383   6.725   2.989  15.704  0.5841  0.3256  0.3143
   19DOPE  H12R 2384   6.671   2.895  15.681 -1.7390  1.0456  2.4478
   19DOPE  H12S 2385   6.814   2.963  15.765 -0.1586 -1.1255  0.8152
   19DOPE  C213 2386   6.754   3.063  15.575  0.1379  0.0465 -0.7752
   19DOPE  H13R 2387   6.668   3.124  15.539  1.1922  2.5974  0.7809
   19DOPE  H13S 2388   6.794   2.989  15.503  0.8440  0.2659 -0.6155
   19DOPE  C214 2389   6.874   3.158  15.590  0.3567 -0.1598  0.5517
   19DOPE  H14R 2390   6.962   3.102  15.628  2.2078  2.7824  0.8971
   19DOPE  H14S 2391   6.856   3.236  15.668  0.2270 -0.3616  0.7242
   19DOPE  C215 2392   6.923   3.219  15.457 -0.7630  0.6658 -0.3280
   19DOPE  H15R 2393   6.844   3.289  15.422  0.6141  2.1359 -0.6294
   19DOPE  H15S 2394   6.947   3.134  15.390 -1.0263  0.8017 -0.5974
   19DOPE  C216 2395   7.050   3.305  15.479  0.1058 -0.4404 -0.1699
   19DOPE  H16R 2396   7.026   3.373  15.564 -0.2111  0.8185 -1.2289
   19DOPE  H16S 2397   7.068   3.368  15.389 -0.6435  0.9300  0.5989
   19DOPE  C217 2398   7.177   3.223  15.520  0.2478 -1.0222 -0.5874
   19DOPE  H17R 2399   7.164   3.163  15.612 -2.8868  2.8428  1.8419
   19DOPE  H17S 2400   7.257   3.296  15.542 -1.1709  0.7811 -1.1435
   19DOPE  C218 2401   7.223   3.127  15.406 -0.7325 -0.3723 -0.3957
   19DOPE  H18R 2402   7.156   3.047  15.369  1.1345 -1.5161 -1.4753
   19DOPE  H18S 2403   7.319   3.080  15.435 -1.1995 -1.1167 -0.0465
   19DOPE  H18T 2404   7.252   3.194  15.322 -0.4504 -0.4469 -0.3607
   19DOPE   C33 2405   5.512   3.688  16.165 -0.2701 -0.3283 -0.0674
   19DOPE   H3X 2406   5.519   3.798  16.176 -0.9787 -0.1921 -0.9074
   19DOPE   H3Y 2407   5.422   3.650  16.219 -1.5149 -0.1017 -1.8859
   19DOPE   C34 2408   5.466   3.668  16.017  0.1715  0.4556  0.0917
   19DOPE   H4X 2409   5.478   3.559  15.994 -0.8743  0.1981  0.7114
   19DOPE   H4Y 2410   5.359   3.693  16.006  0.1979  0.3722 -0.4303
   19DOPE   C35 2411   5.542   3.738  15.908 -0.1658 -0.2598  0.2934
   19DOPE   H5X 2412   5.649   3.706  15.908 -0.1942 -0.3898  1.6483
   19DOPE   H5Y 2413   5.539   3.848  15.924 -0.5628 -0.4353  1.5545
   19DOPE   C36 2414   5.480   3.720  15.769  0.8588  0.1288 -0.0045
   19DOPE   H6X 2415   5.370   3.735  15.775  1.1223  1.6233  2.3586
   19DOPE   H6Y 2416   5.510   3.621  15.729  1.5571  0.3578 -0.0588
   19DOPE   C37 2417   5.524   3.830  15.669  0.9762 -0.1024  0.6439
   19DOPE   H7X 2418   5.494   3.930  15.708 -1.7968 -0.9343  0.9171
   19DOPE   H7Y 2419   5.634   3.827  15.658  0.6847  0.0640 -3.9529
   19DOPE   C38 2420   5.467   3.817  15.521 -0.1667 -0.3612 -0.1515
   19DOPE   H8X 2421   5.520   3.892  15.458 -0.1308 -0.5420 -0.3367
   19DOPE   H8Y 2422   5.361   3.848  15.528  0.0596  0.3770  0.0770
   19DOPE   C39 2423   5.476   3.678  15.459 -0.9463 -0.5239 -0.4941
   19DOPE   H9X 2424   5.582   3.651  15.444 -0.8563 -0.0449 -0.7274
   19DOPE  C310 2425   5.375   3.599  15.419 -0.2941  0.5867  0.2975
   19DOPE  H10X 2426   5.406   3.499  15.388  0.2925  1.2084 -1.1991
   19DOPE  C311 2427   5.228   3.643  15.424  0.3685 -0.0255  0.1810
   19DOPE  H11X 2428   5.219   3.707  15.515 -1.5235  0.0874 -0.0369
   19DOPE  H11Y 2429   5.203   3.703  15.334 -2.1030 -2.6852 -1.0745
   19DOPE  C312 2430   5.130   3.519  15.438 -0.0517 -0.0396 -0.0374
   19DOPE  H12X 2431   5.137   3.458  15.346 -3.1698  2.1586 -1.9314
   19DOPE  H12Y 2432   5.030   3.566  15.451 -0.7688 -1.8552  1.4217
   19DOPE  C313 2433   5.146   3.429  15.562  0.0490  0.3640 -0.2360
   19DOPE  H13X 2434   5.052   3.372  15.555  1.2848 -1.9655  1.0445
   19DOPE  H13Y 2435   5.232   3.361  15.543 -0.4088 -0.6424  1.1768
   19DOPE  C314 2436   5.148   3.488  15.703 -0.1897 -0.1048  0.1502
   19DOPE  H14X 2437   5.061   3.555  15.721  0.0182 -0.1046  1.2261
   19DOPE  H14Y 2438   5.238   3.553  15.707 -1.2294  2.0447 -4.7088
   19DOPE  C315 2439   5.141   3.382  15.818  0.0265  0.0938 -0.7534
   19DOPE  H15X 2440   5.213   3.299  15.801 -0.1754 -0.1286 -0.5209
   19DOPE  H15Y 2441   5.036   3.346  15.814  0.4322 -1.4282  1.0047
   19DOPE  C316 2442   5.176   3.453  15.950  0.0956  0.9848 -0.4750
   19DOPE  H16X 2443   5.145   3.559  15.953 -3.3583  0.0957  1.4046
   19DOPE  H16Y 2444   5.286   3.451  15.962  0.2165 -0.3408 -1.5102
   19DOPE  C317 2445   5.114   3.383  16.074  0.0365  0.3630 -0.5311
   19DOPE  H17X 2446   5.005   3.402  16.084 -0.0950 -1.1820  1.8245
   19DOPE  H17Y 2447   5.112   3.274  16.053 -1.6692  0.6154 -1.8806
   19DOPE  C318 2448   5.184   3.416  16.208 -0.4042  0.1686  0.2604
   19DOPE  H18X 2449   5.201   3.526  16.212 -0.3596  0.3583 -2.6233
   19DOPE  H18Y 2450   5.131   3.368  16.292 -0.5584 -2.8482 -1.4341
   19DOPE  H18Z 2451   5.285   3.369  16.210 -0.5527 -0.1491  2.1444
   20DOPE     N 2452   4.510   6.172  17.231  0.0318  0.2955 -0.5038
   20DOPE   HN1 2453   4.511   6.247  17.159  0.1303 -0.3545 -1.1820
   20DOPE   HN2 2454   4.566   6.095  17.190  0.9540 -0.4511  1.9939
   20DOPE   HN3 2455   4.410   6.150  17.248  0.1799 -2.4465 -2.4852
   20DOPE   C12 2456   4.578   6.227  17.355  0.3597 -0.5676 -0.0988
   20DOPE  H12A 2457   4.600   6.150  17.432  0.0535  0.7828  1.3915
   20DOPE  H12B 2458   4.511   6.301  17.404  0.6907 -1.9517  2.6254
   20DOPE   C11 2459   4.709   6.288  17.303  0.1100 -0.0553 -0.1408
   20DOPE  H11A 2460   4.757   6.207  17.244  0.2428 -1.7701  2.1860
   20DOPE  H11B 2461   4.767   6.293  17.398 -0.3979 -1.2740  0.2581
   20DOPE     P 2462   4.832   6.493  17.208 -0.1141 -0.3074  0.7416
   20DOPE   O13 2463   4.908   6.530  17.331 -0.3299  1.5236  0.4431
   20DOPE   O14 2464   4.800   6.613  17.126  0.0037  0.2879 -0.2164
   20DOPE   O11 2465   4.907   6.386  17.120  0.2167 -0.2526 -0.0611
   20DOPE   O12 2466   4.699   6.420  17.244  0.4146 -0.1596  0.3589
   20DOPE    C1 2467   4.846   6.326  17.004  0.3945 -0.1307  0.0099
   20DOPE    HA 2468   4.844   6.399  16.920 -0.5884 -2.8903 -2.5506
   20DOPE    HB 2469   4.750   6.282  17.039  0.7023 -1.1311 -0.3928
   20DOPE    C2 2470   4.926   6.200  16.958 -0.5798 -0.1730  0.5513
   20DOPE    HS 2471   4.940   6.138  17.049  0.9690 -2.1502 -0.9339
   20DOPE   O21 2472   5.055   6.248  16.909  0.1884  0.5094 -0.2547
   20DOPE   C21 2473   5.140   6.147  16.885 -0.2104  0.8194 -0.3181
   20DOPE   O22 2474   5.125   6.030  16.927 -0.2820  0.1418  0.2910
   20DOPE   C22 2475   5.264   6.187  16.801 -1.1017 -0.0791  0.0191
   20DOPE   H2R 2476   5.319   6.092  16.779 -1.1040 -0.3018  0.9393
   20DOPE   H2S 2477   5.335   6.257  16.850  0.6881 -0.9053 -1.2611
   20DOPE    C3 2478   4.850   6.121  16.844  0.0874  0.1429  0.4150
   20DOPE    HX 2479   4.750   6.085  16.875 -1.2992 -0.1973 -3.7529
   20DOPE    HY 2480   4.909   6.030  16.820 -2.3838 -1.4655  0.1392
   20DOPE   O31 2481   4.843   6.195  16.718 -0.4174  1.0145  0.3108
   20DOPE   C31 2482   4.728   6.259  16.688  0.6318 -1.2183 -0.1121
   20DOPE   O32 2483   4.632   6.260  16.766  0.3764  0.3535 -0.2391
   20DOPE   C32 2484   4.721   6.319  16.547 -0.0799  0.0242 -0.0868
   20DOPE   H2X 2485   4.665   6.241  16.491 -0.4862  0.5140 -0.3667
   20DOPE   H2Y 2486   4.662   6.413  16.550  2.5970  1.8051  0.6188
   20DOPE   C23 2487   5.224   6.249  16.666 -0.0494  0.3272  0.3663
   20DOPE   H3R 2488   5.140   6.319  16.686  0.1677  1.3238 -1.9438
   20DOPE   H3S 2489   5.185   6.157  16.616 -0.4594  0.3473  0.6423
   20DOPE   C24 2490   5.338   6.314  16.594 -0.9649 -0.0522 -1.0941
   20DOPE   H4R 2491   5.389   6.230  16.542 -0.7453 -0.9866  0.5606
   20DOPE   H4S 2492   5.400   6.379  16.659  0.0298  2.2315 -4.1329
   20DOPE   C25 2493   5.290   6.420  16.495 -0.8365 -0.3569 -0.2317
   20DOPE   H5R 2494   5.236   6.496  16.556 -1.3872  1.1585 -2.4687
   20DOPE   H5S 2495   5.213   6.385  16.422  0.3541 -0.1550 -1.6416
   20DOPE   C26 2496   5.403   6.481  16.406  0.2346 -0.3918 -0.3918
   20DOPE   H6R 2497   5.480   6.535  16.465 -1.2665  0.6797  0.6505
   20DOPE   H6S 2498   5.360   6.562  16.343 -1.9866 -1.2397 -0.0526
   20DOPE   C27 2499   5.463   6.376  16.310 -0.4511  0.4029 -0.1427
   20DOPE   H7R 2500   5.398   6.287  16.299 -0.4404  0.4815 -0.9056
   20DOPE   H7S 2501   5.565   6.341  16.337  0.0752 -0.2894 -2.7375
   20DOPE   C28 2502   5.478   6.435  16.165  0.2675 -0.9561  0.0633
   20DOPE   H8R 2503   5.509   6.541  16.171 -1.8842 -0.3034  0.5150
   20DOPE   H8S 2504   5.382   6.437  16.110  0.7776  0.2912 -0.8187
   20DOPE   C29 2505   5.574   6.363  16.073 -0.7055 -0.0670  0.2814
   20DOPE   H9R 2506   5.678   6.386  16.099 -0.5417  0.7389 -0.9945
   20DOPE  C210 2507   5.543   6.294  15.964  1.1590  0.5209 -0.0278
   20DOPE  H10R 2508   5.622   6.237  15.913  1.7626  0.3291  1.0846
   20DOPE  C211 2509   5.401   6.253  15.917 -0.0158 -0.0971  0.1484
   20DOPE  H11R 2510   5.318   6.277  15.988 -1.1757  0.5502 -1.3685
   20DOPE  H11S 2511   5.399   6.146  15.888  0.7581 -0.1403  0.2237
   20DOPE  C212 2512   5.360   6.346  15.796 -0.7055  0.2237 -0.2245
   20DOPE  H12R 2513   5.367   6.451  15.833  0.9266  0.3480 -0.7977
   20DOPE  H12S 2514   5.256   6.324  15.764 -1.2324 -0.2564  1.6842
   20DOPE  C213 2515   5.440   6.341  15.667 -0.2484  0.5268 -0.8099
   20DOPE  H13R 2516   5.411   6.245  15.621 -0.1454  0.3851 -0.5798
   20DOPE  H13S 2517   5.548   6.339  15.695 -0.5192  2.5619  0.6777
   20DOPE  C214 2518   5.426   6.468  15.579  0.4459  0.0978  1.0780
   20DOPE  H14R 2519   5.489   6.546  15.626  0.6129 -0.2408  1.4231
   20DOPE  H14S 2520   5.321   6.504  15.588 -0.0940 -1.5312  1.6208
   20DOPE  C215 2521   5.451   6.451  15.426 -0.6116 -0.0729  0.1524
   20DOPE  H15R 2522   5.374   6.383  15.382 -0.5232  0.1632 -0.3626
   20DOPE  H15S 2523   5.553   6.409  15.413 -0.9438 -0.6217 -0.7354
   20DOPE  C216 2524   5.447   6.591  15.367  0.0521 -0.3803  0.9496
   20DOPE  H16R 2525   5.533   6.650  15.405  0.9674  0.8255 -2.6620
   20DOPE  H16S 2526   5.346   6.624  15.399  0.1943  0.9981  0.0269
   20DOPE  C217 2527   5.451   6.591  15.216  0.2937  0.3168 -0.0106
   20DOPE  H17R 2528   5.388   6.503  15.194 -0.0042  0.1747  1.3183
   20DOPE  H17S 2529   5.558   6.579  15.189  0.1605  2.2105 -1.5935
   20DOPE  C218 2530   5.411   6.722  15.153  0.1476 -0.1893 -0.2681
   20DOPE  H18R 2531   5.306   6.751  15.176 -1.6323 -3.0945 -3.8379
   20DOPE  H18S 2532   5.430   6.729  15.044  2.4310  1.4682  0.1450
   20DOPE  H18T 2533   5.473   6.803  15.198 -0.5590  0.4012 -0.3278
   20DOPE   C33 2534   4.858   6.342  16.481 -0.4704 -0.6519 -0.8173
   20DOPE   H3X 2535   4.920   6.250  16.488  1.4104  0.6775  2.0963
   20DOPE   H3Y 2536   4.908   6.424  16.538 -1.2579  0.0138 -1.0662
   20DOPE   C34 2537   4.841   6.363  16.331 -0.0393  0.3043 -0.3023
   20DOPE   H4X 2538   4.746   6.420  16.319 -1.1484 -1.3778  0.0991
   20DOPE   H4Y 2539   4.922   6.423  16.284  0.5130 -2.2649 -2.9471
   20DOPE   C35 2540   4.821   6.236  16.262  0.6136 -0.9195  0.7157
   20DOPE   H5X 2541   4.737   6.179  16.308  1.5172 -3.5252 -0.6800
   20DOPE   H5Y 2542   4.917   6.181  16.262  1.5306  0.6118  0.4579
   20DOPE   C36 2543   4.797   6.273  16.117 -0.4762 -0.1810  0.2017
   20DOPE   H6X 2544   4.711   6.341  16.101 -1.3440 -1.0999  0.7772
   20DOPE   H6Y 2545   4.798   6.182  16.053 -1.9136 -0.3669  0.4198
   20DOPE   C37 2546   4.908   6.350  16.041  0.1965  0.2665  0.0761
   20DOPE   H7X 2547   4.895   6.460  16.051 -0.6462  0.3458 -1.6030
   20DOPE   H7Y 2548   4.995   6.304  16.094 -2.8498 -1.8948  3.7134
   20DOPE   C38 2549   4.920   6.318  15.895  0.6613  0.4305  0.2883
   20DOPE   H8X 2550   4.906   6.208  15.890 -0.3443  0.4688  1.5910
   20DOPE   H8Y 2551   5.026   6.324  15.863  0.2808  0.5119 -1.0463
   20DOPE   C39 2552   4.821   6.398  15.816  0.0364  0.1423  0.1963
   20DOPE   H9X 2553   4.727   6.427  15.867 -0.7427 -1.5668 -0.2159
   20DOPE  C310 2554   4.860   6.479  15.713  0.2887 -0.3045 -0.6621
   20DOPE  H10X 2555   4.780   6.538  15.667  1.1036  0.2411 -1.4013
   20DOPE  C311 2556   4.992   6.487  15.646  0.1831  0.3336  0.1538
   20DOPE  H11X 2557   5.057   6.568  15.686  3.1254 -0.6210 -2.2851
   20DOPE  H11Y 2558   5.063   6.406  15.672  0.0803  0.1320 -0.1919
   20DOPE  C312 2559   4.986   6.513  15.493  0.0949 -1.2943  0.0090
   20DOPE  H12X 2560   4.929   6.431  15.443 -0.3853 -1.0599  0.1603
   20DOPE  H12Y 2561   5.089   6.516  15.452 -0.3171 -1.8058 -1.1115
   20DOPE  C313 2562   4.922   6.654  15.463  0.3400 -0.6301 -0.1973
   20DOPE  H13X 2563   4.822   6.639  15.417 -0.0655 -0.7452  0.7092
   20DOPE  H13Y 2564   4.919   6.718  15.554 -0.1204 -0.1967 -0.5130
   20DOPE  C314 2565   4.994   6.739  15.354  0.0711 -0.1557 -0.4344
   20DOPE  H14X 2566   4.997   6.684  15.257  1.7160 -0.2570 -0.3426
   20DOPE  H14Y 2567   5.099   6.754  15.384 -0.2324  1.5233 -0.0930
   20DOPE  C315 2568   4.934   6.880  15.332  0.6884 -0.2779  0.1321
   20DOPE  H15X 2569   5.009   6.948  15.286 -0.7835  1.5337  0.2575
   20DOPE  H15Y 2570   4.900   6.924  15.429  1.2129  0.7431 -0.1309
   20DOPE  C316 2571   4.809   6.878  15.239 -0.1722  0.0602  0.4053
   20DOPE  H16X 2572   4.717   6.828  15.278 -0.5355  1.4146  1.3725
   20DOPE  H16Y 2573   4.844   6.839  15.142 -0.9327 -0.2891  0.2664
   20DOPE  C317 2574   4.767   7.022  15.221 -0.2967  0.5944  0.4684
   20DOPE  H17X 2575   4.728   7.054  15.320 -0.4348  0.4192  0.4728
   20DOPE  H17Y 2576   4.853   7.085  15.191 -1.5123  2.1367  0.1158
   20DOPE  C318 2577   4.651   7.031  15.123 -0.2746 -0.3091  0.4757
   20DOPE  H18X 2578   4.690   7.004  15.023  0.9916  2.1611  0.2234
   20DOPE  H18Y 2579   4.568   6.959  15.137  0.0405 -1.8685 -3.9674
   20DOPE  H18Z 2580   4.611   7.133  15.099 -0.9413 -0.8042 -0.6167
   21DOPE     N 2581   2.871   7.025  17.011  0.4362 -0.2180 -0.5341
   21DOPE   HN1 2582   2.835   7.085  16.934  0.4148 -1.3799 -1.4549
   21DOPE   HN2 2583   2.957   6.977  16.979  2.3413  1.3179  1.9603
   21DOPE   HN3 2584   2.811   6.946  17.041 -0.9044  1.7337  2.3322
   21DOPE   C12 2585   2.908   7.110  17.130  0.7576  0.3915  0.4362
   21DOPE  H12A 2586   2.962   7.197  17.086 -2.6690  2.4534 -0.0175
   21DOPE  H12B 2587   2.964   7.045  17.201  0.6477 -1.0492 -0.7406
   21DOPE   C11 2588   2.778   7.166  17.195 -0.2807  0.0162 -0.4133
   21DOPE  H11A 2589   2.721   7.236  17.131  1.7015  2.3567  0.2246
   21DOPE  H11B 2590   2.809   7.217  17.289  0.7976 -0.1067 -0.6838
   21DOPE     P 2591   2.550   7.051  17.251 -0.1267 -0.0214 -0.0175
   21DOPE   O13 2592   2.516   7.126  17.379  0.7364  0.6323 -0.0638
   21DOPE   O14 2593   2.500   6.915  17.223  0.4591 -0.2665  0.8148
   21DOPE   O11 2594   2.514   7.151  17.133 -0.2278  0.1609 -0.0266
   21DOPE   O12 2595   2.706   7.051  17.232  0.1327  0.1469  0.1610
   21DOPE    C1 2596   2.408   7.139  17.046  0.3487  0.6022  0.0554
   21DOPE    HA 2597   2.314   7.168  17.097  0.2188  1.9958 -0.9141
   21DOPE    HB 2598   2.389   7.039  17.003  0.8475  0.4585  0.1568
   21DOPE    C2 2599   2.431   7.237  16.929 -0.8237 -0.3910  0.2870
   21DOPE    HS 2600   2.337   7.248  16.872  1.0461 -0.9090 -3.2244
   21DOPE   O21 2601   2.533   7.175  16.846 -0.0497 -0.4394 -0.1281
   21DOPE   C21 2602   2.484   7.089  16.763  0.1470  0.4541  0.2849
   21DOPE   O22 2603   2.368   7.063  16.741 -0.1407 -0.0308 -0.2419
   21DOPE   C22 2604   2.606   7.026  16.689 -1.1893 -0.3306 -0.3649
   21DOPE   H2R 2605   2.667   6.972  16.765 -0.0277 -0.4576 -1.3480
   21DOPE   H2S 2606   2.674   7.111  16.666 -0.1357 -1.3673 -1.2153
   21DOPE    C3 2607   2.477   7.374  16.975  0.4560  0.1741  0.0638
   21DOPE    HX 2608   2.584   7.373  17.004  0.2805  0.2044  0.7289
   21DOPE    HY 2609   2.435   7.390  17.077 -2.3987 -1.7916 -0.6964
   21DOPE   O31 2610   2.447   7.486  16.887  0.4185 -0.2120 -0.3174
   21DOPE   C31 2611   2.525   7.495  16.778 -0.2835  0.0940  0.3173
   21DOPE   O32 2612   2.618   7.423  16.757 -0.0882  0.2258  0.4434
   21DOPE   C32 2613   2.476   7.618  16.692 -0.0897 -0.5838 -0.1216
   21DOPE   H2X 2614   2.379   7.650  16.736  1.6374  0.6666  3.0980
   21DOPE   H2Y 2615   2.541   7.703  16.721 -1.4215  0.0948  0.9911
   21DOPE   C23 2616   2.565   6.950  16.562 -0.4556 -0.0550 -0.1262
   21DOPE   H3R 2617   2.498   7.010  16.497 -0.3235 -0.4215 -0.6081
   21DOPE   H3S 2618   2.505   6.859  16.586  0.2066 -0.5081 -0.1651
   21DOPE   C24 2619   2.688   6.900  16.478  0.4286  0.0219 -0.4632
   21DOPE   H4R 2620   2.725   6.805  16.522 -1.3808  0.3838  2.0553
   21DOPE   H4S 2621   2.766   6.979  16.487  0.3104  0.0918 -0.0310
   21DOPE   C25 2622   2.643   6.858  16.339  0.5473  0.0237  0.2795
   21DOPE   H5R 2623   2.563   6.927  16.304  2.0027  1.4413 -0.3820
   21DOPE   H5S 2624   2.585   6.765  16.354 -2.6119  2.0954  2.1540
   21DOPE   C26 2625   2.750   6.835  16.230  0.5714  0.1649 -0.1805
   21DOPE   H6R 2626   2.849   6.797  16.264  2.4074  2.0321 -3.0534
   21DOPE   H6S 2627   2.768   6.936  16.188  1.1928  0.8625  1.6512
   21DOPE   C27 2628   2.707   6.742  16.118 -0.5876 -0.1322  0.4415
   21DOPE   H7R 2629   2.596   6.742  16.109 -0.6186  2.6033  0.1428
   21DOPE   H7S 2630   2.744   6.641  16.146 -0.3857  0.2142  1.4887
   21DOPE   C28 2631   2.761   6.777  15.978  0.2186  1.1132  0.8980
   21DOPE   H8R 2632   2.771   6.680  15.925  0.8397  1.5632  0.1628
   21DOPE   H8S 2633   2.861   6.816  16.005  1.6566 -0.9890 -0.9803
   21DOPE   C29 2634   2.670   6.859  15.898 -0.7412 -0.0607  0.0457
   21DOPE   H9R 2635   2.588   6.907  15.952 -2.5005 -0.6244 -2.0034
   21DOPE  C210 2636   2.689   6.887  15.765 -0.0771  0.2501  0.6206
   21DOPE  H10R 2637   2.626   6.960  15.713  1.0488 -0.4766 -1.9462
   21DOPE  C211 2638   2.788   6.820  15.672  0.1832 -0.1762 -0.0725
   21DOPE  H11R 2639   2.828   6.728  15.721  0.8602  1.1386  1.9576
   21DOPE  H11S 2640   2.869   6.889  15.641 -0.4752  0.5213 -0.2614
   21DOPE  C212 2641   2.716   6.771  15.548  0.0144 -0.1128  0.4206
   21DOPE  H12R 2642   2.666   6.851  15.489 -0.2566 -1.4340 -1.2239
   21DOPE  H12S 2643   2.644   6.696  15.586 -0.8236  0.3635 -0.1976
   21DOPE  C213 2644   2.809   6.703  15.445  0.4229  0.0456 -1.0150
   21DOPE  H13R 2645   2.849   6.608  15.488  2.2031  1.2763  0.1671
   21DOPE  H13S 2646   2.900   6.766  15.434 -0.1508  1.3055  1.0302
   21DOPE  C214 2647   2.728   6.683  15.315 -0.1177 -0.0948  0.3344
   21DOPE  H14R 2648   2.627   6.647  15.345 -1.9640  1.5781 -3.2375
   21DOPE  H14S 2649   2.774   6.600  15.257  0.1928 -0.9258  1.7081
   21DOPE  C215 2650   2.697   6.803  15.232  0.2441 -1.0303 -0.5174
   21DOPE  H15R 2651   2.793   6.857  15.218 -1.1952  1.5047 -1.0773
   21DOPE  H15S 2652   2.634   6.878  15.285  1.4221 -0.4118  0.0494
   21DOPE  C216 2653   2.640   6.779  15.093 -0.1197 -0.2615 -0.0761
   21DOPE  H16R 2654   2.551   6.716  15.113 -1.3624  0.7416 -2.1564
   21DOPE  H16S 2655   2.715   6.722  15.034  0.8074  1.2059 -0.3782
   21DOPE  C217 2656   2.615   6.915  15.020 -0.4516  0.1855  0.9056
   21DOPE  H17R 2657   2.703   6.982  15.031  0.6514 -1.2360  1.0774
   21DOPE  H17S 2658   2.530   6.960  15.076 -1.7385 -0.2720 -0.6241
   21DOPE  C218 2659   2.574   6.912  14.875 -0.0633  1.2187 -0.2722
   21DOPE  H18R 2660   2.649   6.867  14.807 -1.1599 -0.5833 -0.3360
   21DOPE  H18S 2661   2.556   7.016  14.840 -1.9203  1.5059  1.3328
   21DOPE  H18T 2662   2.480   6.855  14.864  0.2767 -0.2755  3.1827
   21DOPE   C33 2663   2.459   7.594  16.543  0.0018 -0.2137  0.2163
   21DOPE   H3X 2664   2.557   7.566  16.498  0.1863  1.5704 -0.5741
   21DOPE   H3Y 2665   2.420   7.685  16.493 -0.6012 -1.4654 -1.6996
   21DOPE   C34 2666   2.357   7.479  16.515 -0.0484 -0.1111  0.3572
   21DOPE   H4X 2667   2.382   7.385  16.567  1.8525 -1.3272 -2.5088
   21DOPE   H4Y 2668   2.259   7.519  16.551  1.4964  1.2995  3.3391
   21DOPE   C35 2669   2.343   7.442  16.371 -0.5744  0.3184  0.5890
   21DOPE   H5X 2670   2.353   7.532  16.308 -1.5640  0.0283 -0.0015
   21DOPE   H5Y 2671   2.240   7.401  16.362 -0.1820 -0.7766  0.8757
   21DOPE   C36 2672   2.444   7.336  16.328 -0.0219 -0.3292 -0.2481
   21DOPE   H6X 2673   2.422   7.240  16.379  2.1682 -0.7174  0.0795
   21DOPE   H6Y 2674   2.542   7.377  16.363  1.0338 -1.7040 -1.4909
   21DOPE   C37 2675   2.465   7.302  16.180 -0.1959  0.0210 -0.5051
   21DOPE   H7X 2676   2.514   7.392  16.136  0.2144  0.9210  1.6298
   21DOPE   H7Y 2677   2.542   7.222  16.178  0.8948  0.9860  0.7213
   21DOPE   C38 2678   2.335   7.274  16.104  0.1030  0.3434 -1.1020
   21DOPE   H8X 2679   2.283   7.369  16.080  0.3800  0.0286 -3.2222
   21DOPE   H8Y 2680   2.270   7.210  16.166  2.6479 -0.4803  0.9114
   21DOPE   C39 2681   2.350   7.217  15.963 -0.2077 -0.0738 -0.6379
   21DOPE   H9X 2682   2.433   7.248  15.898 -0.2915 -0.2732 -0.8415
   21DOPE  C310 2683   2.270   7.122  15.910  0.3598 -0.0809 -0.9324
   21DOPE  H10X 2684   2.294   7.087  15.809 -1.6488 -1.8947 -0.8738
   21DOPE  C311 2685   2.141   7.066  15.972  0.5258 -0.3558 -0.6832
   21DOPE  H11X 2686   2.166   6.966  16.014  2.8558  0.2844 -0.3734
   21DOPE  H11Y 2687   2.121   7.119  16.068 -4.0451 -2.3627 -0.2548
   21DOPE  C312 2688   2.039   7.061  15.853 -0.8504  0.1437  0.2466
   21DOPE  H12X 2689   2.080   6.977  15.794 -0.9671 -0.6729  1.3154
   21DOPE  H12Y 2690   2.036   7.156  15.795  1.3404 -0.9125 -1.7787
   21DOPE  C313 2691   1.897   7.030  15.892  0.0229 -0.1835 -0.0003
   21DOPE  H13X 2692   1.885   6.928  15.933 -0.0075 -0.1723  0.0173
   21DOPE  H13Y 2693   1.881   7.110  15.969  0.7856  0.0786 -0.1015
   21DOPE  C314 2694   1.807   7.052  15.767  0.0670 -0.2701 -0.7679
   21DOPE  H14X 2695   1.830   7.149  15.719  0.9947  0.9260  1.8661
   21DOPE  H14Y 2696   1.702   7.056  15.802 -0.2329 -2.2760 -1.2913
   21DOPE  C315 2697   1.828   6.945  15.665 -0.5673  0.5051 -0.0158
   21DOPE  H15X 2698   1.776   6.857  15.707  0.8815  0.7071  2.4147
   21DOPE  H15Y 2699   1.937   6.921  15.661 -0.8562 -1.1708  1.1000
   21DOPE  C316 2700   1.773   6.987  15.529  1.2826 -0.4856 -0.5367
   21DOPE  H16X 2701   1.791   7.097  15.529  0.4773  0.0306  5.9692
   21DOPE  H16Y 2702   1.663   6.977  15.528  1.0016  1.9125  0.4098
   21DOPE  C317 2703   1.842   6.912  15.417 -0.0008  0.1208  0.2019
   21DOPE  H17X 2704   1.950   6.936  15.419  0.5422 -2.1600  1.2497
   21DOPE  H17Y 2705   1.827   6.804  15.434 -1.0273  0.3058  0.5517
   21DOPE  C318 2706   1.774   6.934  15.277 -0.1422  0.0544  0.4680
   21DOPE  H18X 2707   1.822   6.865  15.205  1.3829 -1.1681  2.5570
   21DOPE  H18Y 2708   1.668   6.900  15.287  0.3006 -1.4018  0.4461
   21DOPE  H18Z 2709   1.766   7.041  15.249  0.9684  0.0368  0.0468
   22DOPE     N 2710   7.209   5.172  16.882  0.2274  0.1392  0.2984
   22DOPE   HN1 2711   7.201   5.201  16.982 -0.0269  1.6176 -0.1267
   22DOPE   HN2 2712   7.287   5.223  16.837 -0.4047  0.5757 -0.3331
   22DOPE   HN3 2713   7.120   5.196  16.834  0.9797 -0.9933 -1.7687
   22DOPE   C12 2714   7.206   5.023  16.902  0.2981 -0.1135 -0.5012
   22DOPE  H12A 2715   7.297   5.008  16.964 -0.0638  1.6421  0.5154
   22DOPE  H12B 2716   7.214   4.972  16.804  0.7652 -1.8940  0.4179
   22DOPE   C11 2717   7.081   4.975  16.983 -0.3070  0.0903  0.1976
   22DOPE  H11A 2718   7.064   5.035  17.075 -2.6577  0.5835 -0.4738
   22DOPE  H11B 2719   7.103   4.872  17.020  0.4749 -0.6894 -2.2883
   22DOPE     P 2720   6.891   4.852  16.856  0.2565 -0.1743 -0.2251
   22DOPE   O13 2721   6.797   4.801  16.957 -0.2005 -0.2812 -1.0274
   22DOPE   O14 2722   6.981   4.757  16.799 -0.2359 -0.4116  0.2901
   22DOPE   O11 2723   6.812   4.903  16.734 -0.4622 -0.6508  0.2300
   22DOPE   O12 2724   6.961   4.981  16.905 -0.1384  0.4845 -0.9010
   22DOPE    C1 2725   6.688   4.969  16.749 -0.2441  0.0533  0.1249
   22DOPE    HA 2726   6.671   5.026  16.655  0.7109 -0.4766 -0.3750
   22DOPE    HB 2727   6.692   5.034  16.839  0.7622  0.4358 -0.1919
   22DOPE    C2 2728   6.565   4.865  16.772 -1.1104  0.4389 -0.1413
   22DOPE    HS 2729   6.582   4.801  16.861 -0.9582  0.5324 -0.1030
   22DOPE   O21 2730   6.573   4.787  16.652 -0.1440 -0.5665 -0.4684
   22DOPE   C21 2731   6.500   4.674  16.658  0.3456 -0.5599  0.6395
   22DOPE   O22 2732   6.463   4.622  16.761  0.0041 -0.4400  0.0978
   22DOPE   C22 2733   6.463   4.630  16.523 -0.2605 -0.3183  0.4274
   22DOPE   H2R 2734   6.386   4.699  16.482  0.5880 -0.5164 -1.6240
   22DOPE   H2S 2735   6.413   4.531  16.534 -0.5159 -0.2921 -0.4375
   22DOPE    C3 2736   6.420   4.936  16.784 -0.0998 -0.2333  0.6179
   22DOPE    HX 2737   6.413   4.977  16.887  0.0285 -1.5420  1.1755
   22DOPE    HY 2738   6.348   4.852  16.788 -0.0523 -0.2488  1.1596
   22DOPE   O31 2739   6.394   5.039  16.681  0.3950 -0.1720  0.2767
   22DOPE   C31 2740   6.314   4.999  16.585  0.6525 -0.6519  0.7229
   22DOPE   O32 2741   6.240   4.898  16.584  0.3735 -0.3083  0.2175
   22DOPE   C32 2742   6.324   5.100  16.473  0.3699 -0.2105  0.4320
   22DOPE   H2X 2743   6.243   5.169  16.504  1.5210  0.2186  2.6345
   22DOPE   H2Y 2744   6.416   5.161  16.487 -0.0248  0.4252  0.3164
   22DOPE   C23 2745   6.577   4.614  16.423  0.5376 -0.2590 -0.0717
   22DOPE   H3R 2746   6.660   4.567  16.479  2.1002  2.4204  0.0511
   22DOPE   H3S 2747   6.619   4.711  16.388  0.7914 -0.2352  0.2947
   22DOPE   C24 2748   6.525   4.529  16.307 -0.1155 -0.9896 -0.5308
   22DOPE   H4R 2749   6.424   4.566  16.279 -0.0700  0.4661  1.0689
   22DOPE   H4S 2750   6.519   4.426  16.349  0.3674 -0.0606  2.0122
   22DOPE   C25 2751   6.629   4.532  16.187  0.1431  0.8373 -0.3264
   22DOPE   H5R 2752   6.727   4.489  16.217 -0.0044  0.5345 -0.2760
   22DOPE   H5S 2753   6.644   4.639  16.162  0.1763  1.0733  0.6697
   22DOPE   C26 2754   6.578   4.458  16.063 -0.3659 -0.1851  1.2741
   22DOPE   H6R 2755   6.483   4.513  16.046  0.9282  1.8841  0.3101
   22DOPE   H6S 2756   6.555   4.351  16.081 -0.4730 -0.0731  1.8124
   22DOPE   C27 2757   6.674   4.477  15.943  0.1563 -0.1562 -0.1852
   22DOPE   H7R 2758   6.694   4.586  15.930  2.1431 -0.4133  0.4663
   22DOPE   H7S 2759   6.618   4.448  15.851 -1.0271  0.6931  0.2349
   22DOPE   C28 2760   6.804   4.386  15.940  0.1175 -0.3199  0.3013
   22DOPE   H8R 2761   6.773   4.295  15.885  0.5222 -0.8786  0.9821
   22DOPE   H8S 2762   6.830   4.359  16.045  1.7401  2.1223  0.6204
   22DOPE   C29 2763   6.927   4.453  15.874 -0.1642 -0.3851 -0.1387
   22DOPE   H9R 2764   6.939   4.559  15.901 -2.4470 -0.3384  0.9330
   22DOPE  C210 2765   7.017   4.403  15.788 -0.9610 -0.0561  0.2805
   22DOPE  H10R 2766   7.107   4.461  15.761  0.3415 -1.2448  1.9170
   22DOPE  C211 2767   7.009   4.271  15.717 -0.0125  0.8893 -0.2683
   22DOPE  H11R 2768   6.978   4.197  15.794 -3.4539  2.0203 -0.3784
   22DOPE  H11S 2769   7.110   4.233  15.689  0.4574  2.7010 -1.1636
   22DOPE  C212 2770   6.903   4.269  15.592  0.4865  0.1136  0.3716
   22DOPE  H12R 2771   6.802   4.305  15.620 -1.5252  1.1461 -6.3770
   22DOPE  H12S 2772   6.896   4.161  15.571  3.3447 -0.1583  0.4023
   22DOPE  C213 2773   6.946   4.358  15.482 -0.1091 -0.1168  0.0641
   22DOPE  H13R 2774   7.055   4.343  15.467 -0.0284 -0.1100  0.6345
   22DOPE  H13S 2775   6.947   4.467  15.507  0.1321  0.3247 -1.6831
   22DOPE  C214 2776   6.871   4.346  15.348 -0.2666 -0.3636  0.3118
   22DOPE  H14R 2777   6.896   4.437  15.289 -2.4532  0.4568  0.5481
   22DOPE  H14S 2778   6.762   4.358  15.367 -0.0993  0.1209  1.0180
   22DOPE  C215 2779   6.907   4.217  15.268  0.1327  0.2771 -0.2649
   22DOPE  H15R 2780   6.834   4.136  15.290  0.9465 -0.4040 -0.0268
   22DOPE  H15S 2781   7.011   4.179  15.275 -0.2001 -0.6992 -0.4828
   22DOPE  C216 2782   6.882   4.245  15.121 -0.2075 -0.3508  0.2944
   22DOPE  H16R 2783   6.954   4.320  15.083  0.3662  0.7871  3.3279
   22DOPE  H16S 2784   6.777   4.280  15.114 -0.7346 -2.0509 -1.0157
   22DOPE  C217 2785   6.910   4.121  15.032 -0.1355 -0.8042 -0.4467
   22DOPE  H17R 2786   6.850   4.149  14.944  0.7344 -0.5616 -0.9747
   22DOPE  H17S 2787   6.866   4.024  15.065  1.5359 -1.3940  0.1710
   22DOPE  C218 2788   7.053   4.085  14.986  0.4823 -0.3010  0.4025
   22DOPE  H18R 2789   7.125   4.169  14.982  0.6041 -0.3797  0.9323
   22DOPE  H18S 2790   7.056   4.029  14.890  3.3887  0.4973 -0.0579
   22DOPE  H18T 2791   7.103   4.018  15.059  1.5892 -0.8537 -0.8126
   22DOPE   C33 2792   6.305   5.045  16.328  0.0301 -0.0776  0.4181
   22DOPE   H3X 2793   6.291   5.135  16.264  1.1555 -0.2931 -0.1588
   22DOPE   H3Y 2794   6.208   4.992  16.322  0.9456 -1.8425  0.6330
   22DOPE   C34 2795   6.410   4.956  16.263 -0.4297 -0.0773 -0.1067
   22DOPE   H4X 2796   6.461   4.907  16.349  1.5970  1.4334 -0.3747
   22DOPE   H4Y 2797   6.370   4.878  16.195  1.6096  0.3202 -1.8395
   22DOPE   C35 2798   6.523   5.028  16.188  0.6522  0.0693 -0.1982
   22DOPE   H5X 2799   6.571   5.104  16.253  0.2879 -0.5515  0.8086
   22DOPE   H5Y 2800   6.473   5.081  16.104 -0.7749  0.4109  0.8430
   22DOPE   C36 2801   6.635   4.935  16.130 -0.0681  0.0539  0.6082
   22DOPE   H6X 2802   6.593   4.871  16.050 -0.0397  0.4425  0.2817
   22DOPE   H6Y 2803   6.688   4.870  16.203 -1.0980 -1.3087  0.1784
   22DOPE   C37 2804   6.743   5.029  16.067 -0.0882 -0.5756 -0.2054
   22DOPE   H7X 2805   6.696   5.102  15.998 -1.4133 -1.2690 -0.0775
   22DOPE   H7Y 2806   6.776   5.083  16.158 -1.2724  1.9806 -1.2074
   22DOPE   C38 2807   6.854   4.946  15.998 -0.7602 -0.4482  0.4384
   22DOPE   H8X 2808   6.825   4.916  15.895  1.1476  0.0838 -0.2953
   22DOPE   H8Y 2809   6.877   4.851  16.052 -2.4782 -1.4344 -0.4691
   22DOPE   C39 2810   6.973   5.039  15.990  0.1317 -0.5656 -0.3175
   22DOPE   H9X 2811   6.954   5.141  16.027  3.6105 -0.1505  0.7391
   22DOPE  C310 2812   7.103   5.007  15.958 -0.3496  0.3999  0.0756
   22DOPE  H10X 2813   7.173   5.092  15.946  0.5644 -0.2968  0.3504
   22DOPE  C311 2814   7.160   4.873  15.929 -0.1693 -1.0842  0.5193
   22DOPE  H11X 2815   7.230   4.835  16.006  1.6771 -1.4915 -1.2821
   22DOPE  H11Y 2816   7.073   4.804  15.933  0.3554 -2.1047 -2.7900
   22DOPE  C312 2817   7.226   4.848  15.793  0.0639 -0.3398  0.6764
   22DOPE  H12X 2818   7.303   4.923  15.764 -0.5303 -0.2039 -0.6506
   22DOPE  H12Y 2819   7.155   4.855  15.707  0.9979  0.5930 -0.0570
   22DOPE  C313 2820   7.285   4.716  15.781 -0.4441  0.9425 -0.3516
   22DOPE  H13X 2821   7.343   4.693  15.872 -0.6016 -0.0501 -0.4949
   22DOPE  H13Y 2822   7.205   4.640  15.790  0.4632 -0.1890 -1.5102
   22DOPE  C314 2823   7.384   4.707  15.664 -0.2959 -0.1057 -0.1833
   22DOPE  H14X 2824   7.475   4.766  15.685  0.0600 -0.9763  0.8425
   22DOPE  H14Y 2825   7.345   4.749  15.569  0.6244  2.0718  0.3652
   22DOPE  C315 2826   7.427   4.564  15.636  0.3071 -0.8517  0.1546
   22DOPE  H15X 2827   7.352   4.504  15.580  1.2066 -2.2829  0.4477
   22DOPE  H15Y 2828   7.454   4.507  15.727  0.3931 -0.2476  0.5115
   22DOPE  C316 2829   7.555   4.542  15.556  0.0221 -0.3792  0.4776
   22DOPE  H16X 2830   7.648   4.578  15.604 -0.1806 -1.7013  1.9572
   22DOPE  H16Y 2831   7.540   4.589  15.456 -1.1042 -0.8637  0.4039
   22DOPE  C317 2832   7.582   4.393  15.529 -0.5648 -0.3309  0.0645
   22DOPE  H17X 2833   7.590   4.344  15.628  1.7724  2.7740  1.5797
   22DOPE  H17Y 2834   7.502   4.354  15.461 -0.2092  2.1622 -1.9530
   22DOPE  C318 2835   7.726   4.386  15.456  0.3774  0.6666  0.0738
   22DOPE  H18X 2836   7.744   4.474  15.389 -3.6839 -0.3050 -2.6836
   22DOPE  H18Y 2837   7.807   4.385  15.532  1.0168 -0.5353 -0.5783
   22DOPE  H18Z 2838   7.727   4.296  15.390  3.2855  1.4546 -1.1234
   23DOPE     N 2839   5.366   7.461  16.972  0.4524 -1.0796 -0.2699
   23DOPE   HN1 2840   5.454   7.467  16.918  1.4431  0.4579  1.3864
   23DOPE   HN2 2841   5.381   7.402  17.057 -0.7418 -1.2448 -0.1579
   23DOPE   HN3 2842   5.289   7.416  16.919 -0.7392  2.6942 -2.0422
   23DOPE   C12 2843   5.297   7.595  17.013 -0.2451  0.4650 -0.2180
   23DOPE  H12A 2844   5.264   7.650  16.922  1.0111  1.3019 -0.1911
   23DOPE  H12B 2845   5.371   7.657  17.068 -0.2749  0.4032 -0.1073
   23DOPE   C11 2846   5.180   7.570  17.112  0.2467  0.4986  0.3655
   23DOPE  H11A 2847   5.123   7.661  17.144 -1.8639 -0.0763 -1.4517
   23DOPE  H11B 2848   5.225   7.524  17.202  0.0872 -0.4981 -0.0503
   23DOPE     P 2849   4.970   7.528  16.956 -0.0370 -0.1356 -0.4886
   23DOPE   O13 2850   4.839   7.534  17.030  0.0274 -0.4910  0.4821
   23DOPE   O14 2851   4.977   7.438  16.837  0.2226  0.0373  0.3767
   23DOPE   O11 2852   5.016   7.675  16.924 -0.2485  0.0027  0.5315
   23DOPE   O12 2853   5.083   7.474  17.060  0.3299  0.0056  0.7805
   23DOPE    C1 2854   4.936   7.789  16.961 -0.6620 -0.3309 -0.2177
   23DOPE    HA 2855   4.997   7.878  16.988  1.2325 -0.8140 -2.5434
   23DOPE    HB 2856   4.867   7.779  17.047 -1.0068  0.0730 -0.4463
   23DOPE    C2 2857   4.845   7.850  16.854  0.4625  0.1019 -0.3247
   23DOPE    HS 2858   4.796   7.939  16.897  1.9870  1.4128 -1.2077
   23DOPE   O21 2859   4.748   7.760  16.811 -0.4347  0.3596 -0.4937
   23DOPE   C21 2860   4.633   7.759  16.872 -0.6152  0.1574 -0.1683
   23DOPE   O22 2861   4.615   7.826  16.978 -0.0449 -0.5721 -0.1573
   23DOPE   C22 2862   4.537   7.671  16.807  0.3876 -0.0390 -0.1793
   23DOPE   H2R 2863   4.433   7.707  16.822  0.9795  1.7338 -0.0651
   23DOPE   H2S 2864   4.544   7.572  16.858 -1.4248 -0.3680 -0.5042
   23DOPE    C3 2865   4.940   7.891  16.739  0.1093 -0.1341  0.4714
   23DOPE    HX 2866   4.990   7.798  16.704 -2.5467 -1.8432  0.9747
   23DOPE    HY 2867   5.016   7.960  16.783 -0.7845  1.0632  0.2069
   23DOPE   O31 2868   4.869   7.949  16.626  0.3280 -0.3153 -0.1548
   23DOPE   C31 2869   4.942   7.994  16.521 -0.3293  0.2113 -0.0038
   23DOPE   O32 2870   5.063   7.990  16.520 -0.1604  0.0449 -0.4760
   23DOPE   C32 2871   4.860   8.076  16.416 -0.2714  0.6845  0.1361
   23DOPE   H2X 2872   4.758   8.032  16.410 -0.0724  0.3856 -2.4258
   23DOPE   H2Y 2873   4.858   8.180  16.453  1.8924  0.7155  0.2756
   23DOPE   C23 2874   4.560   7.657  16.657 -0.8028  0.1367  0.8336
   23DOPE   H3R 2875   4.487   7.580  16.622 -0.4336 -0.8549  2.2012
   23DOPE   H3S 2876   4.661   7.611  16.646 -1.4133 -1.0756 -0.0164
   23DOPE   C24 2877   4.547   7.782  16.562  0.4240 -0.2560 -0.2115
   23DOPE   H4R 2878   4.598   7.875  16.597  0.7975 -1.2289  2.0152
   23DOPE   H4S 2879   4.441   7.813  16.560  0.4714  0.0774  1.1813
   23DOPE   C25 2880   4.582   7.734  16.415 -0.0007 -0.3283 -0.2581
   23DOPE   H5R 2881   4.692   7.719  16.415 -0.1015 -1.1760  0.3659
   23DOPE   H5S 2882   4.558   7.810  16.338  0.4942 -1.2369 -1.3437
   23DOPE   C26 2883   4.517   7.608  16.356  0.1540  0.6564 -0.3188
   23DOPE   H6R 2884   4.411   7.636  16.340 -0.0550  0.9400  1.4000
   23DOPE   H6S 2885   4.515   7.522  16.427  0.1859 -0.6626 -1.8515
   23DOPE   C27 2886   4.570   7.561  16.220 -0.1676  0.6852  0.5487
   23DOPE   H7R 2887   4.661   7.498  16.234 -1.7916 -1.5869  1.3957
   23DOPE   H7S 2888   4.593   7.649  16.157 -0.6003  0.3460 -0.0963
   23DOPE   C28 2889   4.461   7.477  16.150 -0.1181 -0.2130 -0.3313
   23DOPE   H8R 2890   4.368   7.538  16.154  0.5175  0.7655 -0.1505
   23DOPE   H8S 2891   4.451   7.382  16.205  2.7613  0.9867  2.5539
   23DOPE   C29 2892   4.486   7.448  16.008 -0.4683  0.6024  1.0950
   23DOPE   H9R 2893   4.489   7.532  15.937  0.5880 -1.2129 -1.1408
   23DOPE  C210 2894   4.493   7.327  15.956  0.2797 -0.1433  0.0351
   23DOPE  H10R 2895   4.518   7.324  15.848 -1.5665 -2.5813 -0.3982
   23DOPE  C211 2896   4.489   7.192  16.023 -0.5723 -1.2605  0.4950
   23DOPE  H11R 2897   4.466   7.189  16.132 -0.9396  0.1877  0.4741
   23DOPE  H11S 2898   4.589   7.146  16.006  0.4036  0.7900  0.3811
   23DOPE  C212 2899   4.381   7.103  15.957  0.3113 -0.0309  0.5450
   23DOPE  H12R 2900   4.376   7.010  16.018  1.0361  1.5731  3.2256
   23DOPE  H12S 2901   4.399   7.087  15.849 -2.6865  1.3393 -0.2409
   23DOPE  C213 2902   4.241   7.165  15.970 -0.4431  0.4375 -0.2839
   23DOPE  H13R 2903   4.248   7.262  15.916  0.8128  1.0708  0.9642
   23DOPE  H13S 2904   4.231   7.209  16.071  1.5060  2.1153 -0.7607
   23DOPE  C214 2905   4.124   7.078  15.933 -0.0273 -0.3786 -0.2642
   23DOPE  H14R 2906   4.125   7.064  15.822 -1.2463  0.6358 -0.4315
   23DOPE  H14S 2907   4.039   7.144  15.960  1.6802  1.3654  1.0705
   23DOPE  C215 2908   4.109   6.946  16.007  0.1342  0.1407  0.5029
   23DOPE  H15R 2909   4.206   6.891  16.007 -0.4535 -0.9263  0.3277
   23DOPE  H15S 2910   4.033   6.883  15.956 -2.2933  2.6678  0.7668
   23DOPE  C216 2911   4.070   6.956  16.158  0.2413 -0.3059 -0.2796
   23DOPE  H16R 2912   3.965   6.992  16.157  0.9629  2.0301  1.1348
   23DOPE  H16S 2913   4.118   7.047  16.200 -0.5621  0.4219 -0.8938
   23DOPE  C217 2914   4.108   6.834  16.236  0.7407  0.7739  1.9449
   23DOPE  H17R 2915   4.085   6.746  16.172 -0.7600  0.5079  2.8025
   23DOPE  H17S 2916   4.049   6.823  16.329 -1.2326 -0.4101  0.6353
   23DOPE  C218 2917   4.257   6.821  16.268 -0.9812 -0.4891 -0.1894
   23DOPE  H18R 2918   4.299   6.916  16.308 -2.7034  0.3029 -0.1464
   23DOPE  H18S 2919   4.313   6.801  16.175  0.7257 -1.1140  0.9211
   23DOPE  H18T 2920   4.278   6.736  16.337 -1.0116 -0.6865 -0.4240
   23DOPE   C33 2921   4.923   8.084  16.272  0.6328 -0.3036 -0.3680
   23DOPE   H3X 2922   4.937   7.990  16.215 -1.3451 -0.5594 -0.4667
   23DOPE   H3Y 2923   5.027   8.124  16.271  0.4782  0.3673 -3.8588
   23DOPE   C34 2924   4.835   8.158  16.172 -0.3357 -0.0012 -0.3232
   23DOPE   H4X 2925   4.811   8.264  16.195 -2.1823  0.1138 -2.4467
   23DOPE   H4Y 2926   4.871   8.150  16.067 -3.0611  0.6931 -1.3921
   23DOPE   C35 2927   4.690   8.108  16.166  0.0443 -0.0378 -0.6591
   23DOPE   H5X 2928   4.627   8.153  16.246 -0.3599 -1.9533  0.1670
   23DOPE   H5Y 2929   4.694   8.000  16.191 -0.1745  0.0876 -0.0579
   23DOPE   C36 2930   4.626   8.119  16.026  0.5950 -0.9451  0.3101
   23DOPE   H6X 2931   4.633   8.223  15.987 -1.0777 -1.0220 -0.2978
   23DOPE   H6Y 2932   4.526   8.073  16.042  1.1354 -1.3023  3.1152
   23DOPE   C37 2933   4.692   8.027  15.918 -0.6537  0.0128  0.7571
   23DOPE   H7X 2934   4.803   8.028  15.915 -0.5368 -0.2766  3.1299
   23DOPE   H7Y 2935   4.664   7.924  15.949 -1.5913  0.1310  0.3398
   23DOPE   C38 2936   4.649   8.043  15.763  0.7888  0.5978 -0.1775
   23DOPE   H8X 2937   4.671   8.149  15.738 -2.9179  1.3109 -1.0987
   23DOPE   H8Y 2938   4.540   8.040  15.741  0.5713  0.9927  0.7966
   23DOPE   C39 2939   4.721   7.949  15.666 -0.5175  0.2388  0.4162
   23DOPE   H9X 2940   4.726   7.848  15.710 -0.0372  0.0427 -0.0770
   23DOPE  C310 2941   4.776   7.977  15.546  0.1099  0.8420  0.1206
   23DOPE  H10X 2942   4.821   7.897  15.484  0.8336 -1.1370  2.9853
   23DOPE  C311 2943   4.769   8.109  15.478  0.0197 -0.4987 -0.6349
   23DOPE  H11X 2944   4.669   8.156  15.485 -0.0841 -0.7675 -0.3212
   23DOPE  H11Y 2945   4.841   8.178  15.528  0.1878 -1.2744  0.2117
   23DOPE  C312 2946   4.790   8.103  15.328 -0.0889 -0.0821  0.4236
   23DOPE  H12X 2947   4.769   8.204  15.286  1.1600  0.5068  1.1471
   23DOPE  H12Y 2948   4.722   8.027  15.285  2.5908 -0.9543 -2.6308
   23DOPE  C313 2949   4.931   8.049  15.293 -0.4235  0.1551  0.2352
   23DOPE  H13X 2950   5.015   8.090  15.354  0.9873 -2.1338 -0.0508
   23DOPE  H13Y 2951   4.942   7.940  15.308 -1.5516 -0.0454 -0.2904
   23DOPE  C314 2952   4.958   8.082  15.144  0.3975  0.4052  0.0454
   23DOPE  H14X 2953   4.942   8.190  15.123  0.5661  0.1961 -1.1903
   23DOPE  H14Y 2954   4.883   8.017  15.093 -0.0209  0.0339  1.1026
   23DOPE  C315 2955   5.102   8.033  15.102 -0.2478 -0.6301  0.1778
   23DOPE  H15X 2956   5.116   7.926  15.124 -2.1524 -1.2761 -1.4138
   23DOPE  H15Y 2957   5.174   8.084  15.169 -0.3520 -1.2410  0.7600
   23DOPE  C316 2958   5.148   8.065  14.959 -0.4443 -0.4729  0.1727
   23DOPE  H16X 2959   5.258   8.050  14.956 -0.4352 -0.7206  1.2463
   23DOPE  H16Y 2960   5.127   8.173  14.949 -0.1441 -0.4868 -0.6862
   23DOPE  C317 2961   5.081   7.979  14.853  0.2073  0.1607 -0.3541
   23DOPE  H17X 2962   5.070   7.870  14.872 -2.2868  0.4615  0.3022
   23DOPE  H17Y 2963   4.976   8.014  14.850  0.6891  1.6457 -0.4587
   23DOPE  C318 2964   5.147   7.996  14.715  0.7049 -0.1095 -0.0113
   23DOPE  H18X 2965   5.153   8.098  14.672  1.5567  0.9222  2.3523
   23DOPE  H18Y 2966   5.254   7.966  14.714  1.2310  1.6533 -1.1446
   23DOPE  H18Z 2967   5.097   7.927  14.643  1.3314  0.6698 -1.2239
   24DOPE     N 2968   6.429   5.864  16.871 -0.0221  0.3571 -0.9238
   24DOPE   HN1 2969   6.506   5.926  16.903 -0.3263 -0.8109  2.3712
   24DOPE   HN2 2970   6.347   5.876  16.934  1.1902  0.3935  0.7127
   24DOPE   HN3 2971   6.455   5.764  16.875 -0.6235  0.1781 -1.2855
   24DOPE   C12 2972   6.367   5.896  16.736 -0.3423  0.1245 -0.0315
   24DOPE  H12A 2973   6.442   5.890  16.655 -0.4242  1.5681 -0.2413
   24DOPE  H12B 2974   6.331   6.001  16.735  0.5813  0.4528  0.4058
   24DOPE   C11 2975   6.271   5.781  16.706  0.4531 -0.1268 -0.3422
   24DOPE  H11A 2976   6.317   5.681  16.703 -1.0009 -0.8663  0.6167
   24DOPE  H11B 2977   6.228   5.803  16.606  1.3358 -0.7893 -0.8758
   24DOPE     P 2978   6.089   5.657  16.833  0.0670  0.6088 -0.4510
   24DOPE   O13 2979   5.962   5.690  16.891 -0.0210  0.3888  0.0601
   24DOPE   O14 2980   6.183   5.590  16.930 -0.6220  0.1592 -0.3998
   24DOPE   O11 2981   6.082   5.557  16.709 -0.0543 -0.8424 -0.0644
   24DOPE   O12 2982   6.156   5.795  16.787 -0.2461  0.3401 -0.0556
   24DOPE    C1 2983   6.005   5.592  16.596  0.8320  0.5797  0.4347
   24DOPE    HA 2984   5.984   5.701  16.596 -0.3200  0.3938 -0.7066
   24DOPE    HB 2985   5.910   5.534  16.599  1.7569 -1.2436 -2.2369
   24DOPE    C2 2986   6.085   5.572  16.462 -0.8882  0.7466  0.0281
   24DOPE    HS 2987   6.168   5.647  16.464  0.3635 -0.6065  1.2278
   24DOPE   O21 2988   6.006   5.585  16.342 -0.6885 -0.2857 -0.5165
   24DOPE   C21 2989   5.971   5.705  16.320  0.4046 -0.0187  0.0342
   24DOPE   O22 2990   6.000   5.805  16.382  0.3771 -0.8033  0.3538
   24DOPE   C22 2991   5.853   5.695  16.227  0.3261 -0.0333 -0.0578
   24DOPE   H2R 2992   5.769   5.674  16.297  1.0287 -0.2683  0.7255
   24DOPE   H2S 2993   5.868   5.613  16.154 -0.6116  1.6930 -2.3582
   24DOPE    C3 2994   6.147   5.429  16.462  0.4189  0.0924  0.2072
   24DOPE    HX 2995   6.068   5.355  16.488 -0.0314  0.4568 -0.0993
   24DOPE    HY 2996   6.223   5.414  16.542  0.2870  0.9746  0.5048
   24DOPE   O31 2997   6.207   5.392  16.336 -0.3124  0.2040 -0.1620
   24DOPE   C31 2998   6.317   5.442  16.289 -1.0474  0.1100 -0.1912
   24DOPE   O32 2999   6.393   5.519  16.345 -0.3320  0.3390 -0.1556
   24DOPE   C32 3000   6.326   5.397  16.149  0.3644 -0.2043 -0.0115
   24DOPE   H2X 3001   6.277   5.299  16.130  0.9578 -0.7751  1.2699
   24DOPE   H2Y 3002   6.275   5.471  16.085 -0.0461 -1.2059 -0.8806
   24DOPE   C23 3003   5.833   5.824  16.142  0.0415 -0.0815  0.0391
   24DOPE   H3R 3004   5.912   5.843  16.067 -2.3107  1.2245 -2.2974
   24DOPE   H3S 3005   5.843   5.907  16.215 -0.5306 -0.5779  0.6917
   24DOPE   C24 3006   5.703   5.826  16.064  0.1354  0.1851  0.2180
   24DOPE   H4R 3007   5.615   5.873  16.112  2.0556  2.9010  1.3196
   24DOPE   H4S 3008   5.673   5.722  16.038  0.6011  0.6182 -2.3416
   24DOPE   C25 3009   5.707   5.912  15.938 -0.3857  0.5334  0.4520
   24DOPE   H5R 3010   5.800   5.883  15.884 -0.6384  2.7248 -1.2800
   24DOPE   H5S 3011   5.720   6.015  15.975  0.5384 -0.2803  2.5454
   24DOPE   C26 3012   5.583   5.897  15.850 -0.2008  0.0329 -0.5263
   24DOPE   H6R 3013   5.494   5.944  15.895 -0.7843 -0.4544 -1.1488
   24DOPE   H6S 3014   5.552   5.790  15.850  1.5809 -0.5250  0.2117
   24DOPE   C27 3015   5.605   5.946  15.705  0.3749 -0.9644 -0.3065
   24DOPE   H7R 3016   5.680   5.881  15.654  2.8765  1.6284 -0.1494
   24DOPE   H7S 3017   5.648   6.047  15.712  0.7022 -1.1700  0.8628
   24DOPE   C28 3018   5.470   5.946  15.634 -0.0305 -0.0365 -0.3236
   24DOPE   H8R 3019   5.410   6.024  15.687 -0.9821 -1.2233  0.4112
   24DOPE   H8S 3020   5.427   5.847  15.661  3.8380 -1.7249  0.1993
   24DOPE   C29 3021   5.460   5.967  15.483 -0.3082 -0.1962 -0.0609
   24DOPE   H9R 3022   5.477   6.072  15.455  0.5071 -0.1644  0.5073
   24DOPE  C210 3023   5.428   5.881  15.382  0.5972  0.1087  0.1946
   24DOPE  H10R 3024   5.430   5.903  15.275  2.5196 -1.2543 -0.0945
   24DOPE  C211 3025   5.399   5.739  15.408  0.5620 -0.1051 -0.6649
   24DOPE  H11R 3026   5.293   5.724  15.378  0.7071  0.1775 -1.3497
   24DOPE  H11S 3027   5.399   5.714  15.516  0.7216  0.2669 -0.5770
   24DOPE  C212 3028   5.495   5.639  15.333  0.0801 -0.5537 -0.2138
   24DOPE  H12R 3029   5.599   5.667  15.360  0.7230 -1.8369 -1.2582
   24DOPE  H12S 3030   5.487   5.648  15.222  1.1040  1.4847 -0.1831
   24DOPE  C213 3031   5.475   5.498  15.382  0.1608 -0.1012 -1.0439
   24DOPE  H13R 3032   5.367   5.478  15.364  0.1826  0.7175 -2.1688
   24DOPE  H13S 3033   5.487   5.491  15.493 -0.0731  0.8026 -0.9595
   24DOPE  C214 3034   5.567   5.399  15.313 -0.6286  0.0228  0.2555
   24DOPE  H14R 3035   5.520   5.378  15.215  0.6479  1.5438 -0.7318
   24DOPE  H14S 3036   5.562   5.301  15.366  1.1044 -0.1548  0.1471
   24DOPE  C215 3037   5.715   5.431  15.289 -0.0773 -0.0087  0.5208
   24DOPE  H15R 3038   5.766   5.443  15.386 -0.0070 -0.6412  0.5656
   24DOPE  H15S 3039   5.716   5.527  15.232 -0.1652  0.5293  1.4043
   24DOPE  C216 3040   5.774   5.314  15.214  0.6851 -0.7397  0.3799
   24DOPE  H16R 3041   5.705   5.304  15.127 -0.8602  2.4648  1.0690
   24DOPE  H16S 3042   5.770   5.217  15.268 -1.0231 -1.7904 -1.4877
   24DOPE  C217 3043   5.908   5.346  15.153 -0.0345  0.1378 -0.3756
   24DOPE  H17R 3044   5.981   5.362  15.234  0.5482 -1.3603 -0.5680
   24DOPE  H17S 3045   5.889   5.433  15.086  1.3828 -0.7303 -1.9896
   24DOPE  C218 3046   5.951   5.235  15.056  0.6917 -0.5976  0.7832
   24DOPE  H18R 3047   6.056   5.254  15.026  1.0467 -0.8432  1.8261
   24DOPE  H18S 3048   5.886   5.246  14.966 -1.7024 -0.3199  2.4527
   24DOPE  H18T 3049   5.946   5.132  15.097 -1.7598 -0.5671  0.6881
   24DOPE   C33 3050   6.468   5.380  16.097 -0.2224 -0.3808  0.4628
   24DOPE   H3X 3051   6.536   5.304  16.142  2.2567  0.7354 -1.1704
   24DOPE   H3Y 3052   6.524   5.476  16.097  1.1454 -1.1403  1.3412
   24DOPE   C34 3053   6.445   5.334  15.952 -0.7285  0.1301 -0.0744
   24DOPE   H4X 3054   6.372   5.250  15.950  0.0402 -0.5670 -2.4238
   24DOPE   H4Y 3055   6.403   5.419  15.894 -0.4164  0.9119  0.8254
   24DOPE   C35 3056   6.574   5.292  15.879 -0.4374  0.0952 -0.5856
   24DOPE   H5X 3057   6.578   5.182  15.864 -2.0240  0.1453 -1.5990
   24DOPE   H5Y 3058   6.664   5.312  15.941 -0.2718 -0.0533 -0.7734
   24DOPE   C36 3059   6.589   5.367  15.745 -0.4528 -0.2845  0.3542
   24DOPE   H6X 3060   6.663   5.322  15.676  0.9474  1.6192  0.5311
   24DOPE   H6Y 3061   6.632   5.468  15.763  1.1241 -1.0114  0.7812
   24DOPE   C37 3062   6.458   5.383  15.658  0.1056 -0.8784  0.1173
   24DOPE   H7X 3063   6.391   5.294  15.664 -1.1862  0.0139 -0.4240
   24DOPE   H7Y 3064   6.407   5.469  15.706  1.0021 -0.3445  0.1189
   24DOPE   C38 3065   6.491   5.400  15.504 -0.0860 -0.6412 -0.1998
   24DOPE   H8X 3066   6.392   5.401  15.453 -0.0563 -0.1911 -0.2581
   24DOPE   H8Y 3067   6.556   5.313  15.481  0.0649 -1.0448  1.6435
   24DOPE   C39 3068   6.561   5.531  15.475 -0.4917 -0.4788 -0.0053
   24DOPE   H9X 3069   6.507   5.617  15.517  2.0648  0.0140  2.5915
   24DOPE  C310 3070   6.686   5.545  15.418  0.2695  0.0178  0.6771
   24DOPE  H10X 3071   6.731   5.643  15.401  0.6601 -0.4238 -1.0761
   24DOPE  C311 3072   6.774   5.434  15.367  0.1654 -0.0837  0.0723
   24DOPE  H11X 3073   6.848   5.410  15.445  0.4138  2.4276  0.6789
   24DOPE  H11Y 3074   6.730   5.334  15.347  0.5900 -0.2080 -0.2612
   24DOPE  C312 3075   6.865   5.475  15.241 -0.2009  0.0606 -0.0586
   24DOPE  H12X 3076   6.921   5.383  15.213  1.1588 -0.0474  2.7301
   24DOPE  H12Y 3077   6.941   5.554  15.258 -1.6895  1.2919  1.1670
   24DOPE  C313 3078   6.784   5.519  15.123  0.0351  0.6450 -0.1079
   24DOPE  H13X 3079   6.701   5.446  15.109  0.8418 -0.6476  1.4732
   24DOPE  H13Y 3080   6.730   5.610  15.158 -0.2875 -0.9104  4.1030
   24DOPE  C314 3081   6.856   5.532  14.988  0.6042  0.2626 -0.2176
   24DOPE  H14X 3082   6.778   5.578  14.922  0.9576  1.1762 -0.0198
   24DOPE  H14Y 3083   6.873   5.431  14.946 -0.2786  0.6422 -1.5719
   24DOPE  C315 3084   6.980   5.623  15.003  0.0507 -1.1841 -0.0502
   24DOPE  H15X 3085   7.059   5.579  15.067 -1.0501 -0.5950  1.8050
   24DOPE  H15Y 3086   6.948   5.721  15.046 -0.6147 -0.5741 -1.8115
   24DOPE  C316 3087   7.029   5.670  14.859  0.2543 -0.3922 -0.0518
   24DOPE  H16X 3088   6.948   5.729  14.812 -0.0030 -1.6977 -1.3405
   24DOPE  H16Y 3089   7.045   5.582  14.792  0.7904 -1.7574  1.7958
   24DOPE  C317 3090   7.152   5.752  14.873 -0.0209 -0.1743  0.5711
   24DOPE  H17X 3091   7.129   5.842  14.934 -0.9065 -0.1343  0.1934
   24DOPE  H17Y 3092   7.218   5.680  14.925 -0.3624 -2.2777 -1.7201
   24DOPE  C318 3093   7.218   5.796  14.742 -0.4721  0.3131  0.2790
   24DOPE  H18X 3094   7.172   5.882  14.689 -1.1971  0.3502  0.9523
   24DOPE  H18Y 3095   7.320   5.819  14.780 -1.0974 -0.7051  2.7935
   24DOPE  H18Z 3096   7.213   5.707  14.676 -1.1753  1.4072 -1.1955
   25DOPE     N 3097   6.210   5.327  16.987  0.6117  0.1749 -0.1615
   25DOPE   HN1 3098   6.178   5.421  16.958 -2.2310 -0.6010  0.1621
   25DOPE   HN2 3099   6.159   5.260  16.926 -0.6720  0.1977  0.8476
   25DOPE   HN3 3100   6.185   5.310  17.087 -0.4239  2.7731  0.0831
   25DOPE   C12 3101   6.356   5.315  16.958 -1.0449  0.1938 -0.5423
   25DOPE  H12A 3102   6.392   5.212  16.979 -2.0527  0.1659  1.1761
   25DOPE  H12B 3103   6.416   5.382  17.023  0.7478 -0.4677 -1.4379
   25DOPE   C11 3104   6.374   5.354  16.814  0.4632  0.0351  0.6472
   25DOPE  H11A 3105   6.342   5.458  16.794 -2.0252 -0.5460  1.2555
   25DOPE  H11B 3106   6.304   5.303  16.745 -2.2329  1.5909  2.0376
   25DOPE     P 3107   6.616   5.468  16.810  0.1733 -0.1627 -0.2002
   25DOPE   O13 3108   6.739   5.425  16.878 -0.3175  0.8579 -0.0681
   25DOPE   O14 3109   6.552   5.589  16.866  0.0166 -0.2303  0.3474
   25DOPE   O11 3110   6.655   5.506  16.661 -0.2358  0.5674  0.2375
   25DOPE   O12 3111   6.511   5.350  16.784  0.3539 -0.1504  0.2209
   25DOPE    C1 3112   6.666   5.412  16.558  0.1090  0.0639  1.0322
   25DOPE    HA 3113   6.657   5.466  16.461 -1.6109  1.5896  1.9733
   25DOPE    HB 3114   6.587   5.334  16.559  0.3855 -0.2726 -0.6576
   25DOPE    C2 3115   6.809   5.355  16.555  0.1474 -0.1674 -0.0774
   25DOPE    HS 3116   6.818   5.281  16.637  2.2618  0.9710  0.7881
   25DOPE   O21 3117   6.907   5.461  16.570  0.2070  0.3012  0.2021
   25DOPE   C21 3118   7.026   5.422  16.605  0.4750  0.2603  0.1256
   25DOPE   O22 3119   7.057   5.312  16.648 -0.2853 -0.7396 -0.6445
   25DOPE   C22 3120   7.123   5.540  16.597 -0.2196  0.9397  0.6494
   25DOPE   H2R 3121   7.073   5.639  16.594 -0.5080  0.7889 -1.9512
   25DOPE   H2S 3122   7.163   5.536  16.493 -2.3912 -1.7345 -0.1995
   25DOPE    C3 3123   6.837   5.269  16.428  0.6453 -0.1895 -0.4668
   25DOPE    HX 3124   6.771   5.181  16.444  1.4470 -0.9655 -1.3097
   25DOPE    HY 3125   6.942   5.233  16.436  0.2991 -0.9071  1.1917
   25DOPE   O31 3126   6.807   5.329  16.296 -0.5976  0.9745 -0.8565
   25DOPE   C31 3127   6.912   5.376  16.226 -0.1940  0.0350  0.6659
   25DOPE   O32 3128   7.028   5.391  16.265 -0.1708 -0.7165 -0.2462
   25DOPE   C32 3129   6.860   5.416  16.086  0.0722  0.2485 -0.2054
   25DOPE   H2X 3130   6.854   5.320  16.031  1.2099  0.4968 -0.7907
   25DOPE   H2Y 3131   6.763   5.468  16.098  0.1632  0.0188  1.9583
   25DOPE   C23 3132   7.243   5.527  16.690 -0.3182 -0.4136  0.6311
   25DOPE   H3R 3133   7.292   5.428  16.685 -0.4717 -0.5143  1.0566
   25DOPE   H3S 3134   7.203   5.540  16.793 -1.6143  0.8397  0.0069
   25DOPE   C24 3135   7.347   5.632  16.649  0.1475  0.6129 -0.4662
   25DOPE   H4R 3136   7.295   5.730  16.655 -2.1637 -0.5440 -0.3153
   25DOPE   H4S 3137   7.374   5.630  16.541  0.5624  1.3430 -0.3763
   25DOPE   C25 3138   7.472   5.638  16.726 -0.0922  0.3881 -0.6481
   25DOPE   H5R 3139   7.515   5.537  16.731 -1.9411 -0.4555 -0.7987
   25DOPE   H5S 3140   7.446   5.657  16.833  3.8659 -0.2303  0.5687
   25DOPE   C26 3141   7.574   5.746  16.687 -0.1948  0.2325  0.7589
   25DOPE   H6R 3142   7.664   5.746  16.752  0.3672  1.3270  0.0254
   25DOPE   H6S 3143   7.529   5.848  16.690  0.2506  0.4658 -0.0623
   25DOPE   C27 3144   7.641   5.728  16.540 -0.5552  0.2640  0.5264
   25DOPE   H7R 3145   7.562   5.768  16.472 -0.1829 -0.2499 -0.2330
   25DOPE   H7S 3146   7.643   5.617  16.531  0.0280  0.1849  1.4848
   25DOPE   C28 3147   7.775   5.800  16.518 -0.3690 -0.4764 -0.1234
   25DOPE   H8R 3148   7.802   5.789  16.411 -1.9848 -2.6056 -0.3982
   25DOPE   H8S 3149   7.853   5.742  16.572  0.4014  0.0274 -0.6716
   25DOPE   C29 3150   7.775   5.945  16.559  0.2027  0.3987  0.3524
   25DOPE   H9R 3151   7.780   5.957  16.669 -1.7971  0.4733  0.4597
   25DOPE  C210 3152   7.758   6.053  16.487  0.2163  0.2568 -0.6342
   25DOPE  H10R 3153   7.774   6.151  16.532  2.3269  0.7066 -2.2235
   25DOPE  C211 3154   7.732   6.045  16.337 -0.4295 -0.0905  0.0540
   25DOPE  H11R 3155   7.741   5.942  16.296  2.2613  0.2066 -0.2421
   25DOPE  H11S 3156   7.811   6.103  16.285  0.8628 -0.4604  1.5207
   25DOPE  C212 3157   7.598   6.114  16.301 -0.5144 -0.5337  0.1495
   25DOPE  H12R 3158   7.609   6.146  16.195  2.7848  1.7710  1.0171
   25DOPE  H12S 3159   7.587   6.214  16.350  1.6381 -0.1598 -0.0364
   25DOPE  C213 3160   7.485   6.015  16.322  0.3222 -0.1029  0.0188
   25DOPE  H13R 3161   7.486   6.004  16.432  1.3650  1.4091  0.1852
   25DOPE  H13S 3162   7.505   5.917  16.273 -1.4134 -0.5138  0.0693
   25DOPE  C214 3163   7.348   6.071  16.279 -0.3306  0.2829 -0.1381
   25DOPE  H14R 3164   7.351   6.088  16.169  1.5820  0.2038 -0.1436
   25DOPE  H14S 3165   7.324   6.162  16.337 -2.8040  1.2424 -2.4747
   25DOPE  C215 3166   7.234   5.971  16.305 -0.5449  0.2887 -0.0954
   25DOPE  H15R 3167   7.224   5.938  16.411 -2.0873  0.2971 -0.2184
   25DOPE  H15S 3168   7.258   5.874  16.256 -0.2403 -0.2474  1.0788
   25DOPE  C216 3169   7.090   6.012  16.260 -0.9958  0.0921  0.5102
   25DOPE  H16R 3170   7.096   6.031  16.151 -0.5693 -1.7455  0.1805
   25DOPE  H16S 3171   7.054   6.098  16.320 -2.2072  0.0575 -0.1326
   25DOPE  C217 3172   6.988   5.902  16.290 -0.5320  0.3327  0.4226
   25DOPE  H17R 3173   6.971   5.893  16.399 -0.2273  1.2576  0.5584
   25DOPE  H17S 3174   7.033   5.807  16.255  0.6310  1.1383 -0.3675
   25DOPE  C218 3175   6.861   5.921  16.215  0.1070  0.0163  0.2300
   25DOPE  H18R 3176   6.776   5.868  16.262 -2.3417  2.2546 -1.4167
   25DOPE  H18S 3177   6.877   5.875  16.115 -3.6451 -1.0695 -0.0176
   25DOPE  H18T 3178   6.847   6.031  16.218  0.2845  0.0318  0.5291
   25DOPE   C33 3179   6.964   5.493  15.998 -0.0433 -0.4095  0.5270
   25DOPE   H3X 3180   7.059   5.444  16.029 -0.0508 -2.0195 -1.7629
   25DOPE   H3Y 3181   6.973   5.603  16.011  1.2013 -0.4145 -0.1322
   25DOPE   C34 3182   6.948   5.473  15.843 -0.1808  0.2137 -0.8672
   25DOPE   H4X 3183   6.892   5.381  15.818  0.7663 -0.7176  0.2880
   25DOPE   H4Y 3184   6.890   5.560  15.806 -0.3877 -0.7190 -2.8944
   25DOPE   C35 3185   7.078   5.477  15.770  0.2761 -0.6872 -0.2817
   25DOPE   H5X 3186   7.135   5.562  15.814 -0.6417 -0.3222  0.2376
   25DOPE   H5Y 3187   7.068   5.491  15.661 -0.8091  0.1233 -0.0904
   25DOPE   C36 3188   7.162   5.349  15.790  0.1273  0.7231  0.0221
   25DOPE   H6X 3189   7.105   5.266  15.742  0.6201  2.1575 -3.3174
   25DOPE   H6Y 3190   7.170   5.328  15.899 -1.6357  2.3611  0.5217
   25DOPE   C37 3191   7.299   5.349  15.724 -0.1729 -0.2083  0.1634
   25DOPE   H7X 3192   7.296   5.365  15.614  0.2274 -2.5470 -0.2280
   25DOPE   H7Y 3193   7.358   5.429  15.773 -0.3517 -0.0094  0.0598
   25DOPE   C38 3194   7.375   5.219  15.751  0.0366 -0.6182 -0.0271
   25DOPE   H8X 3195   7.319   5.129  15.719  1.1378 -0.9490 -1.1019
   25DOPE   H8Y 3196   7.393   5.220  15.861  0.8417  3.7920 -0.0169
   25DOPE   C39 3197   7.505   5.217  15.672 -0.5511  0.3625  0.5719
   25DOPE   H9X 3198   7.587   5.265  15.727  0.0659  1.7343 -1.4277
   25DOPE  C310 3199   7.509   5.175  15.538 -0.3425  0.6594 -0.2963
   25DOPE  H10X 3200   7.600   5.188  15.478 -0.5722 -1.6214 -1.2054
   25DOPE  C311 3201   7.397   5.109  15.459  0.0877 -0.3678  0.2499
   25DOPE  H11X 3202   7.404   4.999  15.456 -0.8161 -0.4146 -1.0975
   25DOPE  H11Y 3203   7.301   5.138  15.507 -1.3428 -1.2241 -1.8925
   25DOPE  C312 3204   7.391   5.159  15.316  0.0204 -0.0823  0.2631
   25DOPE  H12X 3205   7.399   5.270  15.320 -2.3775  0.1285  0.3470
   25DOPE  H12Y 3206   7.291   5.134  15.274  0.3929 -1.3611  0.1087
   25DOPE  C313 3207   7.497   5.098  15.215  0.3966 -0.1788 -0.4773
   25DOPE  H13X 3208   7.484   5.143  15.114  0.2815 -1.4998 -1.0733
   25DOPE  H13Y 3209   7.592   5.129  15.264 -0.0237  0.2203  0.1001
   25DOPE  C314 3210   7.499   4.949  15.203 -0.4673  0.2064  0.1983
   25DOPE  H14X 3211   7.401   4.923  15.159 -1.1430  2.4455  0.2571
   25DOPE  H14Y 3212   7.512   4.904  15.304 -4.4998 -0.4388  0.5884
   25DOPE  C315 3213   7.615   4.886  15.118  0.8569  0.3721 -0.1502
   25DOPE  H15X 3214   7.713   4.930  15.146  0.5172  2.1236 -1.5246
   25DOPE  H15Y 3215   7.598   4.920  15.014  1.1067  1.6901  0.2298
   25DOPE  C316 3216   7.621   4.739  15.144  0.2732  0.4651  0.2066
   25DOPE  H16X 3217   7.527   4.689  15.111  0.8206  0.2942 -1.1578
   25DOPE  H16Y 3218   7.653   4.714  15.247 -0.2915  0.9208  0.4971
   25DOPE  C317 3219   7.742   4.684  15.062 -0.1478 -0.4455 -0.2195
   25DOPE  H17X 3220   7.741   4.574  15.076 -1.7919 -0.7959 -2.5486
   25DOPE  H17Y 3221   7.726   4.703  14.954  0.9223 -1.9098 -0.6639
   25DOPE  C318 3222   7.880   4.729  15.113  0.2129  0.0053 -0.1027
   25DOPE  H18X 3223   7.900   4.828  15.066  0.6490 -0.0087  0.0499
   25DOPE  H18Y 3224   7.896   4.743  15.222  1.5459  1.2888 -0.4355
   25DOPE  H18Z 3225   7.965   4.668  15.075 -0.5745 -1.2039  0.0151
   26DOPE     N 3226   0.835   6.866  17.028  0.1315 -0.2174 -0.2424
   26DOPE   HN1 3227   0.932   6.831  17.040  0.3979  1.1400  2.3078
   26DOPE   HN2 3228   0.836   6.947  16.963  0.5840  0.3499  0.4527
   26DOPE   HN3 3229   0.795   6.891  17.121  0.2658 -3.3255  0.7823
   26DOPE   C12 3230   0.750   6.759  16.968 -0.7271 -0.2797  0.8762
   26DOPE  H12A 3231   0.753   6.676  17.041 -1.6817 -1.0184  0.0963
   26DOPE  H12B 3232   0.803   6.716  16.880  0.1761  0.1857  1.1779
   26DOPE   C11 3233   0.608   6.804  16.941 -0.2089 -0.1730 -0.2893
   26DOPE  H11A 3234   0.600   6.866  16.849 -2.3493 -0.1700 -0.1438
   26DOPE  H11B 3235   0.563   6.862  17.024  1.0980  0.1696  0.2042
   26DOPE     P 3236   0.393   6.669  16.890 -0.0680 -0.0847 -0.5682
   26DOPE   O13 3237   0.295   6.739  16.976 -0.5275  0.2698 -0.0108
   26DOPE   O14 3238   0.363   6.525  16.881  0.3431  0.1122  0.5460
   26DOPE   O11 3239   0.398   6.737  16.745 -0.9032  0.0513  0.0642
   26DOPE   O12 3240   0.546   6.678  16.932 -0.1840 -0.2540 -0.6834
   26DOPE    C1 3241   0.291   6.831  16.710  0.0811 -0.4775 -0.2268
   26DOPE    HA 3242   0.292   6.922  16.774 -2.2063 -0.8625  0.4512
   26DOPE    HB 3243   0.192   6.785  16.728  0.3997 -1.3279 -0.6099
   26DOPE    C2 3244   0.278   6.883  16.563 -0.4829  0.0020  0.3749
   26DOPE    HS 3245   0.194   6.955  16.549  1.2253  1.9059 -0.5267
   26DOPE   O21 3246   0.258   6.768  16.478 -0.9805  0.3744  0.2401
   26DOPE   C21 3247   0.137   6.719  16.465 -0.3143 -0.3077  0.5951
   26DOPE   O22 3248   0.035   6.778  16.506 -0.3562 -0.1472 -0.0501
   26DOPE   C22 3249   0.138   6.592  16.385 -0.2896  0.3282 -0.5923
   26DOPE   H2R 3250   0.112   6.512  16.458 -0.8220  0.8205 -0.2452
   26DOPE   H2S 3251   0.236   6.576  16.335 -1.1169 -0.3187 -2.0610
   26DOPE    C3 3252   0.394   6.970  16.517  0.3894 -0.0525  0.1989
   26DOPE    HX 3253   0.476   6.954  16.590  0.8564  1.2911  0.0077
   26DOPE    HY 3254   0.365   7.077  16.522  0.5307 -0.0500  1.2134
   26DOPE   O31 3255   0.430   6.951  16.379  0.2382  0.5010 -0.2599
   26DOPE   C31 3256   0.551   6.904  16.345 -0.6010 -0.2499  0.2577
   26DOPE   O32 3257   0.642   6.885  16.426 -0.1965 -0.0642  0.2251
   26DOPE   C32 3258   0.552   6.865  16.198 -0.3102  0.1053 -0.3422
   26DOPE   H2X 3259   0.487   6.923  16.129 -1.1594 -1.2138 -0.6750
   26DOPE   H2Y 3260   0.654   6.886  16.158  0.8499  0.6348  2.6237
   26DOPE   C23 3261   0.034   6.603  16.270 -0.4055  0.1633 -0.3282
   26DOPE   H3R 3262   0.056   6.702  16.224  2.0800 -0.5981 -0.9400
   26DOPE   H3S 3263  -0.069   6.615  16.309 -0.6347  4.1396 -1.7090
   26DOPE   C24 3264   0.024   6.483  16.172  0.1268 -0.1811 -0.0426
   26DOPE   H4R 3265   0.023   6.383  16.220 -1.3497  0.4760  1.4328
   26DOPE   H4S 3266   0.114   6.489  16.109  0.6283  1.3012  0.7594
   26DOPE   C25 3267  -0.089   6.511  16.069  0.6473 -0.0471  0.4727
   26DOPE   H5R 3268  -0.080   6.611  16.021 -1.7220  0.4021  0.8322
   26DOPE   H5S 3269  -0.179   6.518  16.134  0.9938  0.6285  0.8867
   26DOPE   C26 3270  -0.114   6.389  15.969  0.4934  0.4551  0.0813
   26DOPE   H6R 3271  -0.217   6.413  15.934  0.1124 -1.0367  0.1231
   26DOPE   H6S 3272  -0.120   6.295  16.026  0.3150  0.7581  0.5677
   26DOPE   C27 3273  -0.009   6.366  15.861  0.5311 -0.6236 -0.2561
   26DOPE   H7R 3274  -0.023   6.269  15.809  2.4582 -0.9904 -0.1716
   26DOPE   H7S 3275   0.092   6.363  15.908  0.8086 -0.9033 -0.8548
   26DOPE   C28 3276  -0.010   6.473  15.748 -0.1684  1.0901  0.1102
   26DOPE   H8R 3277   0.004   6.573  15.795 -0.9233  1.0414  0.4524
   26DOPE   H8S 3278  -0.110   6.473  15.700  0.6038 -1.1086 -1.6403
   26DOPE   C29 3279   0.099   6.446  15.645  0.2980  0.2866  0.1831
   26DOPE   H9R 3280   0.197   6.455  15.696 -0.4735 -0.6216  1.9415
   26DOPE  C210 3281   0.085   6.387  15.528  0.8689 -1.1250 -0.0073
   26DOPE  H10R 3282   0.170   6.375  15.459  0.7958 -1.6511 -0.0083
   26DOPE  C211 3283  -0.045   6.344  15.467 -0.3011 -0.3809 -0.5202
   26DOPE  H11R 3284  -0.005   6.317  15.366  2.1321  0.3320  0.1831
   26DOPE  H11S 3285  -0.117   6.428  15.462 -0.0250 -0.1895 -1.5786
   26DOPE  C212 3286  -0.121   6.233  15.538  0.4317 -0.4814 -0.1023
   26DOPE  H12R 3287  -0.203   6.263  15.607 -0.6253 -0.2620 -1.4035
   26DOPE  H12S 3288  -0.053   6.162  15.589  1.4847 -0.4305 -1.4048
   26DOPE  C213 3289  -0.197   6.142  15.434  0.8732 -0.9765  0.2816
   26DOPE  H13R 3290  -0.234   6.051  15.484 -2.5033  0.3111  0.4400
   26DOPE  H13S 3291  -0.124   6.116  15.354  1.2038 -0.2404  0.3318
   26DOPE  C214 3292  -0.318   6.217  15.370 -0.7362  0.0349 -0.7183
   26DOPE  H14R 3293  -0.279   6.314  15.333  2.3111 -0.3326  1.1481
   26DOPE  H14S 3294  -0.394   6.250  15.444 -2.3884  1.2279 -2.8303
   26DOPE  C215 3295  -0.392   6.127  15.275  0.9614  0.2573  0.0561
   26DOPE  H15R 3296  -0.316   6.082  15.207  0.1488 -0.6645 -0.2676
   26DOPE  H15S 3297  -0.449   6.195  15.209 -1.5001 -1.6313  0.0752
   26DOPE  C216 3298  -0.480   6.019  15.343 -0.0364  0.3188  0.8603
   26DOPE  H16R 3299  -0.530   6.060  15.434 -1.7859  0.3251 -0.0545
   26DOPE  H16S 3300  -0.415   5.941  15.389 -0.5714 -0.3262  0.5379
   26DOPE  C217 3301  -0.588   5.957  15.252 -0.0202  0.5601 -0.0841
   26DOPE  H17R 3302  -0.534   5.917  15.164  0.5857 -0.7877  0.8760
   26DOPE  H17S 3303  -0.670   6.019  15.210  0.4682  0.6790 -0.8688
   26DOPE  C218 3304  -0.652   5.833  15.315 -0.4645  0.1733  0.0609
   26DOPE  H18R 3305  -0.573   5.765  15.355  2.3813  3.0032 -0.3178
   26DOPE  H18S 3306  -0.710   5.785  15.234  0.2860  2.7437 -2.1683
   26DOPE  H18T 3307  -0.714   5.869  15.400 -0.4626  2.0560 -0.6798
   26DOPE   C33 3308   0.540   6.711  16.184 -0.2369  0.0934  0.1432
   26DOPE   H3X 3309   0.460   6.676  16.253 -0.5538  1.3431  0.4370
   26DOPE   H3Y 3310   0.625   6.648  16.217 -0.8194 -0.8148 -0.0673
   26DOPE   C34 3311   0.510   6.667  16.036  0.5493 -0.1222 -0.8095
   26DOPE   H4X 3312   0.422   6.716  15.991  1.5209 -0.5081 -3.3027
   26DOPE   H4Y 3313   0.604   6.695  15.984  1.7758  1.0825  1.8778
   26DOPE   C35 3314   0.496   6.512  16.032  0.0609  0.4318  0.6539
   26DOPE   H5X 3315   0.415   6.488  16.105 -2.7650 -1.3358 -2.7459
   26DOPE   H5Y 3316   0.589   6.455  16.055 -0.0986 -0.7481 -1.4160
   26DOPE   C36 3317   0.445   6.453  15.899  0.4846 -0.1245  0.6515
   26DOPE   H6X 3318   0.504   6.494  15.815 -1.2151  1.8472  0.3144
   26DOPE   H6Y 3319   0.341   6.493  15.890 -0.0544 -1.9674 -3.2741
   26DOPE   C37 3320   0.442   6.299  15.883 -0.1571 -0.2744 -0.9840
   26DOPE   H7X 3321   0.392   6.267  15.789  1.4267 -2.0044 -1.2938
   26DOPE   H7Y 3322   0.546   6.260  15.888 -0.2420 -0.3335  1.4631
   26DOPE   C38 3323   0.367   6.219  15.994  0.0233 -0.0865  0.4354
   26DOPE   H8X 3324   0.262   6.257  15.993  0.2190  0.5061  0.9743
   26DOPE   H8Y 3325   0.412   6.242  16.093  0.7336 -2.3312  0.6867
   26DOPE   C39 3326   0.379   6.071  15.987  0.0572 -0.3831  0.4357
   26DOPE   H9X 3327   0.481   6.045  16.016  0.5601  1.8746  0.8575
   26DOPE  C310 3328   0.285   5.984  15.947  0.0498 -0.2379  0.0179
   26DOPE  H10X 3329   0.303   5.879  15.977 -2.1160 -0.2588  1.5108
   26DOPE  C311 3330   0.144   6.012  15.898  0.5476 -0.8759  0.5870
   26DOPE  H11X 3331   0.078   5.973  15.978 -1.6762 -0.7610 -1.0627
   26DOPE  H11Y 3332   0.129   6.120  15.876  3.6926 -0.5320 -0.3302
   26DOPE  C312 3333   0.112   5.928  15.768 -0.3009  0.2560 -0.4890
   26DOPE  H12X 3334   0.003   5.918  15.751  0.2754 -2.1043 -4.0403
   26DOPE  H12Y 3335   0.150   5.824  15.756  0.4098  0.5490 -0.8149
   26DOPE  C313 3336   0.182   5.999  15.655 -0.0193 -0.3229 -0.5168
   26DOPE  H13X 3337   0.142   6.101  15.635 -0.4277 -0.3181  0.3072
   26DOPE  H13Y 3338   0.289   6.015  15.677 -0.3186 -0.4227  1.0735
   26DOPE  C314 3339   0.151   5.923  15.518 -0.4062 -0.9468 -0.7423
   26DOPE  H14X 3340   0.040   5.925  15.504 -0.5604  0.8611  0.3326
   26DOPE  H14Y 3341   0.189   5.819  15.527 -0.5893 -0.8700  1.2122
   26DOPE  C315 3342   0.240   6.002  15.411  0.5124 -0.5433  0.9182
   26DOPE  H15X 3343   0.342   5.967  15.438  0.0006 -2.3881  0.5857
   26DOPE  H15Y 3344   0.220   6.111  15.421  1.3899  0.2318 -3.6964
   26DOPE  C316 3345   0.205   5.966  15.264  0.4236 -0.2154  0.6710
   26DOPE  H16X 3346   0.100   6.004  15.259 -0.0174 -1.5505 -1.7469
   26DOPE  H16Y 3347   0.206   5.856  15.249 -0.4588 -0.0668 -0.6557
   26DOPE  C317 3348   0.303   6.025  15.161 -0.2029  1.0361  0.3068
   26DOPE  H17X 3349   0.405   6.033  15.205 -0.0390  1.4851 -0.1508
   26DOPE  H17Y 3350   0.324   5.951  15.081 -2.2878  1.3495 -0.5954
   26DOPE  C318 3351   0.274   6.163  15.113  0.6088  0.0813  0.6633
   26DOPE  H18X 3352   0.166   6.169  15.088  0.8656 -0.1026 -0.5200
   26DOPE  H18Y 3353   0.301   6.237  15.192  0.2933  1.0704 -0.1344
   26DOPE  H18Z 3354   0.333   6.188  15.023 -0.5735 -3.2279 -1.1739
   27DOPE     N 3355   5.944   7.405  17.230 -0.5580  0.5229  0.0599
   27DOPE   HN1 3356   6.030   7.463  17.233  1.5154 -2.3128  0.2984
   27DOPE   HN2 3357   5.932   7.362  17.324 -1.6086  0.3254 -0.1547
   27DOPE   HN3 3358   5.974   7.321  17.176  2.3522  0.9461  0.8303
   27DOPE   C12 3359   5.827   7.479  17.163 -1.0060  0.7880  0.3447
   27DOPE  H12A 3360   5.879   7.528  17.078  0.8196 -2.9876 -0.9338
   27DOPE  H12B 3361   5.789   7.541  17.247 -1.0963  0.0491  0.8539
   27DOPE   C11 3362   5.714   7.382  17.116  0.1248  0.1245  0.4052
   27DOPE  H11A 3363   5.761   7.316  17.040  0.1499 -1.5989  1.8691
   27DOPE  H11B 3364   5.637   7.443  17.063  1.9789  0.3996 -2.1590
   27DOPE     P 3365   5.528   7.329  17.282 -0.2992  0.4418  0.5918
   27DOPE   O13 3366   5.521   7.479  17.296 -0.9324 -0.5961 -0.3602
   27DOPE   O14 3367   5.504   7.244  17.400  0.3360 -0.3342  0.5608
   27DOPE   O11 3368   5.429   7.286  17.163 -0.3668  0.1574 -0.3473
   27DOPE   O12 3369   5.667   7.300  17.224 -0.1433  0.1559 -0.1631
   27DOPE    C1 3370   5.402   7.144  17.150  0.5229  0.0117 -0.2728
   27DOPE    HA 3371   5.306   7.126  17.096  0.6942 -0.9535 -0.2768
   27DOPE    HB 3372   5.408   7.082  17.242  2.4533  1.3816  0.5891
   27DOPE    C2 3373   5.492   7.073  17.049  0.3502 -0.6262  0.1460
   27DOPE    HS 3374   5.595   7.066  17.091  1.1099  0.7048 -1.4260
   27DOPE   O21 3375   5.490   7.135  16.924 -0.2186 -0.1480  0.0127
   27DOPE   C21 3376   5.600   7.155  16.851 -0.2683  1.3600  0.2565
   27DOPE   O22 3377   5.712   7.117  16.876  0.5135  0.2631 -0.1793
   27DOPE   C22 3378   5.548   7.220  16.719  0.4175  0.2087 -0.0696
   27DOPE   H2R 3379   5.488   7.309  16.747  2.1898  0.8010  2.1345
   27DOPE   H2S 3380   5.486   7.145  16.665  0.0573  1.2426 -1.1258
   27DOPE    C3 3381   5.456   6.921  17.032  0.1842 -0.1118  0.3500
   27DOPE    HX 3382   5.349   6.923  17.003  0.4615 -0.1755 -0.7303
   27DOPE    HY 3383   5.474   6.873  17.130  1.2287 -1.4627 -0.4646
   27DOPE   O31 3384   5.538   6.861  16.924 -0.3225  0.0127  0.7054
   27DOPE   C31 3385   5.478   6.756  16.877 -0.1679 -0.0395 -0.4088
   27DOPE   O32 3386   5.370   6.708  16.908  0.4007 -0.3844  0.0206
   27DOPE   C32 3387   5.562   6.688  16.763  1.1525  0.4815  0.2125
   27DOPE   H2X 3388   5.648   6.636  16.809  1.2243 -0.4666 -0.9406
   27DOPE   H2Y 3389   5.507   6.610  16.707 -0.0137  2.4310 -1.5440
   27DOPE   C23 3390   5.666   7.272  16.638  0.0707 -0.2693  0.7822
   27DOPE   H3R 3391   5.724   7.181  16.612 -0.9085 -0.7941  0.3739
   27DOPE   H3S 3392   5.734   7.332  16.703  0.1951  1.2975 -0.7433
   27DOPE   C24 3393   5.634   7.337  16.504 -0.1504  0.0647  0.0467
   27DOPE   H4R 3394   5.731   7.362  16.457  0.1929 -0.5475  0.4154
   27DOPE   H4S 3395   5.569   7.427  16.505  1.6255  1.4076 -1.0241
   27DOPE   C25 3396   5.557   7.247  16.397  0.0696 -0.5994 -0.7719
   27DOPE   H5R 3397   5.455   7.215  16.427  0.6566 -0.8676  1.0960
   27DOPE   H5S 3398   5.609   7.149  16.395  1.2817  0.0247 -1.6000
   27DOPE   C26 3399   5.576   7.303  16.257 -0.2685 -0.5123 -0.1398
   27DOPE   H6R 3400   5.684   7.314  16.231 -0.8161  1.0783 -2.0342
   27DOPE   H6S 3401   5.527   7.403  16.248  0.4800  0.0302  1.5093
   27DOPE   C27 3402   5.515   7.214  16.155  0.2447 -0.6032  0.0094
   27DOPE   H7R 3403   5.433   7.152  16.197 -0.0947 -1.2897 -1.5931
   27DOPE   H7S 3404   5.594   7.145  16.119 -0.5590  0.1203 -3.4921
   27DOPE   C28 3405   5.471   7.284  16.028  0.4742 -0.7696 -0.0592
   27DOPE   H8R 3406   5.405   7.368  16.058  3.2792  2.0321 -1.0771
   27DOPE   H8S 3407   5.412   7.216  15.963  1.1773 -0.1343 -1.4353
   27DOPE   C29 3408   5.583   7.356  15.956 -0.7350  0.0905  0.2311
   27DOPE   H9R 3409   5.618   7.442  16.014  1.0993 -0.2866 -0.2532
   27DOPE  C210 3410   5.623   7.331  15.831 -0.3380  0.3789  0.8139
   27DOPE  H10R 3411   5.711   7.383  15.790 -1.5903 -0.8908 -4.2248
   27DOPE  C211 3412   5.576   7.221  15.734 -0.1509 -0.4969 -0.0035
   27DOPE  H11R 3413   5.552   7.256  15.631 -0.5829 -0.1398  0.2184
   27DOPE  H11S 3414   5.477   7.185  15.769 -0.8589  1.0372 -0.3469
   27DOPE  C212 3415   5.672   7.099  15.721 -0.5342 -0.8085  0.3276
   27DOPE  H12R 3416   5.615   7.012  15.683  0.6232 -0.3726 -2.7441
   27DOPE  H12S 3417   5.711   7.072  15.821 -1.9053  0.9295  1.3897
   27DOPE  C213 3418   5.772   7.118  15.603 -0.3530 -0.2976 -0.1164
   27DOPE  H13R 3419   5.821   7.217  15.615  0.1369 -0.4068 -1.0942
   27DOPE  H13S 3420   5.720   7.136  15.507 -2.6603  1.1439  1.2983
   27DOPE  C214 3421   5.885   7.007  15.603  0.0455 -0.1762  0.1813
   27DOPE  H14R 3422   5.839   6.907  15.586  0.0125  0.2032 -2.4903
   27DOPE  H14S 3423   5.931   7.009  15.704  2.0813  0.4836 -0.6992
   27DOPE  C215 3424   6.010   7.017  15.510  0.4423 -0.1655  0.2651
   27DOPE  H15R 3425   6.083   7.068  15.576 -0.4295  0.6004  0.6680
   27DOPE  H15S 3426   5.992   7.090  15.428  1.6855 -0.3257 -0.1624
   27DOPE  C216 3427   6.056   6.882  15.465 -0.0551  0.2940  0.0191
   27DOPE  H16R 3428   5.978   6.839  15.398 -0.7068  0.8772  0.3926
   27DOPE  H16S 3429   6.068   6.815  15.552 -0.8050 -1.4728 -1.1869
   27DOPE  C217 3430   6.196   6.893  15.388 -0.0787 -0.4303  0.4567
   27DOPE  H17R 3431   6.277   6.929  15.455 -0.5989 -1.8472  1.9250
   27DOPE  H17S 3432   6.172   6.966  15.308 -0.6254  0.7300  1.6290
   27DOPE  C218 3433   6.232   6.758  15.336  0.1956 -0.0216 -0.4507
   27DOPE  H18R 3434   6.342   6.749  15.323  0.1284 -0.1593 -0.9554
   27DOPE  H18S 3435   6.178   6.720  15.246  0.3582 -0.9312 -0.1704
   27DOPE  H18T 3436   6.214   6.685  15.417 -1.5567  0.2860 -0.5195
   27DOPE   C33 3437   5.624   6.796  16.683 -0.3970 -0.3819  0.1961
   27DOPE   H3X 3438   5.710   6.844  16.734  0.8501 -1.1695 -1.0967
   27DOPE   H3Y 3439   5.555   6.880  16.659  1.0642  0.7029 -0.3149
   27DOPE   C34 3440   5.677   6.749  16.543 -0.3848  1.0579 -0.0181
   27DOPE   H4X 3441   5.595   6.697  16.488  0.7793 -0.3821 -0.4588
   27DOPE   H4Y 3442   5.706   6.839  16.486 -1.9494  0.7932 -1.2979
   27DOPE   C35 3443   5.792   6.652  16.557 -0.0892  0.0398  0.3418
   27DOPE   H5X 3444   5.759   6.555  16.601 -0.7775 -1.2129 -2.7217
   27DOPE   H5Y 3445   5.875   6.690  16.620 -0.9634  0.8967  1.0058
   27DOPE   C36 3446   5.848   6.623  16.409 -0.1554 -0.3487 -0.4759
   27DOPE   H6X 3447   5.912   6.705  16.370  0.0028 -0.6732 -0.8975
   27DOPE   H6Y 3448   5.760   6.614  16.342 -0.4193  0.7931 -0.3118
   27DOPE   C37 3449   5.922   6.492  16.407  0.6946 -0.3550  0.3502
   27DOPE   H7X 3450   6.019   6.508  16.458  0.6133  0.0343  0.3847
   27DOPE   H7Y 3451   5.862   6.420  16.467 -1.5522  1.3819  0.3134
   27DOPE   C38 3452   5.932   6.437  16.261  0.5168  0.0111 -0.4265
   27DOPE   H8X 3453   6.004   6.503  16.208  0.9408  0.3830  0.5784
   27DOPE   H8Y 3454   5.836   6.443  16.206  1.1312  1.6451 -1.3905
   27DOPE   C39 3455   5.994   6.301  16.276  0.3931 -0.5272  1.0046
   27DOPE   H9X 3456   6.044   6.285  16.373  1.8530 -0.3182  0.3089
   27DOPE  C310 3457   5.984   6.205  16.184  0.3567 -0.7450  0.1542
   27DOPE  H10X 3458   6.031   6.106  16.197  0.6697 -0.5738  0.3241
   27DOPE  C311 3459   5.927   6.214  16.041 -0.0976 -0.2241  0.4300
   27DOPE  H11X 3460   5.820   6.187  16.035 -0.1145  0.1258 -1.8425
   27DOPE  H11Y 3461   5.943   6.316  15.999 -1.4017  0.2242  0.9902
   27DOPE  C312 3462   6.007   6.133  15.944  0.0878 -0.7575  0.0879
   27DOPE  H12X 3463   6.013   6.025  15.970  0.9509 -0.9346 -0.8008
   27DOPE  H12Y 3464   6.112   6.168  15.947 -0.7513  2.0721 -0.4818
   27DOPE  C313 3465   5.965   6.151  15.798 -0.0467 -0.0984 -0.0074
   27DOPE  H13X 3466   5.865   6.107  15.778 -0.1744 -0.3303  1.0603
   27DOPE  H13Y 3467   5.971   6.260  15.777  1.9097  0.3027  2.2144
   27DOPE  C314 3468   6.056   6.085  15.704  0.0196 -0.0060 -0.0390
   27DOPE  H14X 3469   6.067   5.977  15.730  0.8703 -0.1910 -1.0779
   27DOPE  H14Y 3470   6.158   6.125  15.724 -0.7432  1.2515  1.5255
   27DOPE  C315 3471   6.027   6.101  15.550  0.9536  0.2999  0.0122
   27DOPE  H15X 3472   6.123   6.081  15.499  1.1654 -1.7938  1.1318
   27DOPE  H15Y 3473   6.003   6.207  15.525  1.6305  0.1608 -1.3130
   27DOPE  C316 3474   5.926   5.995  15.488 -0.2112  0.9331 -0.2715
   27DOPE  H16X 3475   5.908   6.020  15.381 -1.7658 -3.5045 -1.2544
   27DOPE  H16Y 3476   5.834   5.999  15.550 -0.3057 -1.8963 -0.1264
   27DOPE  C317 3477   5.968   5.849  15.480 -0.6777 -0.0009  0.2658
   27DOPE  H17X 3478   6.072   5.849  15.439 -1.3793 -1.0339 -1.6327
   27DOPE  H17Y 3479   5.974   5.804  15.581  0.6387  0.6805  0.5157
   27DOPE  C318 3480   5.879   5.767  15.386  0.1531  0.3621  0.3609
   27DOPE  H18X 3481   5.868   5.815  15.286 -2.0680  2.3334  1.4620
   27DOPE  H18Y 3482   5.925   5.666  15.381 -0.7029 -0.2518  3.1400
   27DOPE  H18Z 3483   5.777   5.755  15.428  0.9192  0.5195  2.3801
   28DOPE     N 3484   6.980   5.987  17.285 -0.4983  0.3152  0.9207
   28DOPE   HN1 3485   7.066   6.039  17.257 -0.6170 -0.9431 -2.2021
   28DOPE   HN2 3486   6.902   6.053  17.304  0.4090  1.5261  0.6096
   28DOPE   HN3 3487   7.003   5.933  17.371  3.0578  0.5457  0.2859
   28DOPE   C12 3488   6.935   5.897  17.170 -0.7711  0.5295 -0.0797
   28DOPE  H12A 3489   6.845   5.836  17.194  0.6524 -1.9290 -0.6385
   28DOPE  H12B 3490   7.010   5.815  17.160 -1.8763 -0.2333 -3.2076
   28DOPE   C11 3491   6.918   5.989  17.049  0.3729 -0.4481  0.4227
   28DOPE  H11A 3492   6.880   5.932  16.962 -2.3095 -1.9350  2.4294
   28DOPE  H11B 3493   7.018   6.027  17.019  0.0071 -0.2803 -0.6361
   28DOPE     P 3494   6.696   6.123  17.004 -0.0844 -0.1154 -0.2524
   28DOPE   O13 3495   6.619   6.223  17.089 -0.1629  0.2557  0.3919
   28DOPE   O14 3496   6.630   5.994  16.987  0.0759  0.2495 -0.1861
   28DOPE   O11 3497   6.736   6.191  16.875  0.4173  0.5759 -0.2994
   28DOPE   O12 3498   6.833   6.097  17.075  0.0792 -0.4476 -0.9146
   28DOPE    C1 3499   6.798   6.144  16.759  0.3031  0.5754  0.4523
   28DOPE    HA 3500   6.729   6.090  16.691 -0.3506  0.0031  1.5315
   28DOPE    HB 3501   6.876   6.069  16.785  0.1265  0.0377 -0.5249
   28DOPE    C2 3502   6.867   6.268  16.683  0.1946  0.6360 -0.0413
   28DOPE    HS 3503   6.944   6.297  16.757 -0.1026 -1.0314  0.9809
   28DOPE   O21 3504   6.768   6.370  16.660  0.1920  0.0018 -0.0510
   28DOPE   C21 3505   6.749   6.468  16.743 -0.3105  0.3210  0.9142
   28DOPE   O22 3506   6.814   6.491  16.844 -0.1197 -0.3169  0.4939
   28DOPE   C22 3507   6.642   6.561  16.684  0.8339 -0.6438 -0.1651
   28DOPE   H2R 3508   6.610   6.630  16.765  0.9627  0.3393 -0.9274
   28DOPE   H2S 3509   6.550   6.501  16.668  0.8255 -1.2537  1.8609
   28DOPE    C3 3510   6.924   6.225  16.542 -0.2681 -0.6006  0.2880
   28DOPE    HX 3511   6.837   6.180  16.491 -0.5728 -0.4181  0.6381
   28DOPE    HY 3512   7.008   6.157  16.566  0.5218  0.1499 -0.2578
   28DOPE   O31 3513   6.964   6.340  16.472 -0.1434 -0.0660 -0.3953
   28DOPE   C31 3514   7.091   6.381  16.481  0.1105  0.0218 -0.1999
   28DOPE   O32 3515   7.183   6.316  16.530 -0.1221 -0.0823  0.5125
   28DOPE   C32 3516   7.111   6.506  16.402 -0.3985 -0.3682 -0.3820
   28DOPE   H2X 3517   7.012   6.550  16.379 -0.6580  0.5127  2.0973
   28DOPE   H2Y 3518   7.160   6.570  16.479 -2.0811 -1.7719  1.9861
   28DOPE   C23 3519   6.699   6.641  16.564 -0.2734  0.4132 -0.4791
   28DOPE   H3R 3520   6.617   6.702  16.522  0.4947  2.4134  0.7418
   28DOPE   H3S 3521   6.732   6.574  16.482 -0.4176  1.8508 -1.7520
   28DOPE   C24 3522   6.802   6.745  16.606  0.2073  0.5082 -0.0132
   28DOPE   H4R 3523   6.897   6.695  16.637 -0.3673 -0.7507 -0.2105
   28DOPE   H4S 3524   6.766   6.807  16.691 -0.8385 -0.8764  0.5983
   28DOPE   C25 3525   6.835   6.845  16.488 -0.0289  1.1121  0.2864
   28DOPE   H5R 3526   6.909   6.924  16.514 -0.7053  2.5031 -1.7656
   28DOPE   H5S 3527   6.738   6.898  16.478  0.0589  1.0098 -1.3396
   28DOPE   C26 3528   6.868   6.790  16.350 -0.5040  0.2777  0.3226
   28DOPE   H6R 3529   6.802   6.702  16.333  0.1233 -0.1012 -0.1959
   28DOPE   H6S 3530   6.970   6.746  16.350 -0.4156  0.4156 -1.5322
   28DOPE   C27 3531   6.845   6.879  16.228 -0.6997  0.0568 -0.6463
   28DOPE   H7R 3532   6.912   6.967  16.237  2.9300 -2.2968 -2.2113
   28DOPE   H7S 3533   6.739   6.913  16.226 -0.7325  0.0369  0.4531
   28DOPE   C28 3534   6.867   6.805  16.094  0.3931  0.1091  0.2353
   28DOPE   H8R 3535   6.810   6.712  16.110 -1.3857  1.0177 -0.5929
   28DOPE   H8S 3536   6.975   6.786  16.073  0.0612 -0.3020 -1.2349
   28DOPE   C29 3537   6.813   6.883  15.971 -0.1305 -0.5093 -0.2025
   28DOPE   H9R 3538   6.706   6.866  15.953 -0.4545  1.8764 -0.7929
   28DOPE  C210 3539   6.886   6.942  15.870 -0.3011  0.2271 -0.5741
   28DOPE  H10R 3540   6.827   6.990  15.790 -0.2471  0.5295 -0.4334
   28DOPE  C211 3541   7.037   6.966  15.862  1.1808 -0.4856  0.0126
   28DOPE  H11R 3542   7.099   6.875  15.850  0.1146 -1.1845 -0.2865
   28DOPE  H11S 3543   7.069   7.032  15.945 -1.4031  1.7608 -0.6309
   28DOPE  C212 3544   7.060   7.046  15.729  0.1110  0.0418  0.3230
   28DOPE  H12R 3545   7.164   7.085  15.736  0.1361  0.2518 -0.9757
   28DOPE  H12S 3546   7.001   7.139  15.711 -0.5995 -0.6884 -1.4458
   28DOPE  C213 3547   7.042   6.968  15.600 -0.3691 -0.5838  0.4220
   28DOPE  H13R 3548   6.932   6.951  15.595 -0.4975  0.0296  1.0326
   28DOPE  H13S 3549   7.091   6.868  15.601  1.1860  0.1487  1.3471
   28DOPE  C214 3550   7.081   7.039  15.469  0.2826  0.0326  0.2820
   28DOPE  H14R 3551   7.058   7.144  15.497  0.8184 -0.1799  1.5785
   28DOPE  H14S 3552   7.023   7.023  15.375  0.8390  1.0293 -0.2467
   28DOPE  C215 3553   7.223   7.015  15.421  0.0874 -0.2096  0.3580
   28DOPE  H15R 3554   7.246   7.081  15.334  1.2247 -3.2404 -1.8075
   28DOPE  H15S 3555   7.231   6.907  15.399 -0.2717 -0.0633 -0.5624
   28DOPE  C216 3556   7.334   7.051  15.522  0.5051  0.4243  0.3265
   28DOPE  H16R 3557   7.352   6.975  15.601  3.5410  1.9761  1.2562
   28DOPE  H16S 3558   7.311   7.150  15.566  0.5962  0.0991  1.1281
   28DOPE  C217 3559   7.475   7.061  15.454 -0.5721  0.2217 -0.7606
   28DOPE  H17R 3560   7.546   7.109  15.525 -1.1233 -0.4689  0.2794
   28DOPE  H17S 3561   7.479   7.126  15.364 -1.6179  3.1999  1.1856
   28DOPE  C218 3562   7.531   6.924  15.435 -0.5547 -0.4386 -0.2391
   28DOPE  H18R 3563   7.485   6.871  15.349  2.3395 -1.1498 -1.4673
   28DOPE  H18S 3564   7.528   6.851  15.519 -0.2601 -1.1282 -0.8141
   28DOPE  H18T 3565   7.638   6.928  15.408 -0.6061  0.8007 -0.2771
   28DOPE   C33 3566   7.198   6.476  16.280 -0.3660  0.1459 -0.6534
   28DOPE   H3X 3567   7.291   6.428  16.318  1.3751  0.9207 -3.6514
   28DOPE   H3Y 3568   7.213   6.577  16.236 -1.1202  1.0620  1.0955
   28DOPE   C34 3569   7.133   6.383  16.176 -0.9057  0.0353 -0.2572
   28DOPE   H4X 3570   7.194   6.368  16.084  0.6976  0.0488  0.7716
   28DOPE   H4Y 3571   7.136   6.279  16.214  0.4359 -0.6433 -2.0674
   28DOPE   C35 3572   6.993   6.422  16.130  0.6133  0.1358  0.1087
   28DOPE   H5X 3573   6.998   6.526  16.089 -2.8166  0.5906  0.6230
   28DOPE   H5Y 3574   6.941   6.430  16.227  0.2209 -0.3193 -0.0619
   28DOPE   C36 3575   6.929   6.318  16.040  0.0245 -0.0436 -0.5750
   28DOPE   H6X 3576   6.927   6.220  16.093 -2.1315  0.7744  1.0081
   28DOPE   H6Y 3577   6.993   6.309  15.950  1.2390  2.2517 -0.0193
   28DOPE   C37 3578   6.785   6.352  15.997 -0.3560 -0.4072  0.1014
   28DOPE   H7X 3579   6.749   6.263  15.940  1.0906 -1.4507  0.7457
   28DOPE   H7Y 3580   6.729   6.370  16.091  1.4008 -0.3682  1.1841
   28DOPE   C38 3581   6.777   6.482  15.907 -0.4628  0.9086  0.2349
   28DOPE   H8X 3582   6.824   6.564  15.965 -0.2423 -0.4538  2.0968
   28DOPE   H8Y 3583   6.670   6.513  15.905 -0.3375  1.3328  0.1789
   28DOPE   C39 3584   6.836   6.451  15.768  0.5074 -0.0360  0.0516
   28DOPE   H9X 3585   6.779   6.370  15.721  1.4341  0.0152 -1.2185
   28DOPE  C310 3586   6.947   6.505  15.709 -0.2772 -0.0099  0.2228
   28DOPE  H10X 3587   6.970   6.470  15.607 -0.3508 -0.4525  0.3566
   28DOPE  C311 3588   7.050   6.598  15.765 -0.5784  0.3277 -0.2842
   28DOPE  H11X 3589   7.063   6.678  15.689  1.4343 -1.6897 -2.1969
   28DOPE  H11Y 3590   7.002   6.654  15.849  0.0711  0.6780 -0.1401
   28DOPE  C312 3591   7.189   6.538  15.809  0.3372 -0.3708 -0.9029
   28DOPE  H12X 3592   7.220   6.472  15.725 -2.7759 -0.1219 -2.3994
   28DOPE  H12Y 3593   7.182   6.466  15.893 -0.6764  1.3444  0.5473
   28DOPE  C313 3594   7.283   6.654  15.832 -0.1827 -0.1370  0.0794
   28DOPE  H13X 3595   7.385   6.614  15.812 -0.4887 -0.5427 -0.6814
   28DOPE  H13Y 3596   7.263   6.738  15.761 -0.7574 -0.5105 -0.1994
   28DOPE  C314 3597   7.270   6.706  15.980 -0.2694  0.3819  0.2680
   28DOPE  H14X 3598   7.310   6.622  16.042 -0.4227  1.2552  1.6088
   28DOPE  H14Y 3599   7.162   6.703  16.006 -0.0444 -0.2294  1.2175
   28DOPE  C315 3600   7.341   6.845  16.013 -0.1640  0.3609 -0.0464
   28DOPE  H15X 3601   7.288   6.919  15.949 -0.4073 -0.1163 -0.3967
   28DOPE  H15Y 3602   7.448   6.836  15.985 -0.2784  0.6255 -0.5858
   28DOPE  C316 3603   7.340   6.881  16.161 -0.5386  0.2346 -0.2991
   28DOPE  H16X 3604   7.406   6.970  16.170 -0.4856  0.2749 -1.0351
   28DOPE  H16Y 3605   7.389   6.796  16.212 -0.6650 -0.2110 -0.9028
   28DOPE  C317 3606   7.205   6.901  16.225  0.5811  0.0700  0.2659
   28DOPE  H17X 3607   7.158   6.974  16.156 -0.3038 -2.3585 -1.8365
   28DOPE  H17Y 3608   7.132   6.818  16.217 -2.2152  2.2626  1.2707
   28DOPE  C318 3609   7.200   6.953  16.369  0.5972  0.1630 -0.6434
   28DOPE  H18X 3610   7.284   7.022  16.391 -0.5543  1.7061 -0.9067
   28DOPE  H18Y 3611   7.098   6.985  16.396  0.3284 -1.7543  0.7997
   28DOPE  H18Z 3612   7.203   6.863  16.433 -1.6804  1.2519  1.1488
   29DOPE     N 3613   7.279   0.760  17.073 -0.1776 -0.5045 -0.2893
   29DOPE   HN1 3614   7.366   0.707  17.089 -0.1127 -0.1383  0.6543
   29DOPE   HN2 3615   7.269   0.802  16.978 -2.1076 -2.8685 -1.2166
   29DOPE   HN3 3616   7.284   0.838  17.142 -0.6427 -1.3624  0.7361
   29DOPE   C12 3617   7.166   0.670  17.118 -1.0375 -0.6113 -0.1343
   29DOPE  H12A 3618   7.075   0.733  17.123 -0.5944 -0.0302  0.9279
   29DOPE  H12B 3619   7.197   0.625  17.215  1.5452  1.0865 -0.0862
   29DOPE   C11 3620   7.133   0.571  17.013 -0.1807  1.3013 -0.2902
   29DOPE  H11A 3621   7.112   0.612  16.913  0.3593 -1.6283 -1.7161
   29DOPE  H11B 3622   7.045   0.515  17.052 -1.2026  2.5098 -0.8077
   29DOPE     P 3623   7.352   0.467  16.890 -0.1195  0.1552  0.0370
   29DOPE   O13 3624   7.440   0.352  16.921  0.1377 -0.6087 -0.1516
   29DOPE   O14 3625   7.413   0.597  16.863 -0.3723 -0.6372 -0.4012
   29DOPE   O11 3626   7.255   0.425  16.771 -0.0654  0.3892 -0.2254
   29DOPE   O12 3627   7.245   0.486  17.009 -0.5026  0.8010  0.0373
   29DOPE    C1 3628   7.195   0.295  16.775 -0.7095 -0.2141  0.0506
   29DOPE    HA 3629   7.093   0.294  16.730 -0.2695 -1.8808 -0.9871
   29DOPE    HB 3630   7.189   0.262  16.881  1.0569  0.7363  0.4888
   29DOPE    C2 3631   7.265   0.189  16.688  0.2519  1.6724  0.4438
   29DOPE    HS 3632   7.367   0.174  16.730  0.1571  1.5957  0.6496
   29DOPE   O21 3633   7.276   0.236  16.554  0.2822 -0.4181  0.2642
   29DOPE   C21 3634   7.386   0.226  16.494  0.3116 -0.6714  0.2909
   29DOPE   O22 3635   7.487   0.169  16.522 -0.1102  0.1795 -0.8741
   29DOPE   C22 3636   7.368   0.309  16.374  0.2290  0.2419  0.3683
   29DOPE   H2R 3637   7.342   0.413  16.403  0.6225  0.8273 -1.2427
   29DOPE   H2S 3638   7.287   0.279  16.304  1.3855  2.1143 -1.9152
   29DOPE    C3 3639   7.190   0.052  16.701  0.7227  0.4765  0.5508
   29DOPE    HX 3640   7.081   0.061  16.686  0.3802 -0.3989  2.2650
   29DOPE    HY 3641   7.200   0.001  16.799 -0.3713 -1.0206 -0.0722
   29DOPE   O31 3642   7.237  -0.034  16.599 -0.0572  0.9459 -0.2431
   29DOPE   C31 3643   7.354  -0.092  16.623  0.4405  0.9643 -0.3341
   29DOPE   O32 3644   7.403  -0.099  16.734  0.0789  1.1543  0.5079
   29DOPE   C32 3645   7.433  -0.141  16.503  0.1704 -0.6856  0.6325
   29DOPE   H2X 3646   7.384  -0.115  16.407 -0.4236 -2.0356  0.5567
   29DOPE   H2Y 3647   7.529  -0.086  16.517  0.0968 -0.7870  1.5478
   29DOPE   C23 3648   7.483   0.330  16.280 -0.7044  0.0857  0.0317
   29DOPE   H3R 3649   7.534   0.233  16.258 -0.2677  0.3194  0.0098
   29DOPE   H3S 3650   7.556   0.406  16.314 -1.0039  0.5422 -0.3211
   29DOPE   C24 3651   7.441   0.385  16.145  0.3169 -0.5493  0.0735
   29DOPE   H4R 3652   7.353   0.329  16.108  1.2007 -0.3078 -2.6850
   29DOPE   H4S 3653   7.511   0.365  16.060 -0.6050  1.5247 -1.2576
   29DOPE   C25 3654   7.421   0.538  16.159 -0.0036  0.5787 -0.2196
   29DOPE   H5R 3655   7.515   0.597  16.171  0.1702  0.3587 -0.4757
   29DOPE   H5S 3656   7.361   0.562  16.249 -1.6639 -1.2951 -0.7530
   29DOPE   C26 3657   7.359   0.608  16.034  0.3306  0.1781  0.4190
   29DOPE   H6R 3658   7.261   0.561  16.008 -0.3112  0.7327  1.7185
   29DOPE   H6S 3659   7.428   0.590  15.950 -0.8666 -0.5613 -0.4448
   29DOPE   C27 3660   7.321   0.748  16.067 -0.9113  0.0567 -0.4659
   29DOPE   H7R 3661   7.409   0.790  16.122 -0.7019 -1.0081  0.0336
   29DOPE   H7S 3662   7.243   0.743  16.147 -1.2817 -1.2501 -0.8872
   29DOPE   C28 3663   7.260   0.837  15.953  0.3678 -0.2371  0.1638
   29DOPE   H8R 3664   7.198   0.912  16.006  2.2073  1.1003  0.5229
   29DOPE   H8S 3665   7.202   0.764  15.893  1.4476 -1.6798  0.8054
   29DOPE   C29 3666   7.354   0.908  15.861  0.3482 -0.1315  0.3224
   29DOPE   H9R 3667   7.425   0.974  15.913  2.7023 -2.1793 -0.1237
   29DOPE  C210 3668   7.371   0.898  15.728  0.2214 -0.1002  0.3116
   29DOPE  H10R 3669   7.456   0.945  15.677  0.5979 -3.8571 -3.0120
   29DOPE  C211 3670   7.280   0.811  15.632 -0.4301 -0.2532  0.0281
   29DOPE  H11R 3671   7.215   0.752  15.700 -1.8245  1.3484  0.1492
   29DOPE  H11S 3672   7.340   0.736  15.576 -1.1502 -0.6724 -0.2038
   29DOPE  C212 3673   7.192   0.897  15.527 -0.4562 -0.2586 -0.5596
   29DOPE  H12R 3674   7.151   0.990  15.573  1.5757  0.6284 -0.4354
   29DOPE  H12S 3675   7.094   0.848  15.508  0.6084 -2.2013 -1.2354
   29DOPE  C213 3676   7.264   0.935  15.397 -0.5977  0.0924  0.7180
   29DOPE  H13R 3677   7.188   1.002  15.350 -1.2115 -0.0842  1.4449
   29DOPE  H13S 3678   7.286   0.848  15.331  1.3286  2.9951 -2.8432
   29DOPE  C214 3679   7.391   1.017  15.413  0.0533  0.4070  0.6926
   29DOPE  H14R 3680   7.476   0.955  15.450 -0.4028  0.6368  2.1865
   29DOPE  H14S 3681   7.373   1.097  15.487 -0.6686  0.7369  0.1749
   29DOPE  C215 3682   7.426   1.069  15.270 -0.2674  0.7773 -0.4280
   29DOPE  H15R 3683   7.532   1.100  15.281  0.5124 -1.7131 -0.3227
   29DOPE  H15S 3684   7.366   1.158  15.242 -3.0071 -0.4250  1.2541
   29DOPE  C216 3685   7.425   0.969  15.155 -0.1035 -0.2328  0.4835
   29DOPE  H16R 3686   7.317   0.952  15.131 -0.2713 -2.0584  2.2193
   29DOPE  H16S 3687   7.468   0.867  15.168  0.4981 -0.2455 -1.3908
   29DOPE  C217 3688   7.505   1.024  15.032  0.4860  0.1995  0.5634
   29DOPE  H17R 3689   7.612   0.995  15.042  0.1821 -0.6958  1.3209
   29DOPE  H17S 3690   7.490   1.134  15.018 -1.3914 -0.1572 -0.6263
   29DOPE  C218 3691   7.460   0.963  14.897 -0.2650  0.1432 -0.7360
   29DOPE  H18R 3692   7.355   0.978  14.862 -0.9929 -1.2789  0.7015
   29DOPE  H18S 3693   7.454   0.852  14.906  2.3381 -0.0235 -0.3220
   29DOPE  H18T 3694   7.537   0.993  14.822  2.3060 -0.1833  1.6169
   29DOPE   C33 3695   7.453  -0.292  16.488  0.6565 -0.3117  0.3962
   29DOPE   H3X 3696   7.359  -0.350  16.481  1.4625 -1.7525  1.1129
   29DOPE   H3Y 3697   7.491  -0.331  16.585 -1.4082 -0.5201  1.1592
   29DOPE   C34 3698   7.546  -0.327  16.367  0.5036 -0.2811 -0.4416
   29DOPE   H4X 3699   7.493  -0.295  16.274 -0.2804  1.6977  0.6187
   29DOPE   H4Y 3700   7.640  -0.271  16.388  0.3850 -0.2103 -0.0880
   29DOPE   C35 3701   7.588  -0.470  16.355 -0.1242 -0.6713  0.5878
   29DOPE   H5X 3702   7.502  -0.538  16.338  1.4312 -2.4472 -0.6173
   29DOPE   H5Y 3703   7.637  -0.508  16.447 -0.7439  0.2171  1.3060
   29DOPE   C36 3704   7.686  -0.493  16.235  0.6471 -0.6280 -0.9109
   29DOPE   H6X 3705   7.779  -0.440  16.263 -1.3904  1.8347  1.7587
   29DOPE   H6Y 3706   7.648  -0.426  16.155  0.0074  1.1412  0.8068
   29DOPE   C37 3707   7.719  -0.637  16.210  0.8197  0.1186  0.1932
   29DOPE   H7X 3708   7.759  -0.692  16.298 -0.1908 -1.6147 -0.4015
   29DOPE   H7Y 3709   7.626  -0.685  16.175 -0.0564  1.6093  0.3823
   29DOPE   C38 3710   7.835  -0.639  16.104  0.3327  0.3975  0.2242
   29DOPE   H8X 3711   7.925  -0.608  16.160  0.5490 -1.3762  0.9434
   29DOPE   H8Y 3712   7.812  -0.567  16.023  0.8349 -0.0694 -0.3444
   29DOPE   C39 3713   7.847  -0.779  16.057  0.4717 -0.0928 -0.7091
   29DOPE   H9X 3714   7.925  -0.838  16.106  0.2292 -1.1891 -1.6012
   29DOPE  C310 3715   7.789  -0.829  15.946  0.6872  0.1384  0.6777
   29DOPE  H10X 3716   7.772  -0.938  15.946  0.6073  0.1497  1.3319
   29DOPE  C311 3717   7.705  -0.753  15.839  0.1675  0.0006  0.1632
   29DOPE  H11X 3718   7.641  -0.828  15.788 -0.6826 -0.7471  2.2262
   29DOPE  H11Y 3719   7.638  -0.676  15.882  0.4229 -0.0966  0.7417
   29DOPE  C312 3720   7.792  -0.693  15.730 -0.6626 -0.5095  0.2687
   29DOPE  H12X 3721   7.859  -0.613  15.768 -2.1514  0.6565  0.5860
   29DOPE  H12Y 3722   7.731  -0.651  15.647  2.2973  1.3558 -1.1035
   29DOPE  C313 3723   7.865  -0.803  15.646  0.0050 -0.0636 -0.6628
   29DOPE  H13X 3724   7.948  -0.853  15.700  1.1670  1.5477 -0.8706
   29DOPE  H13Y 3725   7.787  -0.879  15.621 -1.3703  2.2220 -4.1533
   29DOPE  C314 3726   7.920  -0.738  15.516 -0.1944  0.5498  0.3135
   29DOPE  H14X 3727   7.987  -0.654  15.546 -0.7430  1.3166 -0.5523
   29DOPE  H14Y 3728   7.835  -0.698  15.457 -0.6204 -1.3457 -0.4297
   29DOPE  C315 3729   7.989  -0.845  15.438 -0.5241  0.7084 -0.1486
   29DOPE  H15X 3730   7.913  -0.922  15.413  0.4314 -1.2248  2.4052
   29DOPE  H15Y 3731   8.074  -0.894  15.491 -1.3923  0.3171  0.9429
   29DOPE  C316 3732   8.050  -0.795  15.311  0.6246  0.1468 -0.5594
   29DOPE  H16X 3733   8.109  -0.702  15.322  0.2254  0.1850  1.4904
   29DOPE  H16Y 3734   7.969  -0.762  15.243  2.1190  0.9995 -2.0100
   29DOPE  C317 3735   8.127  -0.905  15.248 -0.5760  0.1444  0.2628
   29DOPE  H17X 3736   8.232  -0.895  15.283 -0.1601  2.1611 -1.3992
   29DOPE  H17Y 3737   8.095  -1.009  15.269  0.0549  0.1770  1.5012
   29DOPE  C318 3738   8.127  -0.892  15.097 -0.2688 -0.4536  0.2334
   29DOPE  H18X 3739   8.116  -0.786  15.065  0.7223  0.2269  1.9911
   29DOPE  H18Y 3740   8.221  -0.937  15.059 -0.6293 -3.0689  2.2055
   29DOPE  H18Z 3741   8.042  -0.943  15.048 -1.6459  1.8486  0.0822
   30DOPE     N 3742   1.325   7.375  16.873  0.0090  0.0175 -0.9878
   30DOPE   HN1 3743   1.290   7.330  16.786  0.6073 -1.4229 -0.5045
   30DOPE   HN2 3744   1.408   7.436  16.857  0.8553 -0.4947  1.1522
   30DOPE   HN3 3745   1.363   7.297  16.930 -1.7601  0.7048  1.2725
   30DOPE   C12 3746   1.228   7.437  16.967  0.0771  0.4723 -0.1160
   30DOPE  H12A 3747   1.278   7.507  17.039 -0.5831  1.4884 -0.6163
   30DOPE  H12B 3748   1.183   7.351  17.021  0.8513  0.5813  0.7235
   30DOPE   C11 3749   1.125   7.520  16.870  0.2907  0.0256 -0.6902
   30DOPE  H11A 3750   1.189   7.589  16.810  0.9760  0.5427  0.5874
   30DOPE  H11B 3751   1.066   7.591  16.933  0.5741  1.7489 -2.2705
   30DOPE     P 3752   0.905   7.376  16.849 -0.4172  0.0175  0.3740
   30DOPE   O13 3753   0.845   7.478  16.940  0.2655  0.1956  0.4688
   30DOPE   O14 3754   0.925   7.242  16.908  0.2100  0.3020 -0.2478
   30DOPE   O11 3755   0.824   7.368  16.714 -0.2432  0.0399  0.7481
   30DOPE   O12 3756   1.043   7.434  16.791 -0.7455 -0.2946 -0.4431
   30DOPE    C1 3757   0.812   7.486  16.640  0.2985 -0.3885  0.1517
   30DOPE    HA 3758   0.813   7.471  16.530  0.4123  1.0094 -0.0518
   30DOPE    HB 3759   0.901   7.550  16.656  0.1060 -0.3837  1.2784
   30DOPE    C2 3760   0.680   7.553  16.670  0.1985 -0.7109  0.0466
   30DOPE    HS 3761   0.670   7.573  16.779  1.2684 -1.3496  0.2730
   30DOPE   O21 3762   0.580   7.467  16.609 -0.3011 -0.0438 -0.1232
   30DOPE   C21 3763   0.452   7.511  16.601 -0.6000 -0.0633  0.1778
   30DOPE   O22 3764   0.398   7.604  16.656 -0.0361  0.4543 -0.4525
   30DOPE   C22 3765   0.366   7.420  16.511 -0.1289 -0.2944  0.0677
   30DOPE   H2R 3766   0.263   7.405  16.550 -0.4154 -2.8798 -1.4515
   30DOPE   H2S 3767   0.408   7.318  16.504  1.2427  0.2390  0.2596
   30DOPE    C3 3768   0.687   7.698  16.605  0.7540  0.2731  0.1255
   30DOPE    HX 3769   0.786   7.740  16.635  0.2967  0.4058  1.5251
   30DOPE    HY 3770   0.605   7.763  16.641 -0.5846 -0.5478 -1.3485
   30DOPE   O31 3771   0.679   7.685  16.463  0.4229 -0.0943 -0.2737
   30DOPE   C31 3772   0.678   7.810  16.397  0.5097 -0.1996 -0.0156
   30DOPE   O32 3773   0.676   7.911  16.460 -0.1214 -0.2537 -0.4633
   30DOPE   C32 3774   0.663   7.788  16.245  0.5738 -0.7100  0.8674
   30DOPE   H2X 3775   0.742   7.716  16.213 -0.6075 -1.0678 -1.4295
   30DOPE   H2Y 3776   0.569   7.735  16.219  0.7289 -0.2657 -0.6611
   30DOPE   C23 3777   0.350   7.476  16.370 -0.4730 -0.3770 -0.5024
   30DOPE   H3R 3778   0.316   7.581  16.379 -2.7258 -1.1849  1.4818
   30DOPE   H3S 3779   0.266   7.418  16.325 -1.2003  0.6543 -0.4996
   30DOPE   C24 3780   0.484   7.476  16.286 -0.0279 -0.1013 -0.6104
   30DOPE   H4R 3781   0.565   7.533  16.337 -0.0290  1.5622 -2.3691
   30DOPE   H4S 3782   0.470   7.527  16.189  1.2434  3.0997  0.7348
   30DOPE   C25 3783   0.535   7.335  16.263  0.0009 -0.2313 -0.0861
   30DOPE   H5R 3784   0.448   7.266  16.265  0.0135 -0.2494 -0.1477
   30DOPE   H5S 3785   0.599   7.305  16.349  1.5596  1.3486 -0.6509
   30DOPE   C26 3786   0.627   7.309  16.142  0.5705  0.2638  0.7650
   30DOPE   H6R 3787   0.568   7.326  16.050  1.4641  2.9711  0.5824
   30DOPE   H6S 3788   0.666   7.206  16.151  1.2795  0.5020  0.5228
   30DOPE   C27 3789   0.753   7.401  16.142 -0.8198 -0.1039  0.2497
   30DOPE   H7R 3790   0.799   7.402  16.243 -1.7697  1.4220  0.6907
   30DOPE   H7S 3791   0.717   7.503  16.118  0.7125  0.0991 -1.4227
   30DOPE   C28 3792   0.857   7.343  16.048  0.0940 -0.2191  0.7570
   30DOPE   H8R 3793   0.886   7.243  16.089  0.1734 -0.3910  0.2866
   30DOPE   H8S 3794   0.951   7.402  16.051 -0.6288  0.9336  0.9873
   30DOPE   C29 3795   0.810   7.324  15.904 -0.2668 -0.3285 -0.4478
   30DOPE   H9R 3796   0.800   7.421  15.852  0.1088 -0.3398 -0.5501
   30DOPE  C210 3797   0.763   7.217  15.842  0.1449  0.5657 -0.1098
   30DOPE  H10R 3798   0.709   7.237  15.748  2.6173  0.0633 -1.7087
   30DOPE  C211 3799   0.744   7.082  15.900 -0.3723  0.2891 -0.4029
   30DOPE  H11R 3800   0.745   7.083  16.011  0.3851 -0.5210 -0.3888
   30DOPE  H11S 3801   0.830   7.018  15.868 -0.0109  1.0023 -0.8826
   30DOPE  C212 3802   0.624   7.002  15.842  0.0978 -0.0417  0.7542
   30DOPE  H12R 3803   0.530   7.052  15.871 -0.5824 -0.2946 -0.9433
   30DOPE  H12S 3804   0.622   6.908  15.901  0.5411 -0.3347  0.3115
   30DOPE  C213 3805   0.624   6.986  15.690 -0.1817 -0.6905 -0.2211
   30DOPE  H13R 3806   0.625   7.081  15.632 -0.4911 -2.8061 -3.9802
   30DOPE  H13S 3807   0.527   6.941  15.661  0.0054  0.1611 -2.3351
   30DOPE  C214 3808   0.737   6.902  15.633  0.1543  0.4211 -0.2538
   30DOPE  H14R 3809   0.727   6.797  15.666 -0.2169  0.3139 -0.7002
   30DOPE  H14S 3810   0.833   6.936  15.677  0.1461  1.4662 -1.0060
   30DOPE  C215 3811   0.740   6.902  15.478 -0.0103 -0.4671 -0.1850
   30DOPE  H15R 3812   0.760   7.007  15.448  0.1947 -0.3019  0.5347
   30DOPE  H15S 3813   0.654   6.856  15.424 -1.0189  1.6821 -0.5060
   30DOPE  C216 3814   0.876   6.843  15.426  0.2339  0.3308  0.1000
   30DOPE  H16R 3815   0.879   6.732  15.438 -2.4264  0.0048 -1.3640
   30DOPE  H16S 3816   0.957   6.888  15.487  0.1973  1.5540 -0.7120
   30DOPE  C217 3817   0.900   6.875  15.275 -0.2403 -0.5279  0.0563
   30DOPE  H17R 3818   0.934   6.981  15.265  2.4557 -1.0476  2.3690
   30DOPE  H17S 3819   0.807   6.870  15.216 -0.5940  1.2058  0.3925
   30DOPE  C218 3820   1.001   6.781  15.212  0.1395  0.4104 -0.7885
   30DOPE  H18R 3821   0.966   6.677  15.230 -1.6882  0.5509 -3.0943
   30DOPE  H18S 3822   1.100   6.786  15.263 -1.3987  2.4176  2.2941
   30DOPE  H18T 3823   1.014   6.800  15.103  1.4863 -1.8642 -1.1088
   30DOPE   C33 3824   0.673   7.918  16.157  0.1253 -0.0660  0.2960
   30DOPE   H3X 3825   0.744   7.988  16.205  0.4034  0.0049 -0.2092
   30DOPE   H3Y 3826   0.568   7.956  16.159 -0.4920 -1.6869  2.3403
   30DOPE   C34 3827   0.716   7.885  16.012  0.0169  0.4256  0.4959
   30DOPE   H4X 3828   0.720   7.986  15.966 -0.2711  0.7498  1.1669
   30DOPE   H4Y 3829   0.825   7.861  16.018 -0.2287 -0.6868  0.6557
   30DOPE   C35 3830   0.641   7.786  15.924 -0.4913  0.4190  0.2476
   30DOPE   H5X 3831   0.542   7.836  15.932  0.1653  1.5894  1.5496
   30DOPE   H5Y 3832   0.631   7.684  15.967 -2.1405  0.3864 -0.1183
   30DOPE   C36 3833   0.702   7.786  15.777  0.0391 -0.1776  0.4364
   30DOPE   H6X 3834   0.806   7.749  15.786  0.1374 -0.5484 -1.6906
   30DOPE   H6Y 3835   0.695   7.891  15.739 -0.1418 -1.3987 -3.3043
   30DOPE   C37 3836   0.622   7.694  15.686 -0.0900  0.7574 -0.9462
   30DOPE   H7X 3837   0.630   7.590  15.724  2.5415  1.1999 -0.0783
   30DOPE   H7Y 3838   0.517   7.731  15.696  0.1986  0.9923  2.4060
   30DOPE   C38 3839   0.666   7.702  15.535 -0.0416  0.5057  0.4925
   30DOPE   H8X 3840   0.756   7.638  15.528 -0.5752 -0.4709  2.0453
   30DOPE   H8Y 3841   0.697   7.807  15.518  0.4906  0.5014  1.3457
   30DOPE   C39 3842   0.555   7.682  15.438 -0.6076  0.3128 -0.3027
   30DOPE   H9X 3843   0.478   7.761  15.429 -1.3395 -0.4852 -1.2193
   30DOPE  C310 3844   0.544   7.579  15.359 -0.3902  0.2524  0.4023
   30DOPE  H10X 3845   0.457   7.578  15.292  0.9626  1.9567 -1.5146
   30DOPE  C311 3846   0.639   7.461  15.357  0.0134  0.6056 -0.0601
   30DOPE  H11X 3847   0.700   7.457  15.264 -0.6984  0.5925 -0.5312
   30DOPE  H11Y 3848   0.708   7.456  15.444 -0.2530 -3.4876  0.1291
   30DOPE  C312 3849   0.565   7.329  15.377  0.3016 -0.0037  0.2736
   30DOPE  H12X 3850   0.489   7.336  15.457 -0.8962 -3.4908 -0.4080
   30DOPE  H12Y 3851   0.638   7.251  15.406  0.3401  0.0193  0.2396
   30DOPE  C313 3852   0.482   7.292  15.252 -0.2346 -0.0260  0.3590
   30DOPE  H13X 3853   0.405   7.219  15.286 -0.9199 -0.1940 -1.4396
   30DOPE  H13Y 3854   0.426   7.380  15.215  1.5397  2.0112  2.1897
   30DOPE  C314 3855   0.561   7.234  15.133 -0.2964  0.6286  0.7027
   30DOPE  H14X 3856   0.639   7.163  15.166  0.7868  1.4483 -0.0059
   30DOPE  H14Y 3857   0.618   7.317  15.086  1.5654 -0.4827  0.8741
   30DOPE  C315 3858   0.464   7.174  15.032  0.1084  0.5908  0.3498
   30DOPE  H15X 3859   0.390   7.108  15.082 -0.5946  0.2613 -1.0686
   30DOPE  H15Y 3860   0.526   7.116  14.959 -2.0725 -0.3594 -0.8467
   30DOPE  C316 3861   0.383   7.273  14.947  0.4182 -0.0442  0.2184
   30DOPE  H16X 3862   0.453   7.353  14.914  2.0435 -0.3065  2.7043
   30DOPE  H16Y 3863   0.312   7.322  15.017  0.0577  1.0143 -0.8569
   30DOPE  C317 3864   0.317   7.203  14.826 -0.2692  0.0999 -0.0637
   30DOPE  H17X 3865   0.390   7.173  14.748  0.1186 -1.5736  0.8888
   30DOPE  H17Y 3866   0.263   7.111  14.856 -0.8856  0.9167  1.4575
   30DOPE  C318 3867   0.218   7.297  14.756  0.1626  1.0451  1.0929
   30DOPE  H18X 3868   0.127   7.315  14.817  0.4951  1.3032  1.5169
   30DOPE  H18Y 3869   0.264   7.397  14.742 -0.7518  1.7115  2.6115
   30DOPE  H18Z 3870   0.181   7.246  14.665  0.2752 -0.6711  1.9575
   31DOPE     N 3871   2.205   2.592  12.651 -0.4165  0.2915 -0.4253
   31DOPE   HN1 3872   2.200   2.619  12.551  1.4053  1.3890 -0.2738
   31DOPE   HN2 3873   2.303   2.610  12.682 -0.6324  1.1884 -0.2244
   31DOPE   HN3 3874   2.192   2.489  12.660 -0.9111  0.4522  0.8590
   31DOPE   C12 3875   2.119   2.654  12.744  0.6375  0.2780  0.4553
   31DOPE  H12A 3876   2.013   2.632  12.717  1.5004 -4.2422  0.0948
   31DOPE  H12B 3877   2.128   2.765  12.735 -1.5983  0.3059 -3.3401
   31DOPE   C11 3878   2.155   2.623  12.890 -1.1970  0.3547  0.5427
   31DOPE  H11A 3879   2.155   2.513  12.909  0.1221  0.2723  0.1556
   31DOPE  H11B 3880   2.074   2.662  12.955 -0.9950 -1.1712  1.7568
   31DOPE     P 3881   2.311   2.814  12.978  0.3381 -0.1282 -0.1938
   31DOPE   O13 3882   2.174   2.873  13.006 -0.9487 -0.2699 -0.0154
   31DOPE   O14 3883   2.408   2.886  12.892 -0.0562  0.1213 -0.1199
   31DOPE   O11 3884   2.377   2.789  13.116 -0.0220 -0.0732 -0.3551
   31DOPE   O12 3885   2.289   2.672  12.921 -0.2243 -0.3036 -0.4120
   31DOPE    C1 3886   2.479   2.693  13.154  0.5012 -0.7230 -0.4066
   31DOPE    HA 3887   2.551   2.746  13.220 -1.0709  1.9016 -0.6302
   31DOPE    HB 3888   2.532   2.669  13.060  0.4312  0.9973 -0.9268
   31DOPE    C2 3889   2.418   2.569  13.220 -0.1106  0.5132  0.0128
   31DOPE    HS 3890   2.351   2.525  13.143  0.6234  0.2098 -0.4720
   31DOPE   O21 3891   2.356   2.621  13.336 -0.1345  0.9534  0.0473
   31DOPE   C21 3892   2.239   2.571  13.365 -0.6307 -0.2050 -0.1547
   31DOPE   O22 3893   2.180   2.484  13.301 -0.6539  0.1732 -0.4652
   31DOPE   C22 3894   2.170   2.638  13.488 -0.8696  1.0861 -0.1647
   31DOPE   H2R 3895   2.105   2.710  13.433 -0.5322 -0.4938 -2.8456
   31DOPE   H2S 3896   2.250   2.687  13.548  1.0341 -0.4093 -1.3433
   31DOPE    C3 3897   2.532   2.473  13.260  0.1671 -0.6475 -0.3646
   31DOPE    HX 3898   2.569   2.518  13.355 -0.7136 -0.8942  0.1087
   31DOPE    HY 3899   2.618   2.457  13.191  0.6388 -3.7975  0.7981
   31DOPE   O31 3900   2.464   2.357  13.314  0.3148  0.3932  0.2169
   31DOPE   C31 3901   2.456   2.248  13.242 -0.5567  0.3670  0.0163
   31DOPE   O32 3902   2.511   2.238  13.133  0.3912  0.9015 -0.2621
   31DOPE   C32 3903   2.390   2.133  13.311  0.3315 -1.2028  0.0471
   31DOPE   H2X 3904   2.458   2.110  13.395  1.0833  0.6876  0.0077
   31DOPE   H2Y 3905   2.293   2.162  13.356 -0.2105 -0.7413 -1.3635
   31DOPE   C23 3906   2.087   2.548  13.579  0.1640  0.0880  0.1128
   31DOPE   H3R 3907   2.155   2.478  13.632 -0.2909 -0.3585  0.1111
   31DOPE   H3S 3908   2.019   2.483  13.520 -0.5892 -0.0546  1.1060
   31DOPE   C24 3909   1.993   2.625  13.668  0.0048  0.7847 -0.6799
   31DOPE   H4R 3910   1.898   2.648  13.616 -1.6391  1.4569  2.3596
   31DOPE   H4S 3911   2.045   2.720  13.691  0.3477  0.1505  1.4058
   31DOPE   C25 3912   1.965   2.558  13.806  0.4631 -0.2099  0.1364
   31DOPE   H5R 3913   2.056   2.525  13.862  0.6616  1.3303  0.7759
   31DOPE   H5S 3914   1.912   2.463  13.782 -0.3232  0.5472 -1.2411
   31DOPE   C26 3915   1.886   2.651  13.890 -0.0787  0.3477  0.2517
   31DOPE   H6R 3916   1.793   2.668  13.833  0.0490 -1.2987 -0.4990
   31DOPE   H6S 3917   1.937   2.747  13.917 -0.9475  1.2899 -1.3387
   31DOPE   C27 3918   1.843   2.598  14.030  0.2444 -0.1244 -0.8252
   31DOPE   H7R 3919   1.946   2.580  14.068  0.8459  0.9253 -1.9004
   31DOPE   H7S 3920   1.802   2.495  14.022 -0.5710  0.1828 -0.6575
   31DOPE   C28 3921   1.760   2.690  14.123 -0.1167 -0.0878 -0.3128
   31DOPE   H8R 3922   1.815   2.787  14.126 -0.5142  0.1861 -1.5108
   31DOPE   H8S 3923   1.745   2.639  14.220 -1.7901 -0.9895 -1.0111
   31DOPE   C29 3924   1.629   2.724  14.061 -0.3079  0.2048 -0.4571
   31DOPE   H9R 3925   1.633   2.733  13.952  0.6529 -2.0853 -0.6762
   31DOPE  C210 3926   1.514   2.734  14.124  0.3701  0.3957 -0.0294
   31DOPE  H10R 3927   1.419   2.729  14.069 -2.0006  1.2956  3.5866
   31DOPE  C211 3928   1.490   2.723  14.273  0.0879  0.1026  0.1166
   31DOPE  H11R 3929   1.578   2.673  14.319 -0.6747 -2.6473 -1.2203
   31DOPE  H11S 3930   1.409   2.652  14.297  0.8027 -0.1975  1.8397
   31DOPE  C212 3931   1.467   2.863  14.320  0.0638 -0.2892 -0.2710
   31DOPE  H12R 3932   1.408   2.861  14.414 -0.1236  3.5381 -0.1421
   31DOPE  H12S 3933   1.408   2.929  14.252  0.7304  0.4318 -0.1687
   31DOPE  C213 3934   1.596   2.937  14.366 -0.4735 -0.4452  0.3047
   31DOPE  H13R 3935   1.654   2.957  14.274  0.0753  1.8614  1.0650
   31DOPE  H13S 3936   1.643   2.863  14.435  0.5926 -1.5400 -1.5254
   31DOPE  C214 3937   1.578   3.067  14.444  0.1678  0.1835  0.0604
   31DOPE  H14R 3938   1.515   3.134  14.383  1.1941  0.6404 -0.5249
   31DOPE  H14S 3939   1.673   3.123  14.456  1.1298 -1.6804  1.9271
   31DOPE  C215 3940   1.511   3.058  14.587  0.3315  0.2515 -0.3669
   31DOPE  H15R 3941   1.563   3.126  14.658 -0.5793  1.5531 -0.9279
   31DOPE  H15S 3942   1.533   2.959  14.634  0.1838  0.7690  0.8174
   31DOPE  C216 3943   1.359   3.095  14.580  0.4986 -1.0898 -0.1242
   31DOPE  H16R 3944   1.312   3.054  14.488 -0.5838  0.7993 -0.4636
   31DOPE  H16S 3945   1.348   3.203  14.554 -0.6479 -1.1655  0.0140
   31DOPE  C217 3946   1.276   3.070  14.705 -0.0638 -0.0300  0.4601
   31DOPE  H17R 3947   1.180   3.123  14.687  0.3652  0.9885  1.0967
   31DOPE  H17S 3948   1.322   3.110  14.797  0.3304  2.2917 -0.6760
   31DOPE  C218 3949   1.240   2.922  14.726 -0.5199  0.0635 -0.4614
   31DOPE  H18R 3950   1.333   2.860  14.721 -0.6740 -0.0875 -3.1195
   31DOPE  H18S 3951   1.177   2.889  14.641 -0.2838  0.7526 -0.9150
   31DOPE  H18T 3952   1.179   2.909  14.817  0.0825 -0.8781 -0.1693
   31DOPE   C33 3953   2.381   2.007  13.219  0.0094 -0.4577 -0.5784
   31DOPE   H3X 3954   2.479   1.977  13.177  0.1549 -2.4619  1.0592
   31DOPE   H3Y 3955   2.306   2.023  13.138 -0.8567 -1.9377 -0.1066
   31DOPE   C34 3956   2.327   1.884  13.297  0.0217  0.1587 -0.7387
   31DOPE   H4X 3957   2.263   1.912  13.384  0.8049  2.4424 -0.8439
   31DOPE   H4Y 3958   2.272   1.819  13.226  1.4798 -2.3469  0.2875
   31DOPE   C35 3959   2.442   1.796  13.351  0.1990  0.5984  0.5182
   31DOPE   H5X 3960   2.485   1.848  13.439  0.9804 -0.9913  1.1206
   31DOPE   H5Y 3961   2.526   1.787  13.278 -0.4334  2.9373 -0.6116
   31DOPE   C36 3962   2.396   1.650  13.381  0.0501  0.0258  0.1230
   31DOPE   H6X 3963   2.378   1.625  13.275  0.7410  1.5267 -0.3717
   31DOPE   H6Y 3964   2.297   1.653  13.432  1.4077 -0.2829  3.0113
   31DOPE   C37 3965   2.486   1.562  13.458 -0.0668 -0.1364 -0.3290
   31DOPE   H7X 3966   2.441   1.461  13.442 -0.2028 -0.0898 -0.2398
   31DOPE   H7Y 3967   2.589   1.560  13.416 -0.5571  0.9260 -1.6194
   31DOPE   C38 3968   2.477   1.585  13.614  0.0069  0.3406  0.0739
   31DOPE   H8X 3969   2.374   1.558  13.648  0.4217 -0.6949  0.5390
   31DOPE   H8Y 3970   2.490   1.694  13.630 -0.6541  0.0343  3.3575
   31DOPE   C39 3971   2.592   1.518  13.683  0.3209  0.0962 -0.7808
   31DOPE   H9X 3972   2.675   1.589  13.696 -1.1249  1.3585  3.1291
   31DOPE  C310 3973   2.600   1.401  13.750 -0.1080 -0.3113 -0.8315
   31DOPE  H10X 3974   2.690   1.383  13.812 -0.6697 -0.8634 -0.1506
   31DOPE  C311 3975   2.487   1.304  13.742 -0.4509 -0.7178 -0.0405
   31DOPE  H11X 3976   2.404   1.328  13.672 -0.6320 -0.7154  0.1718
   31DOPE  H11Y 3977   2.528   1.215  13.691 -0.1578 -0.3945 -0.3807
   31DOPE  C312 3978   2.427   1.271  13.875 -0.3994 -0.1674  0.4073
   31DOPE  H12X 3979   2.504   1.234  13.945 -0.6411 -1.5440 -0.0081
   31DOPE  H12Y 3980   2.364   1.180  13.860 -0.6931  0.1191 -0.1244
   31DOPE  C313 3981   2.337   1.375  13.939  0.1964  0.0236 -0.6953
   31DOPE  H13X 3982   2.403   1.461  13.965 -1.2780  1.4797 -1.5802
   31DOPE  H13Y 3983   2.262   1.417  13.868 -1.5180 -1.2063  0.2977
   31DOPE  C314 3984   2.264   1.327  14.066 -0.7035 -0.6502  0.1030
   31DOPE  H14X 3985   2.228   1.419  14.117  1.0587  0.9539 -1.3693
   31DOPE  H14Y 3986   2.342   1.292  14.138  1.1620 -0.3178 -1.6516
   31DOPE  C315 3987   2.151   1.224  14.055 -0.2605 -0.1006 -0.6259
   31DOPE  H15X 3988   2.111   1.205  14.157  2.6565 -1.9443  0.2852
   31DOPE  H15Y 3989   2.198   1.128  14.027  0.2706  0.0030 -0.1157
   31DOPE  C316 3990   2.047   1.268  13.952 -0.5218  0.0288 -0.6085
   31DOPE  H16X 3991   2.094   1.265  13.851  0.1217 -2.0142 -0.2992
   31DOPE  H16Y 3992   2.010   1.367  13.987 -0.8490 -0.3422  0.1075
   31DOPE  C317 3993   1.914   1.188  13.932 -0.8002 -0.3850  0.0627
   31DOPE  H17X 3994   1.844   1.242  13.865 -0.4642  0.3178  0.2703
   31DOPE  H17Y 3995   1.940   1.099  13.871  0.9020 -1.1339  1.7813
   31DOPE  C318 3996   1.849   1.139  14.066 -0.1841 -0.3671  0.2552
   31DOPE  H18X 3997   1.926   1.085  14.126 -0.4166 -0.9267  0.0490
   31DOPE  H18Y 3998   1.817   1.231  14.119 -1.9233  0.6382 -2.3535
   31DOPE  H18Z 3999   1.762   1.076  14.039 -0.8944  0.8093 -0.2723
   32DOPE     N 4000   5.130   3.236  12.754  0.5987  0.6286 -0.5793
   32DOPE   HN1 4001   5.129   3.261  12.653  2.5058 -0.0360 -0.8058
   32DOPE   HN2 4002   5.213   3.285  12.793  0.4663 -0.0126  0.5540
   32DOPE   HN3 4003   5.158   3.136  12.765  1.3592  1.0864  2.3347
   32DOPE   C12 4004   5.004   3.247  12.832  0.0598 -0.0551  0.5189
   32DOPE  H12A 4005   4.923   3.195  12.777  0.3467  0.4513 -0.4132
   32DOPE  H12B 4006   4.985   3.357  12.829  1.8391  0.3112 -3.1393
   32DOPE   C11 4007   5.020   3.212  12.979 -0.2805 -0.1636  0.1069
   32DOPE  H11A 4008   4.944   3.267  13.039  1.2635  2.0195  0.1713
   32DOPE  H11B 4009   5.116   3.255  13.014 -0.3019  0.3300 -0.4427
   32DOPE     P 4010   5.030   2.992  13.127  0.5610 -0.1795 -0.0216
   32DOPE   O13 4011   5.108   3.067  13.225  0.3859  0.1933  0.2755
   32DOPE   O14 4012   5.078   2.859  13.098 -0.2620  0.6021 -0.4148
   32DOPE   O11 4013   4.880   2.981  13.176  0.1586 -0.0099  0.3123
   32DOPE   O12 4014   5.013   3.071  12.995  0.0922  0.0236  0.3504
   32DOPE    C1 4015   4.807   3.105  13.173  1.2086 -0.8186  0.2429
   32DOPE    HA 4016   4.785   3.140  13.070  0.2719  1.2994  1.1096
   32DOPE    HB 4017   4.850   3.183  13.240  1.1337 -0.9371  0.4312
   32DOPE    C2 4018   4.666   3.080  13.235  0.7074  0.6134  0.2795
   32DOPE    HS 4019   4.614   3.177  13.250 -1.1571  0.1190 -2.3593
   32DOPE   O21 4020   4.676   3.020  13.364 -0.3048 -0.0595  0.9262
   32DOPE   C21 4021   4.707   3.095  13.470 -0.4365 -0.1431  0.2183
   32DOPE   O22 4022   4.721   3.215  13.461  0.1308  0.3301  0.2969
   32DOPE   C22 4023   4.709   3.009  13.598  0.7755 -0.2486  0.0871
   32DOPE   H2R 4024   4.785   3.057  13.664 -0.4902  1.6097  0.2664
   32DOPE   H2S 4025   4.729   2.903  13.573 -3.1602 -0.3976 -3.5220
   32DOPE    C3 4026   4.575   2.989  13.144  0.5809  0.2688  0.6827
   32DOPE    HX 4027   4.622   2.888  13.148 -1.6519 -0.8396  0.1717
   32DOPE    HY 4028   4.573   3.031  13.041 -1.4537 -1.8293 -0.2133
   32DOPE   O31 4029   4.435   2.993  13.175  0.2462 -0.3066  0.2777
   32DOPE   C31 4030   4.392   2.896  13.248  0.0651  0.0081  0.0690
   32DOPE   O32 4031   4.453   2.793  13.276 -0.1646 -1.1066  0.0809
   32DOPE   C32 4032   4.250   2.934  13.294 -0.2339 -1.2872  0.5671
   32DOPE   H2X 4033   4.203   2.989  13.210  1.3279  0.0754  0.5438
   32DOPE   H2Y 4034   4.192   2.840  13.307 -1.7565 -0.2433  1.7073
   32DOPE   C23 4035   4.580   3.012  13.693  0.6060  0.0826  0.6702
   32DOPE   H3R 4036   4.496   2.958  13.645  1.0552 -0.3401  0.3451
   32DOPE   H3S 4037   4.555   3.120  13.699 -1.2108 -0.2191 -0.6654
   32DOPE   C24 4038   4.610   2.968  13.836 -0.7495  0.3138 -0.0685
   32DOPE   H4R 4039   4.679   3.044  13.880 -0.0508 -1.5059  2.2022
   32DOPE   H4S 4040   4.654   2.866  13.831 -0.6339  0.3938 -0.7369
   32DOPE   C25 4041   4.484   2.964  13.927  0.2192 -0.5822  0.2111
   32DOPE   H5R 4042   4.444   3.067  13.915  2.6555  0.2345 -2.0192
   32DOPE   H5S 4043   4.517   2.923  14.025 -0.4680 -1.0982  0.2319
   32DOPE   C26 4044   4.384   2.864  13.864 -0.0931 -0.7560  0.1496
   32DOPE   H6R 4045   4.424   2.760  13.855  0.3475 -0.6174  0.4442
   32DOPE   H6S 4046   4.340   2.896  13.768 -0.9961  0.6357  0.9857
   32DOPE   C27 4047   4.265   2.848  13.962 -0.4272  0.1679  0.2059
   32DOPE   H7R 4048   4.179   2.803  13.908 -0.4380  1.3750 -0.8451
   32DOPE   H7S 4049   4.233   2.950  13.993 -1.2017  0.6555 -2.0190
   32DOPE   C28 4050   4.298   2.771  14.086 -0.5337 -0.1410 -0.0591
   32DOPE   H8R 4051   4.379   2.835  14.129  0.6599 -0.2804 -1.9562
   32DOPE   H8S 4052   4.360   2.683  14.058  0.7567  0.8012 -0.2867
   32DOPE   C29 4053   4.179   2.740  14.173  0.6547 -0.3319  0.5530
   32DOPE   H9R 4054   4.097   2.677  14.135 -0.6162  1.2216  0.6171
   32DOPE  C210 4055   4.163   2.792  14.295 -0.5577 -0.7527 -0.1599
   32DOPE  H10R 4056   4.078   2.759  14.356 -1.6681  2.2120  0.0919
   32DOPE  C211 4057   4.253   2.880  14.374 -0.2632 -0.1387  0.3496
   32DOPE  H11R 4058   4.195   2.967  14.411  2.8855  2.1126  0.3661
   32DOPE  H11S 4059   4.331   2.928  14.311  0.0841  1.9492  2.2422
   32DOPE  C212 4060   4.319   2.827  14.499  0.2145 -0.2015  0.7002
   32DOPE  H12R 4061   4.334   2.914  14.566  0.1519  1.1138 -0.9196
   32DOPE  H12S 4062   4.408   2.766  14.474  2.3569  1.5267  3.4617
   32DOPE  C213 4063   4.212   2.738  14.582  0.0566 -0.3853  0.5218
   32DOPE  H13R 4064   4.190   2.649  14.518  0.6468  0.0483 -0.2986
   32DOPE  H13S 4065   4.118   2.798  14.580  0.1699 -0.2186 -1.3443
   32DOPE  C214 4066   4.263   2.698  14.721 -0.0254 -0.6347 -0.8625
   32DOPE  H14R 4067   4.372   2.678  14.708 -0.0116 -0.1718 -1.4707
   32DOPE  H14S 4068   4.205   2.614  14.765 -3.0317  1.9978  0.6294
   32DOPE  C215 4069   4.240   2.813  14.815 -0.7986  0.1898 -0.8408
   32DOPE  H15R 4070   4.135   2.840  14.836 -0.1811  1.2044  1.2485
   32DOPE  H15S 4071   4.277   2.907  14.769  0.0331  0.1858 -0.1965
   32DOPE  C216 4072   4.316   2.790  14.952  0.6850  0.2780  0.6342
   32DOPE  H16R 4073   4.314   2.685  14.990 -1.1847  0.9255  2.4937
   32DOPE  H16S 4074   4.259   2.851  15.025 -0.3033 -2.2851  2.1703
   32DOPE  C217 4075   4.466   2.837  14.944 -0.0876 -0.0834 -0.4586
   32DOPE  H17R 4076   4.477   2.941  14.906 -0.9969  0.3721  0.4757
   32DOPE  H17S 4077   4.531   2.777  14.877 -0.2027 -0.2953 -0.3808
   32DOPE  C218 4078   4.532   2.828  15.084  0.5073 -0.0853 -1.1520
   32DOPE  H18R 4079   4.471   2.892  15.152  1.7558  1.9592 -1.8613
   32DOPE  H18S 4080   4.632   2.874  15.101  0.1694  0.0296  0.7969
   32DOPE  H18T 4081   4.537   2.722  15.117  0.9297  1.1427  3.3225
   32DOPE   C33 4082   4.245   3.014  13.422  0.1001  0.4893 -0.6729
   32DOPE   H3X 4083   4.293   3.114  13.413 -0.1494  0.6536 -0.1910
   32DOPE   H3Y 4084   4.303   2.956  13.496 -2.1418 -0.0279  0.7625
   32DOPE   C34 4085   4.105   3.031  13.476 -0.2565  0.5548  0.4296
   32DOPE   H4X 4086   4.035   3.057  13.394 -0.7345 -0.3658  0.5214
   32DOPE   H4Y 4087   4.072   2.936  13.525  1.6615 -0.8127 -0.7854
   32DOPE   C35 4088   4.100   3.138  13.584  0.5608  0.8028  0.2650
   32DOPE   H5X 4089   3.992   3.150  13.610  0.0773  0.4076 -1.4194
   32DOPE   H5Y 4090   4.131   3.243  13.563 -0.6529  1.6718  2.4612
   32DOPE   C36 4091   4.186   3.113  13.703 -0.6653 -0.3684 -1.0854
   32DOPE   H6X 4092   4.289   3.140  13.672 -1.0336  2.2285 -0.2984
   32DOPE   H6Y 4093   4.185   3.003  13.721 -0.5684 -0.1962  0.0804
   32DOPE   C37 4094   4.130   3.185  13.833  0.3279  0.2231  0.8065
   32DOPE   H7X 4095   4.214   3.182  13.906 -0.6445 -1.1132  1.9117
   32DOPE   H7Y 4096   4.111   3.290  13.801 -0.3648 -0.2781 -0.5036
   32DOPE   C38 4097   4.012   3.116  13.903  0.4815 -0.5568  0.0560
   32DOPE   H8X 4098   4.047   3.020  13.946 -0.1097 -0.2435  1.2661
   32DOPE   H8Y 4099   3.937   3.101  13.822  1.1703 -2.4633 -0.2721
   32DOPE   C39 4100   3.961   3.226  13.992  0.0570  0.1458 -0.1811
   32DOPE   H9X 4101   3.930   3.315  13.936 -0.0774  0.7655  0.8567
   32DOPE  C310 4102   3.919   3.219  14.117 -0.3555 -0.8018 -0.1551
   32DOPE  H10X 4103   3.881   3.314  14.156 -1.0791 -0.6996 -1.0740
   32DOPE  C311 4104   3.939   3.105  14.213  0.2451  0.3296  0.2565
   32DOPE  H11X 4105   3.901   3.013  14.164  0.2161  0.6209 -0.2794
   32DOPE  H11Y 4106   4.045   3.073  14.225  0.4970  0.7256 -0.7891
   32DOPE  C312 4107   3.908   3.137  14.360  0.6607 -0.5859 -0.3519
   32DOPE  H12X 4108   3.906   3.044  14.420  0.7218  0.3924  1.2292
   32DOPE  H12Y 4109   3.819   3.202  14.374  1.1593  0.2581 -1.0133
   32DOPE  C313 4110   4.023   3.219  14.416 -0.1195 -0.0286 -0.2479
   32DOPE  H13X 4111   4.122   3.169  14.408  0.4095  0.7220  1.2876
   32DOPE  H13Y 4112   4.032   3.317  14.364  0.0879  0.0348 -0.0941
   32DOPE  C314 4113   4.022   3.264  14.565  0.3509 -0.1074 -0.3616
   32DOPE  H14X 4114   4.112   3.327  14.578 -0.5107  0.5438  3.7880
   32DOPE  H14Y 4115   4.036   3.172  14.625  0.7982  0.6301  0.6891
   32DOPE  C315 4116   3.908   3.347  14.609  0.1456 -0.1844  0.6627
   32DOPE  H15X 4117   3.815   3.291  14.586  0.0462  0.3718 -0.3126
   32DOPE  H15Y 4118   3.895   3.437  14.547  3.4705 -0.7513 -1.0541
   32DOPE  C316 4119   3.904   3.379  14.755 -0.0422 -1.0378  0.2963
   32DOPE  H16X 4120   3.815   3.441  14.779  0.5761 -0.9753  2.6722
   32DOPE  H16Y 4121   3.993   3.436  14.789 -0.2284 -1.0381  0.7901
   32DOPE  C317 4122   3.894   3.248  14.842 -0.4099  0.1778  0.0067
   32DOPE  H17X 4123   3.795   3.201  14.826 -1.2336  0.5482  3.3088
   32DOPE  H17Y 4124   3.968   3.171  14.810 -0.0002  0.5318  0.0806
   32DOPE  C318 4125   3.940   3.271  14.992  0.0961 -0.1127  0.5490
   32DOPE  H18X 4126   3.970   3.176  15.042 -0.4543  0.2298  1.5654
   32DOPE  H18Y 4127   4.036   3.326  14.987  0.1969 -0.3305  0.0877
   32DOPE  H18Z 4128   3.870   3.327  15.058  0.2295 -1.1780  1.6469
   33DOPE     N 4129   3.439   1.856  12.317  0.4141  0.1793 -0.0167
   33DOPE   HN1 4130   3.365   1.793  12.281 -0.3016  1.7621 -1.5113
   33DOPE   HN2 4131   3.496   1.872  12.231  1.1735  1.0431  0.6176
   33DOPE   HN3 4132   3.507   1.800  12.372  2.2234 -0.6783 -2.8708
   33DOPE   C12 4133   3.359   1.977  12.370  0.1977  0.6249 -0.3748
   33DOPE  H12A 4134   3.294   2.009  12.287 -0.6882 -3.7823 -1.6494
   33DOPE  H12B 4135   3.424   2.065  12.392  1.2778 -0.0964 -0.5983
   33DOPE   C11 4136   3.272   1.941  12.498 -0.2173 -0.5046  0.0506
   33DOPE  H11A 4137   3.204   2.020  12.537  0.6897 -1.2043  3.2790
   33DOPE  H11B 4138   3.341   1.932  12.585  0.4291 -0.0888 -0.4035
   33DOPE     P 4139   3.069   1.809  12.401 -0.0908 -0.2325  0.0751
   33DOPE   O13 4140   3.068   1.676  12.339  0.1160 -0.1683  0.2945
   33DOPE   O14 4141   3.062   1.929  12.312  0.2504  0.0358 -0.2159
   33DOPE   O11 4142   2.946   1.827  12.502 -0.9009 -0.2525  0.0192
   33DOPE   O12 4143   3.204   1.818  12.480 -0.1526  0.0338 -0.4318
   33DOPE    C1 4144   2.905   1.734  12.607  0.2672 -0.4340  0.7468
   33DOPE    HA 4145   2.957   1.638  12.587  1.8438  1.1403 -4.1224
   33DOPE    HB 4146   2.799   1.705  12.588  0.0691  0.8542 -0.2495
   33DOPE    C2 4147   2.918   1.780  12.760  0.3731 -0.8340  0.5541
   33DOPE    HS 4148   2.841   1.725  12.818  1.0824 -2.2424  0.2276
   33DOPE   O21 4149   2.902   1.923  12.763  0.1461  0.3125  0.1071
   33DOPE   C21 4150   2.780   1.955  12.736  0.0056  0.6038  0.4847
   33DOPE   O22 4151   2.685   1.881  12.730 -0.2590 -0.6576 -0.4388
   33DOPE   C22 4152   2.781   2.107  12.729 -0.1922  0.0204  0.5398
   33DOPE   H2R 4153   2.683   2.129  12.680 -1.9845 -1.9689  2.9801
   33DOPE   H2S 4154   2.870   2.143  12.673 -1.3204 -0.0200 -1.3835
   33DOPE    C3 4155   3.060   1.727  12.816 -0.1038 -0.1632 -0.1909
   33DOPE    HX 4156   3.136   1.775  12.750  1.4821  0.5577  2.0084
   33DOPE    HY 4157   3.070   1.619  12.791 -0.3028  0.2428 -2.1715
   33DOPE   O31 4158   3.087   1.751  12.954 -0.1935  0.5303  0.0052
   33DOPE   C31 4159   3.031   1.668  13.047  0.0936  0.3387 -0.2490
   33DOPE   O32 4160   2.989   1.560  13.021 -0.4803  0.0246 -0.4117
   33DOPE   C32 4161   3.049   1.726  13.189 -0.3796  0.6835  0.3989
   33DOPE   H2X 4162   3.151   1.771  13.186 -0.3445  0.5933  0.1584
   33DOPE   H2Y 4163   2.984   1.815  13.197 -0.4454  0.5948  0.8703
   33DOPE   C23 4164   2.766   2.178  12.867 -0.5928 -0.0366  0.0627
   33DOPE   H3R 4165   2.697   2.128  12.939 -0.4276 -0.7379 -0.2657
   33DOPE   H3S 4166   2.728   2.278  12.835 -1.3344  0.1098  1.3155
   33DOPE   C24 4167   2.900   2.204  12.940 -0.2743  0.1147  0.1786
   33DOPE   H4R 4168   2.952   2.288  12.890 -0.3800 -1.1111 -2.0926
   33DOPE   H4S 4169   2.963   2.113  12.941  0.9765  0.9427 -0.3423
   33DOPE   C25 4170   2.885   2.242  13.084  0.8202  0.0921 -0.3351
   33DOPE   H5R 4171   2.812   2.324  13.099  0.6317 -0.1395  0.0334
   33DOPE   H5S 4172   2.984   2.281  13.114  0.7850  0.4762 -0.7135
   33DOPE   C26 4173   2.841   2.120  13.174  0.2595 -0.0719  0.1788
   33DOPE   H6R 4174   2.924   2.049  13.193 -0.7103 -0.3382  4.3410
   33DOPE   H6S 4175   2.758   2.065  13.124 -0.5180  1.8660 -0.7656
   33DOPE   C27 4176   2.794   2.173  13.309 -0.0264 -0.1835 -0.6282
   33DOPE   H7R 4177   2.707   2.240  13.293 -0.4321 -1.1946 -3.0332
   33DOPE   H7S 4178   2.877   2.236  13.349 -1.1118  1.5913 -1.0600
   33DOPE   C28 4179   2.760   2.060  13.416 -0.4615  0.1159  0.0531
   33DOPE   H8R 4180   2.690   1.989  13.367  0.0090 -0.5590  0.3446
   33DOPE   H8S 4181   2.698   2.106  13.496  0.3572  2.1609 -0.4286
   33DOPE   C29 4182   2.880   1.996  13.466  0.2111  0.4847 -0.5453
   33DOPE   H9R 4183   2.947   1.962  13.385 -1.0189  2.5478 -2.5809
   33DOPE  C210 4184   2.912   1.977  13.596  0.2938  0.1832 -0.2348
   33DOPE  H10R 4185   3.006   1.927  13.623  0.8665  1.2897 -0.0869
   33DOPE  C211 4186   2.830   2.004  13.719 -0.3636 -0.1358  0.9327
   33DOPE  H11R 4187   2.723   2.026  13.701 -0.4355 -1.2359 -0.1243
   33DOPE  H11S 4188   2.873   2.088  13.778  3.9775 -1.1319 -0.4364
   33DOPE  C212 4189   2.846   1.872  13.806  0.2338 -0.1322  0.3054
   33DOPE  H12R 4190   2.951   1.839  13.823 -0.3659 -1.2674  2.0934
   33DOPE  H12S 4191   2.790   1.790  13.757 -2.0526  0.2749  2.0718
   33DOPE  C213 4192   2.774   1.884  13.938 -0.3095  0.8980  0.2277
   33DOPE  H13R 4193   2.676   1.934  13.924 -1.7498 -2.1854 -1.8126
   33DOPE  H13S 4194   2.827   1.944  14.016  0.1473  1.7430 -0.7124
   33DOPE  C214 4195   2.746   1.741  13.997  0.2697 -0.1606 -0.0281
   33DOPE  H14R 4196   2.829   1.710  14.064 -0.3682 -0.5895  0.5704
   33DOPE  H14S 4197   2.725   1.663  13.921  0.0686 -0.2140  0.0815
   33DOPE  C215 4198   2.624   1.740  14.092 -0.1270  0.5092 -0.4853
   33DOPE  H15R 4199   2.538   1.771  14.030 -1.2694  0.1515  0.8567
   33DOPE  H15S 4200   2.645   1.807  14.178 -0.0617 -2.6076  2.1330
   33DOPE  C216 4201   2.610   1.595  14.141  0.1473  0.0220 -0.0570
   33DOPE  H16R 4202   2.692   1.570  14.212 -0.2895  0.3480  0.5824
   33DOPE  H16S 4203   2.627   1.528  14.054  2.5933  3.0088 -2.1165
   33DOPE  C217 4204   2.481   1.572  14.219 -0.2274  0.9911 -0.7468
   33DOPE  H17R 4205   2.465   1.463  14.232  1.5633  0.5460 -1.9161
   33DOPE  H17S 4206   2.402   1.614  14.153 -2.1434  1.5938  1.7572
   33DOPE  C218 4207   2.495   1.639  14.360  0.1608  0.0894  0.5313
   33DOPE  H18R 4208   2.577   1.596  14.421  1.0101  0.1215 -0.5487
   33DOPE  H18S 4209   2.394   1.635  14.407 -1.8277  2.3301 -3.1008
   33DOPE  H18T 4210   2.528   1.743  14.339 -0.2542 -0.1677 -1.6612
   33DOPE   C33 4211   3.055   1.619  13.303  0.0924  0.2449  1.0090
   33DOPE   H3X 4212   3.101   1.671  13.390  0.2183  0.1544  0.9965
   33DOPE   H3Y 4213   3.121   1.539  13.263 -1.0001  0.4788 -1.3851
   33DOPE   C34 4214   2.915   1.565  13.335  0.1795 -0.3123 -0.4602
   33DOPE   H4X 4215   2.848   1.650  13.360  0.5875 -0.0015 -0.4109
   33DOPE   H4Y 4216   2.871   1.507  13.252  1.3244 -2.3239  0.2780
   33DOPE   C35 4217   2.919   1.466  13.454  0.6277  0.5174  0.4035
   33DOPE   H5X 4218   2.959   1.371  13.413 -1.1925 -0.3074  0.4756
   33DOPE   H5Y 4219   2.814   1.448  13.486  1.3691  0.2382  2.9260
   33DOPE   C36 4220   3.004   1.490  13.575  0.0324 -0.2712 -0.3762
   33DOPE   H6X 4221   2.994   1.581  13.638  2.8647 -1.5950  2.2899
   33DOPE   H6Y 4222   3.107   1.503  13.535 -0.4111 -0.6907 -1.7066
   33DOPE   C37 4223   3.006   1.368  13.671  0.7086 -0.3749  0.3688
   33DOPE   H7X 4224   2.908   1.344  13.717  0.6127  0.8059  0.8122
   33DOPE   H7Y 4225   3.013   1.279  13.605 -2.2299 -0.4294 -0.0095
   33DOPE   C38 4226   3.113   1.369  13.779 -0.7470  1.2687 -0.0515
   33DOPE   H8X 4227   3.200   1.396  13.716 -2.1242  1.2930 -2.0364
   33DOPE   H8Y 4228   3.132   1.264  13.811 -2.5738 -0.4957 -4.0403
   33DOPE   C39 4229   3.095   1.472  13.887  0.5829  1.0053 -0.0581
   33DOPE   H9X 4230   3.142   1.571  13.875  1.1986  0.7770  0.4184
   33DOPE  C310 4231   3.021   1.441  13.995 -0.4263  0.4138 -0.3588
   33DOPE  H10X 4232   3.019   1.519  14.073  0.0381 -0.1742  0.2515
   33DOPE  C311 4233   2.962   1.303  14.024 -0.4421  0.2210 -0.5979
   33DOPE  H11X 4234   2.852   1.307  14.031 -0.6328  0.3470 -2.9813
   33DOPE  H11Y 4235   2.967   1.231  13.940 -0.6743 -3.0563  1.9788
   33DOPE  C312 4236   3.023   1.226  14.143  0.2818  0.0459 -0.3002
   33DOPE  H12X 4237   3.134   1.231  14.142  0.3814 -0.2972  2.0436
   33DOPE  H12Y 4238   2.986   1.121  14.144 -1.9002  0.7504 -0.9103
   33DOPE  C313 4239   2.974   1.282  14.279 -0.1604  0.1018 -0.6126
   33DOPE  H13X 4240   3.051   1.236  14.344  1.7388  4.3729  0.5092
   33DOPE  H13Y 4241   2.998   1.391  14.275 -0.0041  0.0353 -1.6562
   33DOPE  C314 4242   2.839   1.250  14.332 -1.1880 -0.3221  0.0163
   33DOPE  H14X 4243   2.817   1.141  14.333  2.2756 -1.1407  0.3007
   33DOPE  H14Y 4244   2.763   1.272  14.254  1.7253  1.4699 -2.5129
   33DOPE  C315 4245   2.808   1.303  14.472 -0.1575 -0.1938 -0.0605
   33DOPE  H15X 4246   2.814   1.414  14.479 -1.6109 -0.1023  0.0939
   33DOPE  H15Y 4247   2.885   1.262  14.540 -0.5488  1.6622  1.6176
   33DOPE  C316 4248   2.670   1.255  14.519  0.6041 -0.2985  0.3411
   33DOPE  H16X 4249   2.672   1.150  14.557 -1.7930 -0.0791  1.2179
   33DOPE  H16Y 4250   2.602   1.250  14.432  1.3921  1.4345 -0.4162
   33DOPE  C317 4251   2.592   1.343  14.624 -0.7421 -0.0874  0.0980
   33DOPE  H17X 4252   2.610   1.452  14.606  0.0684 -0.2792 -0.3080
   33DOPE  H17Y 4253   2.485   1.324  14.604 -0.5154 -2.2239  0.6792
   33DOPE  C318 4254   2.625   1.314  14.771  0.3370  1.1828  0.0765
   33DOPE  H18X 4255   2.564   1.378  14.839  0.7585  0.8894  0.7383
   33DOPE  H18Y 4256   2.610   1.208  14.801  1.2139  0.8523 -0.6157
   33DOPE  H18Z 4257   2.734   1.333  14.779  1.2280 -2.4830 -1.3824
   34DOPE     N 4258   2.607   3.043  12.980 -0.4823 -0.2997 -0.3738
   34DOPE   HN1 4259   2.587   3.037  13.081  0.4239  0.9231 -0.0959
   34DOPE   HN2 4260   2.537   2.985  12.930  0.2958 -0.1763 -1.6477
   34DOPE   HN3 4261   2.700   2.999  12.971 -0.4929 -0.6061  0.8813
   34DOPE   C12 4262   2.622   3.188  12.926  0.6381 -0.0720  0.0840
   34DOPE  H12A 4263   2.644   3.179  12.817 -1.0954 -2.2984 -0.1479
   34DOPE  H12B 4264   2.709   3.241  12.971 -0.3877 -0.5896  2.8615
   34DOPE   C11 4265   2.492   3.276  12.947  0.3193 -0.5335  0.9427
   34DOPE  H11A 4266   2.523   3.379  12.920  0.1184 -0.1938  1.9631
   34DOPE  H11B 4267   2.466   3.284  13.055 -0.7843  0.7921  0.6012
   34DOPE     P 4268   2.239   3.297  12.899  0.1054 -0.3380  0.2609
   34DOPE   O13 4269   2.139   3.203  12.835 -0.1604  0.2265  0.6201
   34DOPE   O14 4270   2.237   3.437  12.852  0.1387  0.4533  0.0493
   34DOPE   O11 4271   2.224   3.300  13.057 -0.0071  0.3769 -0.2400
   34DOPE   O12 4272   2.377   3.234  12.867 -0.3944 -0.2498 -0.3389
   34DOPE    C1 4273   2.105   3.266  13.126  0.3163 -1.0854 -0.5405
   34DOPE    HA 4274   2.139   3.248  13.230  1.5411  3.6585  0.1181
   34DOPE    HB 4275   2.060   3.172  13.086 -0.8246 -1.1580  0.8349
   34DOPE    C2 4276   2.004   3.386  13.127 -0.2224 -0.3224  0.3262
   34DOPE    HS 4277   1.989   3.400  13.017 -1.5790 -1.0887  0.3829
   34DOPE   O21 4278   2.066   3.498  13.195  0.0894  0.0816  0.2922
   34DOPE   C21 4279   2.017   3.615  13.150 -0.1586  0.5405  0.4556
   34DOPE   O22 4280   1.929   3.621  13.066 -0.8515 -0.4797 -0.1564
   34DOPE   C22 4281   2.112   3.727  13.193  0.2717 -0.4661  0.5671
   34DOPE   H2R 4282   2.046   3.815  13.209 -0.5330  0.0214 -4.1065
   34DOPE   H2S 4283   2.181   3.740  13.107  0.2460 -1.3928  0.3934
   34DOPE    C3 4284   1.871   3.353  13.193  0.0879  0.8400  0.1387
   34DOPE    HX 4285   1.841   3.263  13.135 -0.1646 -1.7955  3.9692
   34DOPE    HY 4286   1.800   3.438  13.179 -1.2298 -0.1892  0.3147
   34DOPE   O31 4287   1.875   3.329  13.339  0.2852  0.1854 -0.2161
   34DOPE   C31 4288   1.789   3.234  13.376  0.0234  0.9242  0.4202
   34DOPE   O32 4289   1.708   3.180  13.300 -0.0974  0.0452  0.0266
   34DOPE   C32 4290   1.806   3.200  13.528  0.4804 -0.5742  0.1455
   34DOPE   H2X 4291   1.877   3.115  13.525  0.0394 -0.9572 -2.4949
   34DOPE   H2Y 4292   1.845   3.289  13.583  1.0338  0.0810 -1.2406
   34DOPE   C23 4293   2.195   3.723  13.332 -0.4033 -0.2525 -0.0735
   34DOPE   H3R 4294   2.263   3.636  13.341 -0.1604  0.0827  1.8365
   34DOPE   H3S 4295   2.127   3.713  13.420  0.5264 -1.0786  0.5711
   34DOPE   C24 4296   2.277   3.846  13.373  1.0245  0.2884  0.0032
   34DOPE   H4R 4297   2.197   3.920  13.389  0.2386 -0.2347 -1.2949
   34DOPE   H4S 4298   2.342   3.871  13.286  0.5838  0.3260 -0.3181
   34DOPE   C25 4299   2.374   3.836  13.487 -0.9051 -0.4894  0.4609
   34DOPE   H5R 4300   2.462   3.775  13.458  0.3828  1.8375 -0.7918
   34DOPE   H5S 4301   2.323   3.805  13.581  1.5549  1.9314  2.7902
   34DOPE   C26 4302   2.429   3.989  13.516 -0.4127  0.2207  0.4085
   34DOPE   H6R 4303   2.497   3.979  13.603 -1.1396 -0.7849  0.8678
   34DOPE   H6S 4304   2.340   4.042  13.554  0.2216  2.4627 -0.9881
   34DOPE   C27 4305   2.503   4.055  13.399 -0.1288 -0.4200 -0.4328
   34DOPE   H7R 4306   2.428   4.101  13.332 -0.2002 -0.0920 -0.1326
   34DOPE   H7S 4307   2.569   3.995  13.333  1.0525 -0.5507  0.8249
   34DOPE   C28 4308   2.584   4.174  13.443 -0.5488  0.5292  0.4341
   34DOPE   H8R 4309   2.625   4.226  13.354 -3.0039  1.9590  0.0635
   34DOPE   H8S 4310   2.669   4.126  13.498  0.4285  2.8342  1.0588
   34DOPE   C29 4311   2.505   4.268  13.524 -0.8551 -0.1116  0.3724
   34DOPE   H9R 4312   2.429   4.312  13.458 -1.3760 -2.8304 -0.9474
   34DOPE  C210 4313   2.515   4.304  13.652 -0.0887 -0.3783 -0.1310
   34DOPE  H10R 4314   2.470   4.400  13.681  0.1828  1.4260 -4.8312
   34DOPE  C211 4315   2.617   4.252  13.749 -0.0686 -0.3046  0.0168
   34DOPE  H11R 4316   2.718   4.297  13.739 -0.5302  0.5449 -1.0557
   34DOPE  H11S 4317   2.634   4.145  13.720  0.0002  0.3996 -2.8861
   34DOPE  C212 4318   2.586   4.269  13.907 -0.1551 -0.2488 -0.1266
   34DOPE  H12R 4319   2.509   4.194  13.939  1.2248 -1.4199  0.5760
   34DOPE  H12S 4320   2.551   4.374  13.916 -0.5867 -0.1148 -2.7499
   34DOPE  C213 4321   2.713   4.247  14.003  0.5087 -0.1202 -0.4738
   34DOPE  H13R 4322   2.788   4.327  13.987 -1.0255  2.3329  3.1861
   34DOPE  H13S 4323   2.760   4.149  13.978  1.6111  0.1873  0.3095
   34DOPE  C214 4324   2.686   4.252  14.152  0.1364  0.0799  0.8341
   34DOPE  H14R 4325   2.655   4.353  14.188  1.4911  0.6517  0.4729
   34DOPE  H14S 4326   2.783   4.248  14.205  0.4012 -1.1815  0.2771
   34DOPE  C215 4327   2.584   4.146  14.205 -0.4343  0.0395 -0.0863
   34DOPE  H15R 4328   2.645   4.054  14.219 -0.6542 -0.6017 -2.8253
   34DOPE  H15S 4329   2.504   4.111  14.137 -1.2252 -1.0500  1.3418
   34DOPE  C216 4330   2.504   4.172  14.336  0.9957 -0.5202 -0.1795
   34DOPE  H16R 4331   2.458   4.079  14.376  3.1191 -2.1355 -1.2800
   34DOPE  H16S 4332   2.421   4.244  14.323 -1.8086 -3.4394  0.2703
   34DOPE  C217 4333   2.579   4.222  14.456 -0.4502 -0.4067  0.5625
   34DOPE  H17R 4334   2.638   4.310  14.421 -0.9280 -0.3014  0.0135
   34DOPE  H17S 4335   2.653   4.150  14.497  0.9837 -0.2861 -1.6415
   34DOPE  C218 4336   2.499   4.275  14.579  0.5967 -1.0003 -0.4933
   34DOPE  H18R 4337   2.434   4.195  14.621  1.4821 -0.4719  2.0677
   34DOPE  H18S 4338   2.437   4.363  14.551  1.0157 -0.9944 -1.4596
   34DOPE  H18T 4339   2.563   4.307  14.664  0.7517  1.4164 -1.4309
   34DOPE   C33 4340   1.669   3.153  13.583  0.0617  0.2395 -0.4446
   34DOPE   H3X 4341   1.693   3.097  13.676 -3.0415  0.2442  0.4741
   34DOPE   H3Y 4342   1.616   3.078  13.520  0.8264  1.9801 -3.3388
   34DOPE   C34 4343   1.570   3.266  13.620 -0.0150  0.0674 -0.4314
   34DOPE   H4X 4344   1.532   3.312  13.527  0.7892  1.9147  0.0995
   34DOPE   H4Y 4345   1.481   3.224  13.673  0.9471 -0.4035  0.8722
   34DOPE   C35 4346   1.629   3.379  13.706 -0.2915  0.3870  1.0678
   34DOPE   H5X 4347   1.704   3.440  13.651 -1.8640  2.0663  0.6749
   34DOPE   H5Y 4348   1.694   3.333  13.784 -0.9122 -1.1317  0.7182
   34DOPE   C36 4349   1.517   3.470  13.749 -0.0307 -0.6676  0.0087
   34DOPE   H6X 4350   1.444   3.421  13.817 -1.0737  2.8762  1.6916
   34DOPE   H6Y 4351   1.456   3.495  13.659 -0.7483  0.4813  0.7923
   34DOPE   C37 4352   1.570   3.603  13.819 -0.2502  0.1819 -0.2070
   34DOPE   H7X 4353   1.577   3.579  13.927 -1.9011  1.8970  0.3326
   34DOPE   H7Y 4354   1.669   3.619  13.771 -0.8800  2.2566 -0.9141
   34DOPE   C38 4355   1.476   3.722  13.813 -0.2243 -0.2224 -0.6477
   34DOPE   H8X 4356   1.458   3.748  13.707 -0.5990  1.3354 -0.2264
   34DOPE   H8Y 4357   1.529   3.807  13.861 -1.0468  1.1138 -2.0459
   34DOPE   C39 4358   1.346   3.701  13.879  0.1800  0.3019 -0.3961
   34DOPE   H9X 4359   1.267   3.674  13.807  0.7701 -0.9122 -0.6013
   34DOPE  C310 4360   1.319   3.711  14.008  0.3160 -1.1378  0.0143
   34DOPE  H10X 4361   1.222   3.673  14.042  1.6302 -2.4033  2.5970
   34DOPE  C311 4362   1.421   3.746  14.119  0.5962 -0.0406 -0.3969
   34DOPE  H11X 4363   1.501   3.670  14.109  0.5787 -0.1417  0.2416
   34DOPE  H11Y 4364   1.474   3.840  14.091  2.3052 -1.3929 -1.9302
   34DOPE  C312 4365   1.375   3.744  14.263 -0.0932 -0.2159  0.4342
   34DOPE  H12X 4366   1.462   3.766  14.329  0.0754  0.5964 -0.0374
   34DOPE  H12Y 4367   1.306   3.662  14.291 -3.2322  1.8369 -0.7090
   34DOPE  C313 4368   1.289   3.871  14.289  0.3583  0.0426  0.0989
   34DOPE  H13X 4369   1.344   3.963  14.263 -0.2817  1.2246  2.6412
   34DOPE  H13Y 4370   1.190   3.876  14.237  0.2299 -2.0895  0.0350
   34DOPE  C314 4371   1.251   3.889  14.436  0.3396  1.0774  0.3549
   34DOPE  H14X 4372   1.341   3.872  14.499 -0.1287 -0.1148  0.7415
   34DOPE  H14Y 4373   1.187   3.801  14.460 -0.2572  1.6681  0.9321
   34DOPE  C315 4374   1.167   4.009  14.471 -0.5809  0.3717 -0.1707
   34DOPE  H15X 4375   1.080   4.013  14.401 -0.1181  1.3682 -0.7148
   34DOPE  H15Y 4376   1.231   4.094  14.438 -0.6557  1.3385  1.9843
   34DOPE  C316 4377   1.123   4.034  14.615  0.0623  0.1422 -0.6642
   34DOPE  H16X 4378   1.052   3.954  14.641 -0.2293  0.7203  0.3800
   34DOPE  H16Y 4379   1.067   4.130  14.618 -1.9253 -0.9233 -1.5599
   34DOPE  C317 4380   1.236   4.051  14.717 -0.0405  0.0713 -0.0446
   34DOPE  H17X 4381   1.190   4.072  14.816  0.0231 -0.2556  0.0563
   34DOPE  H17Y 4382   1.306   3.968  14.738  1.9754  1.5232 -0.7630
   34DOPE  C318 4383   1.317   4.174  14.686  0.4609  0.1688  0.3778
   34DOPE  H18X 4384   1.375   4.174  14.591  0.2918 -0.2578  0.2707
   34DOPE  H18Y 4385   1.242   4.255  14.677  0.2380 -0.1220 -0.3945
   34DOPE  H18Z 4386   1.387   4.188  14.771 -2.9494 -2.0516  3.9168
   35DOPE     N 4387   5.564   2.529  13.093  0.4713 -0.4506  0.8654
   35DOPE   HN1 4388   5.640   2.472  13.053  0.3353 -0.1304  0.1402
   35DOPE   HN2 4389   5.484   2.513  13.029  0.9330  0.9325 -0.1102
   35DOPE   HN3 4390   5.594   2.628  13.081  2.0534 -0.9399  0.5912
   35DOPE   C12 4391   5.529   2.482  13.230 -0.4768  0.0556  0.2711
   35DOPE  H12A 4392   5.437   2.536  13.262 -0.4843 -0.2926  0.8491
   35DOPE  H12B 4393   5.608   2.508  13.303 -0.1781 -0.6631  0.2122
   35DOPE   C11 4394   5.518   2.329  13.235 -0.2236  0.0737 -0.0319
   35DOPE  H11A 4395   5.486   2.295  13.336  0.8362  1.0875  0.6697
   35DOPE  H11B 4396   5.614   2.282  13.204  0.4377  2.2362 -1.4649
   35DOPE     P 4397   5.408   2.155  13.068 -0.2060  0.3851  0.9982
   35DOPE   O13 4398   5.489   2.171  12.943 -0.0600 -0.4670  0.1756
   35DOPE   O14 4399   5.266   2.119  13.048 -0.1835  0.2051 -0.4516
   35DOPE   O11 4400   5.481   2.061  13.171 -0.2297  0.3849 -0.4691
   35DOPE   O12 4401   5.415   2.289  13.142  0.1427  0.5102  0.1883
   35DOPE    C1 4402   5.416   1.947  13.236 -0.1966 -0.1254  0.4327
   35DOPE    HA 4403   5.495   1.869  13.244  0.4005  0.3696 -0.5157
   35DOPE    HB 4404   5.331   1.909  13.176  1.0598  0.6309 -1.9728
   35DOPE    C2 4405   5.370   1.989  13.382 -0.0417  0.5032 -0.2391
   35DOPE    HS 4406   5.301   2.076  13.373 -1.8898 -1.1002 -3.6960
   35DOPE   O21 4407   5.478   1.999  13.470 -0.4636  0.1656  0.6298
   35DOPE   C21 4408   5.451   2.060  13.583  0.5980  1.3026  0.0394
   35DOPE   O22 4409   5.342   2.108  13.611 -0.4066 -0.1607 -0.3338
   35DOPE   C22 4410   5.587   2.069  13.651  0.6671 -0.0783 -0.2487
   35DOPE   H2R 4411   5.664   2.076  13.571 -0.6857 -0.3086 -1.6295
   35DOPE   H2S 4412   5.594   1.970  13.701  0.8501 -0.2289 -0.5679
   35DOPE    C3 4413   5.276   1.877  13.430 -0.5836 -0.6540  0.7106
   35DOPE    HX 4414   5.249   1.883  13.538  2.2961 -3.9831  1.8127
   35DOPE    HY 4415   5.347   1.793  13.417  1.8855  1.4806 -0.4005
   35DOPE   O31 4416   5.167   1.874  13.332 -0.2152 -0.3557 -0.6067
   35DOPE   C31 4417   5.048   1.922  13.374  0.2910 -0.9316 -0.6858
   35DOPE   O32 4418   5.020   1.947  13.492 -0.1083 -0.0706  0.6921
   35DOPE   C32 4419   4.957   1.961  13.251  0.8517 -0.3588  0.1801
   35DOPE   H2X 4420   4.900   2.053  13.275  2.0155  0.0329  1.5124
   35DOPE   H2Y 4421   5.031   1.978  13.170  0.7895  0.5615  0.3116
   35DOPE   C23 4422   5.594   2.189  13.749  0.7464 -0.3683 -0.5302
   35DOPE   H3R 4423   5.549   2.284  13.714  0.5163  0.4457  1.7732
   35DOPE   H3S 4424   5.694   2.217  13.787  0.8747 -0.9509 -0.4285
   35DOPE   C24 4425   5.537   2.164  13.888  0.1930 -0.7325 -0.1637
   35DOPE   H4R 4426   5.561   2.066  13.935  1.7216 -0.3300 -0.0700
   35DOPE   H4S 4427   5.426   2.155  13.887 -0.3467  1.1525  5.3794
   35DOPE   C25 4428   5.579   2.275  13.982 -0.4661  0.5161 -0.3168
   35DOPE   H5R 4429   5.564   2.372  13.930 -0.7506 -0.7275 -2.6664
   35DOPE   H5S 4430   5.684   2.258  14.014 -0.4912 -1.0553 -0.9873
   35DOPE   C26 4431   5.517   2.286  14.124  0.4307  0.8442 -1.2427
   35DOPE   H6R 4432   5.423   2.344  14.134  1.1189  1.5795  2.8102
   35DOPE   H6S 4433   5.588   2.346  14.184  0.8317  0.1869 -1.0540
   35DOPE   C27 4434   5.499   2.148  14.200 -0.2846 -0.2051  0.6077
   35DOPE   H7R 4435   5.595   2.093  14.190  1.4012  2.6348  0.2081
   35DOPE   H7S 4436   5.435   2.080  14.139  1.4761 -1.4828  0.0847
   35DOPE   C28 4437   5.447   2.151  14.338 -0.3890 -0.2990 -0.6335
   35DOPE   H8R 4438   5.428   2.044  14.364  1.5071 -1.3139 -3.0784
   35DOPE   H8S 4439   5.348   2.201  14.342 -1.3776 -2.2379  1.0030
   35DOPE   C29 4440   5.540   2.225  14.438 -0.2825  0.5284  0.7123
   35DOPE   H9R 4441   5.583   2.322  14.408 -0.8677  0.4591 -0.4352
   35DOPE  C210 4442   5.596   2.173  14.550  0.1419  0.1053  0.6242
   35DOPE  H10R 4443   5.671   2.237  14.597  2.1293 -0.8241 -1.1165
   35DOPE  C211 4444   5.573   2.036  14.618  0.4404  0.4559  0.7486
   35DOPE  H11R 4445   5.667   2.013  14.673  0.7582 -0.2605 -0.0694
   35DOPE  H11S 4446   5.563   1.957  14.541  1.0742  1.9243 -0.9277
   35DOPE  C212 4447   5.460   2.029  14.723 -0.1527  0.2785  0.2115
   35DOPE  H12R 4448   5.484   2.087  14.815 -1.0023  2.9095 -1.1125
   35DOPE  H12S 4449   5.462   1.924  14.757  1.3553  1.1365  3.1685
   35DOPE  C213 4450   5.316   2.073  14.670  0.0968  0.8967 -0.4639
   35DOPE  H13R 4451   5.284   2.000  14.593 -0.7874 -1.8196  2.2662
   35DOPE  H13S 4452   5.319   2.177  14.630  0.2385  1.7403  1.6178
   35DOPE  C214 4453   5.205   2.059  14.774 -0.4518  0.5987  0.1586
   35DOPE  H14R 4454   5.223   2.130  14.858 -1.1163 -1.5392  2.2525
   35DOPE  H14S 4455   5.210   1.958  14.821 -1.2902  0.4094 -0.1523
   35DOPE  C215 4456   5.062   2.053  14.716  0.2820  0.1371 -0.2105
   35DOPE  H15R 4457   5.049   1.968  14.645  0.9497 -1.8294  1.9041
   35DOPE  H15S 4458   5.052   2.150  14.664  3.0383  0.3782 -0.4233
   35DOPE  C216 4459   4.946   2.044  14.819  0.0052  0.0821 -0.0194
   35DOPE  H16R 4460   4.920   2.144  14.862 -1.5465 -0.3277  0.0662
   35DOPE  H16S 4461   4.963   1.974  14.903 -0.0641 -1.6513 -1.4063
   35DOPE  C217 4462   4.815   2.005  14.752 -0.2506 -0.3774 -0.3555
   35DOPE  H17R 4463   4.834   1.907  14.703  3.1542 -0.0895  0.1035
   35DOPE  H17S 4464   4.792   2.072  14.666 -0.2548  1.3265  0.9276
   35DOPE  C218 4465   4.695   1.995  14.844  0.2061 -0.0245  0.8623
   35DOPE  H18R 4466   4.608   1.969  14.780  0.5811  0.9880 -0.0991
   35DOPE  H18S 4467   4.680   2.090  14.900 -0.9827  1.5315 -1.9091
   35DOPE  H18T 4468   4.713   1.908  14.910  1.0220 -1.9035 -1.6880
   35DOPE   C33 4469   4.855   1.855  13.206 -0.1631  0.1775  0.0587
   35DOPE   H3X 4470   4.903   1.757  13.189 -2.2218 -0.7650 -0.6176
   35DOPE   H3Y 4471   4.809   1.885  13.110  1.0117  3.9207  0.4817
   35DOPE   C34 4472   4.728   1.825  13.296 -0.4649 -0.7973  0.0642
   35DOPE   H4X 4473   4.680   1.924  13.315  0.5910  0.1269 -1.8037
   35DOPE   H4Y 4474   4.660   1.770  13.227  1.3760 -0.7043 -1.9321
   35DOPE   C35 4475   4.747   1.735  13.413 -0.0164  0.2862 -0.3977
   35DOPE   H5X 4476   4.777   1.788  13.506 -0.8470  1.9107 -1.0319
   35DOPE   H5Y 4477   4.830   1.662  13.402 -1.1201 -1.1675  0.4762
   35DOPE   C36 4478   4.618   1.660  13.440 -0.6813 -0.1889  0.0350
   35DOPE   H6X 4479   4.579   1.598  13.356 -0.5509  2.8449 -2.4375
   35DOPE   H6Y 4480   4.539   1.737  13.452 -3.0536 -2.1692 -1.7593
   35DOPE   C37 4481   4.621   1.570  13.564 -0.9757 -0.3735  0.4131
   35DOPE   H7X 4482   4.705   1.500  13.544  0.0170  0.8313  0.2978
   35DOPE   H7Y 4483   4.659   1.618  13.657 -1.9385  1.2198  0.0115
   35DOPE   C38 4484   4.500   1.477  13.589  0.2672  0.3505 -0.2076
   35DOPE   H8X 4485   4.525   1.413  13.676  1.3248  1.2454  0.1696
   35DOPE   H8Y 4486   4.479   1.414  13.500  0.8928  0.8250 -0.7050
   35DOPE   C39 4487   4.378   1.554  13.628 -0.3250 -0.3233 -1.0368
   35DOPE   H9X 4488   4.386   1.663  13.615  4.7131 -0.3167 -0.0520
   35DOPE  C310 4489   4.265   1.506  13.680  0.5846  0.2178  0.4529
   35DOPE  H10X 4490   4.187   1.569  13.724 -1.4908 -1.6787 -0.3113
   35DOPE  C311 4491   4.236   1.360  13.713 -0.6277 -0.5443  0.1204
   35DOPE  H11X 4492   4.148   1.332  13.651 -1.1411  2.3392 -0.6072
   35DOPE  H11Y 4493   4.323   1.297  13.684  1.9183  4.2068 -4.4185
   35DOPE  C312 4494   4.193   1.342  13.852 -0.0591 -0.3274 -0.0541
   35DOPE  H12X 4495   4.266   1.396  13.917  0.8257 -0.5959 -0.8089
   35DOPE  H12Y 4496   4.208   1.235  13.874  1.3612 -0.8251 -2.9976
   35DOPE  C313 4497   4.047   1.380  13.874 -0.6263  0.6143  0.4373
   35DOPE  H13X 4498   4.038   1.482  13.832  2.5509 -0.1977 -2.8400
   35DOPE  H13Y 4499   3.987   1.306  13.816 -0.2364 -0.1435  0.9741
   35DOPE  C314 4500   3.991   1.389  14.023  0.5973  0.1500  0.0772
   35DOPE  H14X 4501   3.885   1.416  14.004  1.0869  2.3204  0.1162
   35DOPE  H14Y 4502   4.042   1.473  14.076 -0.1102  0.2756  0.5702
   35DOPE  C315 4503   4.005   1.265  14.109 -0.2520 -0.5463  0.1850
   35DOPE  H15X 4504   4.113   1.244  14.129 -0.7983 -2.2006  1.5500
   35DOPE  H15Y 4505   3.968   1.186  14.041  1.0735 -0.1843 -1.0222
   35DOPE  C316 4506   3.932   1.263  14.242  0.5177  0.1593  0.9219
   35DOPE  H16X 4507   3.955   1.167  14.292 -0.3261 -1.8473 -2.2446
   35DOPE  H16Y 4508   3.821   1.257  14.233  0.3481  2.8267  0.3237
   35DOPE  C317 4509   3.975   1.379  14.339 -0.5142 -0.0512 -0.8684
   35DOPE  H17X 4510   4.086   1.376  14.339 -0.4852  0.7724 -1.0833
   35DOPE  H17Y 4511   3.956   1.475  14.286  0.2382  0.6492  0.0942
   35DOPE  C318 4512   3.914   1.372  14.477  0.0085  0.1837  0.2081
   35DOPE  H18X 4513   3.939   1.267  14.504  2.0603  1.0012  1.7490
   35DOPE  H18Y 4514   3.966   1.446  14.541  0.1471  0.0624  0.2372
   35DOPE  H18Z 4515   3.804   1.383  14.472  0.1637  1.6756 -0.7891
   36DOPE     N 4516   5.140   4.190  13.135  0.8910 -0.1900  0.1343
   36DOPE   HN1 4517   5.191   4.280  13.130  0.6203 -0.0677 -0.7479
   36DOPE   HN2 4518   5.046   4.225  13.162 -0.7479 -3.0794 -1.3673
   36DOPE   HN3 4519   5.181   4.138  13.215 -1.7626 -1.0954  1.0194
   36DOPE   C12 4520   5.142   4.106  13.010 -1.2384  0.4359  0.1868
   36DOPE  H12A 4521   5.097   4.165  12.927 -1.3499  2.1979  1.4477
   36DOPE  H12B 4522   5.084   4.016  13.038 -2.3950  1.8968  2.9607
   36DOPE   C11 4523   5.286   4.073  12.977 -0.1750  0.0092  0.4472
   36DOPE  H11A 4524   5.338   4.170  12.957  0.3172 -0.2568  0.4313
   36DOPE  H11B 4525   5.298   4.010  12.886  0.6774  0.5884  0.1436
   36DOPE     P 4526   5.502   3.972  13.087 -0.3637 -0.0685  0.7124
   36DOPE   O13 4527   5.582   4.092  13.116 -0.3538 -0.1490 -0.4823
   36DOPE   O14 4528   5.537   3.890  12.967 -0.0203  0.0057 -0.3505
   36DOPE   O11 4529   5.519   3.876  13.213 -0.3010 -0.0515 -0.0697
   36DOPE   O12 4530   5.356   4.010  13.084  0.0326 -0.2850 -0.1197
   36DOPE    C1 4531   5.420   3.777  13.247 -0.1024  0.3613  1.0172
   36DOPE    HA 4532   5.474   3.692  13.294 -0.2035 -1.1091 -1.3250
   36DOPE    HB 4533   5.369   3.733  13.158 -0.8918  0.6495  1.3171
   36DOPE    C2 4534   5.306   3.832  13.336  0.2104  0.2941  0.3047
   36DOPE    HS 4535   5.243   3.892  13.268  1.9459  2.3936  0.4665
   36DOPE   O21 4536   5.364   3.905  13.443 -0.8436 -0.0253 -0.2217
   36DOPE   C21 4537   5.328   4.035  13.445 -0.9128 -0.5648 -0.3913
   36DOPE   O22 4538   5.243   4.085  13.372 -0.1463 -0.1207 -0.2505
   36DOPE   C22 4539   5.396   4.102  13.563  0.0956  0.2801  0.7057
   36DOPE   H2R 4540   5.499   4.129  13.532  1.0923 -0.7758  2.9319
   36DOPE   H2S 4541   5.397   4.033  13.650  0.8185  0.6449  0.9997
   36DOPE    C3 4542   5.218   3.713  13.382 -0.4842 -0.6762  0.1168
   36DOPE    HX 4543   5.284   3.636  13.427  1.3111  0.2032 -0.8908
   36DOPE    HY 4544   5.182   3.670  13.286  0.5865 -0.9664 -0.1718
   36DOPE   O31 4545   5.111   3.758  13.468 -0.0786 -0.5499  0.3779
   36DOPE   C31 4546   5.136   3.739  13.597 -0.9236  0.1892 -0.6712
   36DOPE   O32 4547   5.230   3.679  13.643 -0.0211  0.1949 -0.2093
   36DOPE   C32 4548   5.023   3.796  13.679 -0.4023  0.0002 -0.9299
   36DOPE   H2X 4549   4.949   3.841  13.609 -1.5365 -1.5780 -0.8049
   36DOPE   H2Y 4550   4.967   3.713  13.727 -1.7161  1.3681  0.0143
   36DOPE   C23 4551   5.322   4.225  13.613 -0.2589  0.1243 -0.0780
   36DOPE   H3R 4552   5.214   4.203  13.599 -0.5253  1.8511 -0.9124
   36DOPE   H3S 4553   5.346   4.301  13.535  0.6929 -3.2287 -3.3787
   36DOPE   C24 4554   5.357   4.274  13.757  0.1167  0.2839 -0.0027
   36DOPE   H4R 4555   5.335   4.186  13.821 -2.6587 -0.1309 -1.3928
   36DOPE   H4S 4556   5.275   4.341  13.791 -1.7558 -1.8622 -0.0711
   36DOPE   C25 4557   5.501   4.322  13.771 -0.3885 -0.3432  0.9996
   36DOPE   H5R 4558   5.514   4.428  13.742  2.0655  0.1567  3.4714
   36DOPE   H5S 4559   5.575   4.267  13.710 -0.3238  0.7318  0.0844
   36DOPE   C26 4560   5.551   4.311  13.910 -0.7819 -0.4087 -0.3557
   36DOPE   H6R 4561   5.656   4.345  13.913 -1.2054  0.9279  1.2079
   36DOPE   H6S 4562   5.555   4.206  13.945  0.5411 -0.4598 -0.6266
   36DOPE   C27 4563   5.470   4.391  14.009  0.0021 -0.2824  0.8058
   36DOPE   H7R 4564   5.389   4.320  14.035  1.2049 -0.7761  3.6123
   36DOPE   H7S 4565   5.432   4.490  13.976 -2.0360 -0.9420  1.0609
   36DOPE   C28 4566   5.558   4.404  14.134 -0.0538 -0.0064 -0.0843
   36DOPE   H8R 4567   5.633   4.481  14.107 -1.0581  0.1082 -2.9168
   36DOPE   H8S 4568   5.599   4.303  14.157 -3.8031 -1.2491  1.9365
   36DOPE   C29 4569   5.476   4.465  14.250 -1.0104 -0.2636 -0.1539
   36DOPE   H9R 4570   5.433   4.386  14.313  2.9481 -1.3851  1.4574
   36DOPE  C210 4571   5.453   4.600  14.273  0.8962 -0.0476  0.0397
   36DOPE  H10R 4572   5.381   4.621  14.354 -0.5706  0.5825 -1.3916
   36DOPE  C211 4573   5.488   4.719  14.186 -0.1419 -0.3390  0.3050
   36DOPE  H11R 4574   5.556   4.698  14.100  2.7866 -0.4860  2.4932
   36DOPE  H11S 4575   5.547   4.790  14.248  0.1779  1.0327 -1.4977
   36DOPE  C212 4576   5.366   4.804  14.145  0.9077  0.7743 -0.1057
   36DOPE  H12R 4577   5.298   4.817  14.232 -0.2652 -0.0023 -0.8871
   36DOPE  H12S 4578   5.305   4.762  14.063 -0.1113  0.6243  0.7076
   36DOPE  C213 4579   5.403   4.944  14.096 -0.8708 -0.2917  0.4113
   36DOPE  H13R 4580   5.438   5.010  14.178  0.6882  0.3683 -0.7098
   36DOPE  H13S 4581   5.313   4.991  14.052 -1.1288  1.2092  2.4455
   36DOPE  C214 4582   5.512   4.932  13.984  0.8368  0.8119 -0.0799
   36DOPE  H14R 4583   5.482   4.860  13.905  2.2808  2.7034 -2.5457
   36DOPE  H14S 4584   5.607   4.890  14.024  0.1690 -0.0956  0.5834
   36DOPE  C215 4585   5.536   5.069  13.915  1.0473  0.1689 -0.0230
   36DOPE  H15R 4586   5.534   5.147  13.994  0.0137 -1.2205  1.3757
   36DOPE  H15S 4587   5.459   5.087  13.836  2.8987  3.3018 -1.3375
   36DOPE  C216 4588   5.671   5.083  13.842 -0.2259  0.3113 -0.0254
   36DOPE  H16R 4589   5.686   5.008  13.761 -1.4198  0.5039 -0.4518
   36DOPE  H16S 4590   5.759   5.055  13.904  1.6345 -0.4453 -2.8309
   36DOPE  C217 4591   5.697   5.220  13.780  0.0742  0.2400 -0.2005
   36DOPE  H17R 4592   5.723   5.300  13.852  3.1421  0.4183 -1.3830
   36DOPE  H17S 4593   5.608   5.252  13.722  0.0239 -1.0751 -0.8895
   36DOPE  C218 4594   5.828   5.220  13.693  0.4548  0.5670 -0.2999
   36DOPE  H18R 4595   5.921   5.190  13.745 -0.0158  1.4102  1.0797
   36DOPE  H18S 4596   5.844   5.318  13.643 -0.9602  0.7053 -0.5265
   36DOPE  H18T 4597   5.822   5.154  13.603 -1.1946  1.0117 -0.5538
   36DOPE   C33 4598   5.078   3.902  13.783 -0.6442  0.1845  0.2795
   36DOPE   H3X 4599   5.128   3.995  13.749  1.2232  0.1602  2.7184
   36DOPE   H3Y 4600   5.150   3.856  13.854 -1.2140  0.0176  0.7585
   36DOPE   C34 4601   4.966   3.942  13.882 -0.0315  0.2524  0.3173
   36DOPE   H4X 4602   4.882   3.971  13.816 -0.6447 -1.4082  0.3265
   36DOPE   H4Y 4603   4.931   3.848  13.930 -1.1780 -0.2658 -1.4373
   36DOPE   C35 4604   5.004   4.048  13.979  0.3748  0.2109 -0.5882
   36DOPE   H5X 4605   5.083   4.001  14.041 -0.5095 -1.0378 -0.3671
   36DOPE   H5Y 4606   4.921   4.055  14.052  1.9059 -0.7570  1.3316
   36DOPE   C36 4607   5.050   4.189  13.933 -0.1061 -0.7313  0.9136
   36DOPE   H6X 4608   4.967   4.219  13.866  0.3233 -1.3912  0.0590
   36DOPE   H6Y 4609   5.140   4.181  13.869  0.9737 -3.4281  2.5687
   36DOPE   C37 4610   5.081   4.293  14.042  0.5151  0.2372 -0.1488
   36DOPE   H7X 4611   5.148   4.248  14.118  1.3049  0.2322 -0.8265
   36DOPE   H7Y 4612   5.132   4.385  14.004  0.3479 -0.1845 -1.4670
   36DOPE   C38 4613   4.952   4.331  14.116 -0.4692 -0.1161 -0.5151
   36DOPE   H8X 4614   4.906   4.232  14.140 -2.4911  0.8234 -0.3224
   36DOPE   H8Y 4615   4.893   4.391  14.044  1.4494  0.5825 -1.5806
   36DOPE   C39 4616   4.968   4.424  14.236 -0.3547 -0.0267 -0.4288
   36DOPE   H9X 4617   5.027   4.516  14.220 -2.6987  2.1234  2.1488
   36DOPE  C310 4618   4.934   4.407  14.369 -0.5407  0.1790  0.3525
   36DOPE  H10X 4619   4.946   4.497  14.431  1.4329  2.1054 -2.5388
   36DOPE  C311 4620   4.875   4.290  14.430  0.5861  0.2640 -0.8738
   36DOPE  H11X 4621   4.766   4.284  14.412  0.7307 -0.6470 -1.5207
   36DOPE  H11Y 4622   4.921   4.197  14.389  1.4353  0.1177  0.3460
   36DOPE  C312 4623   4.906   4.274  14.580 -0.1792 -0.3351  0.5292
   36DOPE  H12X 4624   4.874   4.369  14.628 -1.4149  0.1367 -1.1357
   36DOPE  H12Y 4625   5.016   4.270  14.594 -0.2454  0.7130  1.4710
   36DOPE  C313 4626   4.850   4.145  14.658 -0.7307 -0.5079 -0.2736
   36DOPE  H13X 4627   4.867   4.177  14.763  2.0210  1.1689 -1.1152
   36DOPE  H13Y 4628   4.744   4.131  14.630  0.1733 -2.5595 -3.1793
   36DOPE  C314 4629   4.933   4.017  14.632 -0.5608 -0.2359  0.2089
   36DOPE  H14X 4630   5.042   4.037  14.628 -0.2912 -1.5445  0.4371
   36DOPE  H14Y 4631   4.898   3.993  14.529  0.4873  1.9782 -0.7196
   36DOPE  C315 4632   4.921   3.905  14.734 -0.0237 -0.4569  0.4074
   36DOPE  H15X 4633   4.811   3.885  14.743 -0.1136 -0.5809 -0.8342
   36DOPE  H15Y 4634   4.959   3.934  14.834 -2.0075  1.7562  0.6224
   36DOPE  C316 4635   4.992   3.776  14.688  0.1484  0.1190  0.1259
   36DOPE  H16X 4636   4.944   3.742  14.594  0.7809  1.1839 -0.5986
   36DOPE  H16Y 4637   4.977   3.696  14.764 -0.3425  0.6465  0.6012
   36DOPE  C317 4638   5.136   3.781  14.652 -0.1597 -0.7104  0.1644
   36DOPE  H17X 4639   5.161   3.682  14.608 -0.3145 -0.9883  0.6900
   36DOPE  H17Y 4640   5.146   3.858  14.573  0.6269 -1.0916 -0.1148
   36DOPE  C318 4641   5.232   3.813  14.764  0.1876 -0.7105  0.4077
   36DOPE  H18X 4642   5.224   3.755  14.859  2.7311  0.7836  1.6226
   36DOPE  H18Y 4643   5.333   3.791  14.724 -0.2497 -1.0441 -0.5466
   36DOPE  H18Z 4644   5.231   3.922  14.784  0.0031 -0.6851  0.2634
   37DOPE     N 4645   1.456   1.434  12.877 -0.2826  0.5409  0.0694
   37DOPE   HN1 4646   1.353   1.446  12.868 -0.2275  3.5672  1.9941
   37DOPE   HN2 4647   1.490   1.429  12.779  2.8301 -2.7462  1.1064
   37DOPE   HN3 4648   1.482   1.345  12.924 -1.6309 -0.5067 -1.0699
   37DOPE   C12 4649   1.504   1.556  12.960 -0.0966 -0.0627 -0.6066
   37DOPE  H12A 4650   1.455   1.546  13.059 -0.1458 -0.7396 -0.6919
   37DOPE  H12B 4651   1.476   1.649  12.907 -0.6999 -0.1116 -0.3837
   37DOPE   C11 4652   1.661   1.536  12.987 -0.5399 -0.4482 -0.1566
   37DOPE  H11A 4653   1.677   1.443  13.046  3.2367  0.9730  1.3700
   37DOPE  H11B 4654   1.702   1.613  13.055  0.4578 -0.1196 -1.1052
   37DOPE     P 4655   1.738   1.665  12.782 -0.3440 -0.1777 -0.0950
   37DOPE   O13 4656   1.620   1.658  12.693 -0.0138  0.5414  0.2219
   37DOPE   O14 4657   1.869   1.677  12.712  0.3063 -0.1022  0.5553
   37DOPE   O11 4658   1.719   1.780  12.890  0.1251  0.5489 -0.1079
   37DOPE   O12 4659   1.741   1.533  12.876  0.0967  0.0678 -0.3884
   37DOPE    C1 4660   1.802   1.892  12.911 -0.5042 -0.6311 -0.3752
   37DOPE    HA 4661   1.747   1.988  12.919  1.1411  0.2901  0.2957
   37DOPE    HB 4662   1.867   1.917  12.825  2.1615  1.6807  2.0918
   37DOPE    C2 4663   1.873   1.886  13.051 -0.4146  0.1097  0.1355
   37DOPE    HS 4664   1.954   1.963  13.049 -0.0289 -0.3050 -0.5093
   37DOPE   O21 4665   1.923   1.753  13.081 -0.2352  0.1284 -0.8258
   37DOPE   C21 4666   2.026   1.722  13.006  0.8388  0.1920  0.2947
   37DOPE   O22 4667   2.082   1.793  12.926  0.1229  0.2197  0.0412
   37DOPE   C22 4668   2.065   1.577  13.040  0.3691  0.1230  0.6057
   37DOPE   H2R 4669   2.172   1.570  13.010  0.5662 -1.9608  1.5924
   37DOPE   H2S 4670   2.017   1.509  12.967 -2.2594  1.4092  1.0483
   37DOPE    C3 4671   1.776   1.942  13.164  0.8467  0.2552  0.1528
   37DOPE    HX 4672   1.679   1.891  13.153  1.6346 -1.1930 -0.3825
   37DOPE    HY 4673   1.733   2.042  13.141  3.2449  0.8622 -2.2016
   37DOPE   O31 4674   1.818   1.944  13.298  0.2996  1.0298 -0.3954
   37DOPE   C31 4675   1.918   2.020  13.331  0.9162  0.3679  0.3553
   37DOPE   O32 4676   1.980   2.092  13.258  0.6912  0.2679  0.4139
   37DOPE   C32 4677   1.964   1.993  13.472 -0.5144  0.1549 -1.0097
   37DOPE   H2X 4678   1.871   1.959  13.521 -0.4524 -2.7000 -2.6933
   37DOPE   H2Y 4679   2.028   1.902  13.467 -2.3264 -1.2068 -0.4767
   37DOPE   C23 4680   2.055   1.535  13.194  0.0248 -0.1792  1.3099
   37DOPE   H3R 4681   1.950   1.525  13.229 -0.9892  0.5641 -1.3368
   37DOPE   H3S 4682   2.101   1.612  13.261 -2.9349  0.5838  2.6299
   37DOPE   C24 4683   2.142   1.410  13.232 -0.1096  0.4394  0.0523
   37DOPE   H4R 4684   2.251   1.432  13.226 -0.5238  3.1334  0.8131
   37DOPE   H4S 4685   2.116   1.338  13.152  0.1250  0.1464  0.2377
   37DOPE   C25 4686   2.115   1.357  13.370  0.0457 -0.4543 -0.5036
   37DOPE   H5R 4687   2.007   1.334  13.361 -0.1817  0.3502  0.0823
   37DOPE   H5S 4688   2.127   1.432  13.451  0.9593 -0.6838 -0.4110
   37DOPE   C26 4689   2.209   1.233  13.392 -0.2334 -0.1357  0.0223
   37DOPE   H6R 4690   2.313   1.262  13.416 -0.1919  0.9141 -1.2630
   37DOPE   H6S 4691   2.222   1.189  13.291  0.2939 -1.7720  0.7786
   37DOPE   C27 4692   2.161   1.137  13.500  0.8807 -0.1326 -0.6403
   37DOPE   H7R 4693   2.168   1.184  13.600  0.2281 -1.0652 -0.1418
   37DOPE   H7S 4694   2.225   1.046  13.494  1.2223  0.1563 -1.7033
   37DOPE   C28 4695   2.014   1.084  13.488  0.4162  0.0064  0.1661
   37DOPE   H8R 4696   1.942   1.168  13.486  0.1319 -0.2347 -1.9599
   37DOPE   H8S 4697   1.991   1.023  13.578 -0.5575  0.6149  0.3352
   37DOPE   C29 4698   1.995   1.005  13.363  0.6064  0.0403 -0.6970
   37DOPE   H9R 4699   1.971   1.070  13.277  0.3840  0.8409 -0.0393
   37DOPE  C210 4700   1.994   0.868  13.345  0.2872 -0.2451  0.2082
   37DOPE  H10R 4701   1.960   0.822  13.251 -1.2073 -0.1617  0.6835
   37DOPE  C211 4702   2.014   0.761  13.453 -0.3444 -0.5115 -0.2579
   37DOPE  H11R 4703   2.046   0.795  13.553 -0.0588  0.0431 -0.5352
   37DOPE  H11S 4704   2.093   0.688  13.425  1.7841  0.9822  1.6322
   37DOPE  C212 4705   1.887   0.670  13.472 -0.2995 -0.0053 -0.0376
   37DOPE  H12R 4706   1.917   0.583  13.533  0.9716 -0.0433 -0.6648
   37DOPE  H12S 4707   1.865   0.634  13.369  0.1803 -0.2807 -0.0492
   37DOPE  C213 4708   1.767   0.743  13.543 -0.8158  0.1258  0.1364
   37DOPE  H13R 4709   1.679   0.675  13.538 -0.9699  0.2554  0.9055
   37DOPE  H13S 4710   1.735   0.830  13.481 -0.9918 -0.0543 -0.0276
   37DOPE  C214 4711   1.798   0.773  13.693  0.1109  0.6072  0.3084
   37DOPE  H14R 4712   1.737   0.852  13.741  1.6631  1.6097  0.6790
   37DOPE  H14S 4713   1.901   0.811  13.709  0.4451 -0.4604  0.7980
   37DOPE  C215 4714   1.776   0.657  13.797  0.7096 -0.1716 -0.3385
   37DOPE  H15R 4715   1.858   0.582  13.791  1.4929  0.6405  0.0787
   37DOPE  H15S 4716   1.682   0.603  13.773  0.5212  0.4933 -1.1391
   37DOPE  C216 4717   1.751   0.720  13.935  0.0011 -0.1667  0.0139
   37DOPE  H16R 4718   1.668   0.794  13.930  1.2414  1.4670  1.8162
   37DOPE  H16S 4719   1.843   0.780  13.955 -0.6311  0.7980  0.0979
   37DOPE  C217 4720   1.728   0.629  14.054  0.2376  0.2622 -0.6712
   37DOPE  H17R 4721   1.818   0.564  14.065  0.8353  0.7916 -2.1576
   37DOPE  H17S 4722   1.643   0.561  14.032  2.0698 -1.3711 -3.3142
   37DOPE  C218 4723   1.695   0.701  14.182 -0.7310  0.4153  0.2773
   37DOPE  H18R 4724   1.703   0.627  14.264 -2.3172  0.0544  0.1309
   37DOPE  H18S 4725   1.598   0.756  14.174 -1.5843 -0.6818  2.4870
   37DOPE  H18T 4726   1.770   0.777  14.213 -0.9375 -0.0614  2.0348
   37DOPE   C33 4727   2.046   2.110  13.543 -0.0794 -0.0458  0.0812
   37DOPE   H3X 4728   1.977   2.190  13.578 -0.1812  0.0901 -0.4162
   37DOPE   H3Y 4729   2.109   2.151  13.461 -0.0843 -0.8884 -0.3485
   37DOPE   C34 4730   2.124   2.068  13.673  0.0436  0.1669 -0.0227
   37DOPE   H4X 4731   2.071   1.980  13.716  2.4168 -2.3282 -1.8426
   37DOPE   H4Y 4732   2.218   2.017  13.645 -0.5546 -1.2409  0.4279
   37DOPE   C35 4733   2.138   2.177  13.778 -0.5241  0.1291 -0.8738
   37DOPE   H5X 4734   2.045   2.238  13.778 -1.7519 -1.6199  1.2987
   37DOPE   H5Y 4735   2.227   2.242  13.759  1.0047 -1.4937  0.3453
   37DOPE   C36 4736   2.168   2.123  13.921  0.0287  1.1349  0.0846
   37DOPE   H6X 4737   2.266   2.070  13.924 -0.2359  0.6780  0.7099
   37DOPE   H6Y 4738   2.085   2.054  13.946  0.3274  0.6588 -0.2159
   37DOPE   C37 4739   2.174   2.236  14.025  0.1356  0.5341  0.9381
   37DOPE   H7X 4740   2.263   2.296  13.996 -1.6576  3.4192  1.0168
   37DOPE   H7Y 4741   2.085   2.301  14.010 -0.7558 -0.7757  0.3008
   37DOPE   C38 4742   2.188   2.194  14.168  0.3488 -0.1825  0.1975
   37DOPE   H8X 4743   2.108   2.121  14.195 -1.2931  1.0156 -1.1671
   37DOPE   H8Y 4744   2.177   2.275  14.243 -0.6776 -0.1007 -0.0269
   37DOPE   C39 4745   2.327   2.129  14.202 -0.3635  0.2765 -0.5512
   37DOPE   H9X 4746   2.391   2.116  14.114 -0.2426 -1.3939 -0.2562
   37DOPE  C310 4747   2.370   2.126  14.334  0.4504  0.3118  0.5995
   37DOPE  H10X 4748   2.470   2.087  14.361  0.1873 -1.2311 -0.5353
   37DOPE  C311 4749   2.284   2.146  14.454  0.1899  0.5936  0.6359
   37DOPE  H11X 4750   2.337   2.207  14.531 -0.6108  0.5010  1.2639
   37DOPE  H11Y 4751   2.186   2.192  14.429 -0.2298  0.2486  1.6195
   37DOPE  C312 4752   2.256   2.014  14.516 -0.5799  0.3422  0.3126
   37DOPE  H12X 4753   2.340   1.946  14.541 -1.9335 -1.2523  0.7178
   37DOPE  H12Y 4754   2.193   1.959  14.442 -3.2030  0.4948  2.2898
   37DOPE  C313 4755   2.177   2.028  14.649  0.0790  0.3740  0.1438
   37DOPE  H13X 4756   2.085   2.089  14.635  1.1156  1.7831 -0.8355
   37DOPE  H13Y 4757   2.155   1.924  14.682  0.6218 -0.5987 -2.3594
   37DOPE  C314 4758   2.258   2.089  14.768 -0.1432  0.6574  0.0476
   37DOPE  H14X 4759   2.287   2.193  14.745 -0.9647  1.2846  1.7104
   37DOPE  H14Y 4760   2.338   2.014  14.783 -1.2074 -0.6947 -0.7504
   37DOPE  C315 4761   2.180   2.104  14.902 -0.3138  0.8261  0.5378
   37DOPE  H15X 4762   2.133   2.005  14.919 -2.0823  1.1622 -1.8120
   37DOPE  H15Y 4763   2.090   2.165  14.880 -1.1395 -0.3026  0.7402
   37DOPE  C316 4764   2.257   2.153  15.026 -0.4954  0.0579  0.5670
   37DOPE  H16X 4765   2.189   2.164  15.113 -0.0846  1.3789  0.7562
   37DOPE  H16Y 4766   2.312   2.248  15.004 -0.3779 -0.1399  0.0010
   37DOPE  C317 4767   2.368   2.053  15.078  0.1334 -0.8914  0.6936
   37DOPE  H17X 4768   2.453   2.054  15.007  0.5771 -2.3154  1.1600
   37DOPE  H17Y 4769   2.419   2.106  15.161 -0.1842 -0.3518  0.5464
   37DOPE  C318 4770   2.329   1.921  15.126  0.8086  0.2346 -0.2717
   37DOPE  H18X 4771   2.306   1.855  15.040 -2.0108 -1.0513  1.3307
   37DOPE  H18Y 4772   2.402   1.891  15.205  0.2268 -0.1459  0.1320
   37DOPE  H18Z 4773   2.234   1.923  15.183  1.3579  1.1015  0.6688
   38DOPE     N 4774   5.714   4.564  13.093 -0.4534  0.8551 -0.4199
   38DOPE   HN1 4775   5.668   4.506  13.021  0.2089  1.1924 -1.1291
   38DOPE   HN2 4776   5.807   4.595  13.057  0.0730  2.3648  1.9574
   38DOPE   HN3 4777   5.728   4.508  13.180 -0.0515  2.2438  0.4478
   38DOPE   C12 4778   5.628   4.679  13.125  0.6115 -0.3360 -0.3115
   38DOPE  H12A 4779   5.625   4.753  13.043  0.5640  0.4031  0.3452
   38DOPE  H12B 4780   5.670   4.735  13.211  0.4773 -1.7902  0.7550
   38DOPE   C11 4781   5.487   4.628  13.153  0.2507 -0.0005 -0.1153
   38DOPE  H11A 4782   5.425   4.714  13.186  0.9636  0.3421  0.3385
   38DOPE  H11B 4783   5.495   4.554  13.235 -0.0774 -0.3507 -0.3956
   38DOPE     P 4784   5.303   4.494  13.019  0.2042  0.1989 -0.0999
   38DOPE   O13 4785   5.284   4.412  13.144  0.2773 -0.3511 -0.0151
   38DOPE   O14 4786   5.301   4.426  12.886 -0.6578  0.6253 -0.1174
   38DOPE   O11 4787   5.198   4.615  13.011 -0.3858  0.1882  0.1180
   38DOPE   O12 4788   5.440   4.569  13.030  0.1311 -0.2107  0.2365
   38DOPE    C1 4789   5.062   4.589  13.053  0.0460 -0.2824 -0.0313
   38DOPE    HA 4790   5.025   4.485  13.037  0.7694 -0.7234  1.0618
   38DOPE    HB 4791   5.004   4.640  12.974 -1.8270 -2.9126 -0.5064
   38DOPE    C2 4792   5.008   4.642  13.186  0.9680  0.0774  0.5183
   38DOPE    HS 4793   5.023   4.752  13.197  0.4786  0.3074 -0.9092
   38DOPE   O21 4794   5.068   4.576  13.300 -0.6962 -0.1621 -0.2704
   38DOPE   C21 4795   5.175   4.635  13.358  0.3937 -0.0850 -0.4834
   38DOPE   O22 4796   5.210   4.750  13.330  0.2203  0.1892  0.1827
   38DOPE   C22 4797   5.252   4.532  13.444 -0.2241 -0.1109 -0.6345
   38DOPE   H2R 4798   5.299   4.462  13.372 -0.5067 -2.1405  1.0188
   38DOPE   H2S 4799   5.178   4.473  13.504 -1.4683  0.7765 -1.2436
   38DOPE    C3 4800   4.855   4.632  13.203 -0.1340  0.3898  0.1564
   38DOPE    HX 4801   4.803   4.539  13.171  0.1007 -0.7464  2.8467
   38DOPE    HY 4802   4.796   4.709  13.149 -0.6060 -0.0723  0.0037
   38DOPE   O31 4803   4.814   4.656  13.336 -0.3748  0.1297 -0.2339
   38DOPE   C31 4804   4.789   4.552  13.415  0.5391 -0.2104 -0.1977
   38DOPE   O32 4805   4.811   4.436  13.377  0.5898  0.6798 -0.2084
   38DOPE   C32 4806   4.760   4.612  13.556  0.1400 -0.8729  0.1426
   38DOPE   H2X 4807   4.850   4.667  13.591  0.3059  1.2307 -3.1408
   38DOPE   H2Y 4808   4.680   4.687  13.540  1.5600  0.5475 -0.5182
   38DOPE   C23 4809   5.347   4.590  13.547 -0.4140 -0.3292  0.4100
   38DOPE   H3R 4810   5.435   4.638  13.500 -0.2631 -0.8314  0.1747
   38DOPE   H3S 4811   5.390   4.506  13.606 -1.1392 -0.9403  0.0812
   38DOPE   C24 4812   5.301   4.704  13.646 -0.0213  0.7073 -0.7299
   38DOPE   H4R 4813   5.255   4.776  13.575  0.2568  0.9552 -0.6612
   38DOPE   H4S 4814   5.385   4.761  13.692 -0.1229 -1.0979  1.9927
   38DOPE   C25 4815   5.195   4.653  13.758 -0.4505 -0.0481  0.3075
   38DOPE   H5R 4816   5.250   4.590  13.830  0.7686  0.7916  0.1515
   38DOPE   H5S 4817   5.124   4.579  13.716  1.5740 -0.8356 -1.9594
   38DOPE   C26 4818   5.127   4.763  13.825  0.6895 -0.3745 -0.0909
   38DOPE   H6R 4819   5.072   4.821  13.748  1.8647  0.6371 -0.2045
   38DOPE   H6S 4820   5.207   4.830  13.863  0.7713 -0.4346 -0.1561
   38DOPE   C27 4821   5.027   4.703  13.927 -0.3201 -0.0854 -0.5199
   38DOPE   H7R 4822   5.073   4.649  14.013  0.1412 -0.1840 -0.8206
   38DOPE   H7S 4823   4.970   4.621  13.877 -0.2530 -0.4056 -0.0778
   38DOPE   C28 4824   4.920   4.804  13.967 -0.3568  0.1227  0.2085
   38DOPE   H8R 4825   4.835   4.760  14.023  0.6623 -2.9822 -0.4972
   38DOPE   H8S 4826   4.880   4.842  13.871  1.3706  0.0818 -0.5776
   38DOPE   C29 4827   4.989   4.924  14.039 -0.1974 -1.4287 -0.4512
   38DOPE   H9R 4828   5.027   5.009  13.981 -0.2594 -0.0860  1.4081
   38DOPE  C210 4829   5.019   4.933  14.167  0.8577 -0.4161 -0.1703
   38DOPE  H10R 4830   5.094   5.006  14.199 -1.5359  1.5607  1.2961
   38DOPE  C211 4831   4.972   4.831  14.274  0.4926  0.3274  0.1981
   38DOPE  H11R 4832   5.045   4.839  14.357  1.0967 -2.1834 -0.0022
   38DOPE  H11S 4833   4.974   4.729  14.230 -2.0508  0.2303  0.1910
   38DOPE  C212 4834   4.829   4.848  14.324  0.6976  0.1084  0.2284
   38DOPE  H12R 4835   4.754   4.845  14.242 -0.8472  1.9305  1.4726
   38DOPE  H12S 4836   4.809   4.945  14.374 -1.0242 -0.9301  1.6519
   38DOPE  C213 4837   4.802   4.737  14.431  0.3253  0.1284  0.1313
   38DOPE  H13R 4838   4.885   4.738  14.504 -0.3283  0.4218  0.8833
   38DOPE  H13S 4839   4.818   4.640  14.379 -0.0053  0.0324  0.2079
   38DOPE  C214 4840   4.674   4.733  14.516  0.5831  0.0298 -0.0213
   38DOPE  H14R 4841   4.706   4.653  14.586  1.6403 -0.2018 -0.7409
   38DOPE  H14S 4842   4.583   4.703  14.460  0.9027 -3.0937  0.9484
   38DOPE  C215 4843   4.651   4.867  14.593 -0.1263  0.1744  0.2646
   38DOPE  H15R 4844   4.752   4.909  14.612  0.1332  0.3150 -1.3148
   38DOPE  H15S 4845   4.610   4.840  14.693 -2.1729  1.7880 -0.0623
   38DOPE  C216 4846   4.555   4.975  14.538 -0.3452 -0.2240  0.8207
   38DOPE  H16R 4847   4.468   4.918  14.500  1.4924 -2.7741  0.1424
   38DOPE  H16S 4848   4.605   5.013  14.446  1.5571  0.8143  2.2130
   38DOPE  C217 4849   4.525   5.094  14.634 -0.2994  0.0744  0.0817
   38DOPE  H17R 4850   4.627   5.135  14.651 -0.3465  0.1797  0.1045
   38DOPE  H17S 4851   4.487   5.046  14.727  0.6798  0.0995  0.5122
   38DOPE  C218 4852   4.431   5.204  14.586 -0.5003 -1.2552 -0.2994
   38DOPE  H18R 4853   4.333   5.156  14.567 -0.3964 -1.1028 -1.2976
   38DOPE  H18S 4854   4.472   5.249  14.492 -1.2716  2.0955  0.8210
   38DOPE  H18T 4855   4.426   5.282  14.664 -1.1964 -2.0577  0.4727
   38DOPE   C33 4856   4.722   4.506  13.657 -0.1711  0.2853  0.4466
   38DOPE   H3X 4857   4.809   4.437  13.665 -0.4982 -0.4814 -1.7891
   38DOPE   H3Y 4858   4.643   4.441  13.615 -0.2008 -1.2117  2.6629
   38DOPE   C34 4859   4.683   4.564  13.797  0.0853 -0.0579  0.4813
   38DOPE   H4X 4860   4.642   4.476  13.852 -1.7616  1.4176  1.6168
   38DOPE   H4Y 4861   4.765   4.616  13.851 -0.2832  0.4198  0.5903
   38DOPE   C35 4862   4.562   4.649  13.785 -0.5747 -0.4256  0.1785
   38DOPE   H5X 4863   4.501   4.591  13.712 -1.1398  0.6991 -0.2589
   38DOPE   H5Y 4864   4.577   4.754  13.754 -2.3542  0.3200  1.6438
   38DOPE   C36 4865   4.475   4.652  13.912 -0.3708 -0.1232  0.2522
   38DOPE   H6X 4866   4.413   4.563  13.931  2.1875 -1.9781  0.4117
   38DOPE   H6Y 4867   4.408   4.740  13.905 -0.5014 -0.1993  0.5490
   38DOPE   C37 4868   4.564   4.682  14.034 -0.7892  0.3983  0.1459
   38DOPE   H7X 4869   4.629   4.594  14.048  1.2015  1.3382 -2.2969
   38DOPE   H7Y 4870   4.621   4.777  14.040 -0.8377  0.3517  1.6244
   38DOPE   C38 4871   4.482   4.680  14.163  0.1419 -0.0075  0.4686
   38DOPE   H8X 4872   4.560   4.668  14.241  0.3606 -2.3559 -0.0548
   38DOPE   H8Y 4873   4.412   4.594  14.160 -0.1388  0.2546 -1.4484
   38DOPE   C39 4874   4.405   4.809  14.204 -0.1715 -0.3232 -0.0445
   38DOPE   H9X 4875   4.450   4.899  14.159 -0.3476 -0.5074 -0.6054
   38DOPE  C310 4876   4.286   4.815  14.271  0.1723  0.3637 -0.0364
   38DOPE  H10X 4877   4.239   4.913  14.279  3.0909  2.0365 -1.5822
   38DOPE  C311 4878   4.214   4.705  14.341  0.8157 -0.9814  0.5652
   38DOPE  H11X 4879   4.109   4.697  14.305  1.0694 -2.4702  0.0772
   38DOPE  H11Y 4880   4.262   4.606  14.325 -0.3448 -1.5879  0.7566
   38DOPE  C312 4881   4.218   4.727  14.493  0.2882 -0.0046  0.1652
   38DOPE  H12X 4882   4.161   4.819  14.515  2.2999  1.2379  0.4523
   38DOPE  H12Y 4883   4.323   4.740  14.527  0.8274 -1.5967 -0.7788
   38DOPE  C313 4884   4.168   4.613  14.574  0.0418 -0.1738  0.3479
   38DOPE  H13X 4885   4.058   4.598  14.566 -0.0488 -1.2191  2.6506
   38DOPE  H13Y 4886   4.219   4.521  14.538 -0.7275  0.4577 -2.5767
   38DOPE  C314 4887   4.185   4.633  14.725  0.3893 -0.6343  0.8993
   38DOPE  H14X 4888   4.292   4.654  14.745 -0.4778  1.3207  4.2115
   38DOPE  H14Y 4889   4.155   4.533  14.764 -3.9911  0.2477  0.3891
   38DOPE  C315 4890   4.104   4.745  14.770 -0.0946 -0.2544 -0.8024
   38DOPE  H15X 4891   3.995   4.724  14.758 -0.8594  2.7768 -0.0283
   38DOPE  H15Y 4892   4.133   4.839  14.720  0.9626  1.4743  2.7103
   38DOPE  C316 4893   4.146   4.774  14.916 -0.7283 -0.0317  0.7879
   38DOPE  H16X 4894   4.243   4.828  14.921 -1.8341  2.1287  0.4445
   38DOPE  H16Y 4895   4.144   4.684  14.981 -0.4491  0.3279  1.3016
   38DOPE  C317 4896   4.060   4.884  14.980 -0.0370 -0.0655 -0.5404
   38DOPE  H17X 4897   4.055   4.970  14.910  0.7308  0.4683  0.0450
   38DOPE  H17Y 4898   3.957   4.844  14.984  0.5770 -1.7130 -0.1412
   38DOPE  C318 4899   4.097   4.930  15.119  0.4958  0.1971  0.3771
   38DOPE  H18X 4900   4.033   5.019  15.140  0.4835  0.5321 -0.9850
   38DOPE  H18Y 4901   4.076   4.854  15.197 -1.3167  0.0946 -0.1752
   38DOPE  H18Z 4902   4.199   4.971  15.137  0.0028  1.7749 -0.2433
   39DOPE     N 4903   0.534   3.521  13.391  0.2097  0.2286 -0.1544
   39DOPE   HN1 4904   0.504   3.602  13.334  1.9212  1.7227  0.9725
   39DOPE   HN2 4905   0.547   3.444  13.322  0.1350  1.6347 -1.7961
   39DOPE   HN3 4906   0.465   3.500  13.466  2.3356 -0.6410  1.6847
   39DOPE   C12 4907   0.673   3.543  13.446 -0.3365  0.7487  0.0719
   39DOPE  H12A 4908   0.691   3.463  13.520 -0.6952  0.5524 -0.0490
   39DOPE  H12B 4909   0.681   3.642  13.494 -1.9181  1.0426 -0.2124
   39DOPE   C11 4910   0.779   3.537  13.339 -0.5288  0.0327  0.3157
   39DOPE  H11A 4911   0.776   3.452  13.267 -2.9460 -0.5172  0.9690
   39DOPE  H11B 4912   0.883   3.518  13.374  0.7320  0.3449 -2.9321
   39DOPE     P 4913   0.890   3.752  13.263 -0.5516  0.5886  0.0036
   39DOPE   O13 4914   0.859   3.877  13.188 -0.2535  0.3375 -0.5691
   39DOPE   O14 4915   1.008   3.679  13.216  0.1155  0.1961  0.0476
   39DOPE   O11 4916   0.905   3.778  13.413  0.2901 -0.5603  0.2484
   39DOPE   O12 4917   0.768   3.658  13.260  0.4416  0.4137  0.0717
   39DOPE    C1 4918   0.831   3.887  13.468 -0.2213  0.0373  0.6418
   39DOPE    HA 4919   0.724   3.869  13.443  0.3367 -2.5889 -0.1782
   39DOPE    HB 4920   0.873   3.985  13.438  0.5549  0.0559  1.7345
   39DOPE    C2 4921   0.826   3.872  13.617 -0.4753  0.1036 -0.0909
   39DOPE    HS 4922   0.785   3.771  13.637  0.7674 -0.1442  1.3721
   39DOPE   O21 4923   0.740   3.968  13.679  0.0457  0.3462  0.1239
   39DOPE   C21 4924   0.702   3.935  13.798  0.2301 -0.4770  0.0958
   39DOPE   O22 4925   0.744   3.841  13.865 -0.0683  0.7246 -0.2755
   39DOPE   C22 4926   0.613   4.045  13.859 -0.2322  0.3079 -0.2848
   39DOPE   H2R 4927   0.605   4.131  13.790 -1.5399 -1.5770 -2.6622
   39DOPE   H2S 4928   0.656   4.090  13.951  1.6351  1.1801 -1.5246
   39DOPE    C3 4929   0.976   3.870  13.660 -0.8797  0.6756 -0.3275
   39DOPE    HX 4930   1.025   3.786  13.607 -3.6401 -0.7742 -0.7668
   39DOPE    HY 4931   0.989   3.845  13.767 -1.2469  3.0558  0.3395
   39DOPE   O31 4932   1.050   3.994  13.641 -0.1332  0.1759 -0.0807
   39DOPE   C31 4933   1.146   3.993  13.548  0.8338 -0.2536 -0.5028
   39DOPE   O32 4934   1.177   3.904  13.472 -0.1003  0.6097  0.3302
   39DOPE   C32 4935   1.222   4.116  13.566 -0.2310 -0.9717 -0.0891
   39DOPE   H2X 4936   1.256   4.153  13.467  0.5813 -1.1189  0.1202
   39DOPE   H2Y 4937   1.175   4.202  13.619  0.8562 -0.4206  0.0259
   39DOPE   C23 4938   0.469   3.988  13.889 -0.2552  0.0007 -0.5379
   39DOPE   H3R 4939   0.448   3.905  13.818  2.1475  0.1314 -1.5136
   39DOPE   H3S 4940   0.391   4.067  13.880 -1.6604 -0.9334  2.2654
   39DOPE   C24 4941   0.457   3.929  14.030  0.8873  0.1098  0.0837
   39DOPE   H4R 4942   0.460   4.017  14.098  1.9882  0.1735 -0.0398
   39DOPE   H4S 4943   0.539   3.855  14.043  0.1912 -0.8642 -0.8396
   39DOPE   C25 4944   0.321   3.859  14.048  0.0460 -0.5968 -0.2786
   39DOPE   H5R 4945   0.305   3.784  13.967  2.3245 -2.0870  0.5525
   39DOPE   H5S 4946   0.245   3.939  14.034  1.9019  1.5674  1.2697
   39DOPE   C26 4947   0.315   3.798  14.184 -0.2801  0.0099 -0.0602
   39DOPE   H6R 4948   0.346   3.885  14.246  2.2878 -1.2458  0.5394
   39DOPE   H6S 4949   0.396   3.722  14.188  1.0075  1.4057  1.7195
   39DOPE   C27 4950   0.176   3.731  14.224 -0.7141  0.3601  0.0825
   39DOPE   H7R 4951   0.096   3.786  14.170  1.2057  0.5841 -2.7588
   39DOPE   H7S 4952   0.168   3.721  14.334 -1.4524  0.9294  0.0882
   39DOPE   C28 4953   0.167   3.581  14.173 -0.4409 -0.3269 -0.2492
   39DOPE   H8R 4954   0.192   3.572  14.066  0.5185  0.0666 -0.0666
   39DOPE   H8S 4955   0.060   3.557  14.188 -0.0998 -1.7346  0.0594
   39DOPE   C29 4956   0.268   3.496  14.257 -0.1360 -0.4202  0.1582
   39DOPE   H9R 4957   0.370   3.491  14.215  0.7162  0.3044  2.0609
   39DOPE  C210 4958   0.240   3.440  14.375 -0.1092  0.3057 -0.7102
   39DOPE  H10R 4959   0.324   3.403  14.435 -1.9962  0.2307  2.1007
   39DOPE  C211 4960   0.104   3.446  14.450  0.0737 -0.2531  0.4170
   39DOPE  H11R 4961   0.078   3.345  14.488  1.2137 -0.7043  0.0188
   39DOPE  H11S 4962   0.019   3.486  14.390 -0.3274 -2.4021 -0.5423
   39DOPE  C212 4963   0.104   3.522  14.585 -0.0462 -0.4848 -0.0909
   39DOPE  H12R 4964  -0.000   3.544  14.618 -0.5749 -2.2088 -0.4956
   39DOPE  H12S 4965   0.148   3.622  14.567 -0.5428 -0.5435 -1.8144
   39DOPE  C213 4966   0.189   3.444  14.695 -0.4575 -0.1969  0.2904
   39DOPE  H13R 4967   0.275   3.400  14.641  1.3310  3.0954  0.2298
   39DOPE  H13S 4968   0.132   3.360  14.740  2.3980 -2.3223  0.2095
   39DOPE  C214 4969   0.251   3.537  14.798  1.0938  0.1390  0.0772
   39DOPE  H14R 4970   0.308   3.482  14.876 -0.2161  1.6945  2.2590
   39DOPE  H14S 4971   0.162   3.585  14.844  0.0917 -0.4976 -1.1606
   39DOPE  C215 4972   0.336   3.645  14.729 -0.1638  0.4095  0.5828
   39DOPE  H15R 4973   0.271   3.719  14.678  1.2013  0.6769 -0.8728
   39DOPE  H15S 4974   0.399   3.600  14.649  0.5065  1.8523  0.2679
   39DOPE  C216 4975   0.420   3.713  14.831 -0.1191  0.5429 -0.1968
   39DOPE  H16R 4976   0.480   3.792  14.781  0.2411 -0.7372 -1.8751
   39DOPE  H16S 4977   0.495   3.637  14.864 -1.7382 -0.8336  0.4494
   39DOPE  C217 4978   0.349   3.765  14.961 -0.4927  0.6696 -0.1829
   39DOPE  H17R 4979   0.433   3.815  15.012 -0.3715 -2.2130  2.7385
   39DOPE  H17S 4980   0.340   3.666  15.011  3.0948 -0.0447 -0.6806
   39DOPE  C218 4981   0.218   3.850  14.955  0.6774  0.0279  0.2762
   39DOPE  H18R 4982   0.185   3.876  15.058  0.4358 -2.3191  0.8597
   39DOPE  H18S 4983   0.137   3.784  14.916  0.7804  0.9685 -1.6433
   39DOPE  H18T 4984   0.236   3.944  14.900 -1.6243 -0.2082 -1.0096
   39DOPE   C33 4985   1.354   4.086  13.647  0.4462 -0.3678 -0.1604
   39DOPE   H3X 4986   1.403   3.994  13.609 -0.5029 -0.3151 -1.5756
   39DOPE   H3Y 4987   1.321   4.054  13.748  1.5038 -1.8207 -0.2531
   39DOPE   C34 4988   1.447   4.207  13.641 -1.0489 -0.5394  1.2991
   39DOPE   H4X 4989   1.479   4.241  13.540  0.6926 -1.6567  1.4409
   39DOPE   H4Y 4990   1.385   4.291  13.681  1.1413  1.4407  0.7593
   39DOPE   C35 4991   1.572   4.200  13.732 -0.1845  0.3183  0.4179
   39DOPE   H5X 4992   1.649   4.276  13.708  0.3544  0.0986  1.4274
   39DOPE   H5Y 4993   1.622   4.101  13.719 -1.0432  0.0930 -1.5982
   39DOPE   C36 4994   1.532   4.229  13.874  0.4494  0.5804 -0.1501
   39DOPE   H6X 4995   1.431   4.191  13.901 -1.0690  1.7001 -3.6314
   39DOPE   H6Y 4996   1.508   4.338  13.868 -0.8218  0.2734 -1.4409
   39DOPE   C37 4997   1.638   4.203  13.978 -0.8393 -0.0036  0.0518
   39DOPE   H7X 4998   1.658   4.094  13.982 -1.1299 -0.1184 -1.2590
   39DOPE   H7Y 4999   1.732   4.255  13.948 -1.4269  2.1066  1.5856
   39DOPE   C38 5000   1.603   4.254  14.117  0.2418 -0.2880  0.1475
   39DOPE   H8X 5001   1.601   4.365  14.120  0.4321 -0.2905  0.4470
   39DOPE   H8Y 5002   1.668   4.222  14.201  2.8483  0.1088 -1.6045
   39DOPE   C39 5003   1.465   4.202  14.151 -0.6371  0.2384  0.2994
   39DOPE   H9X 5004   1.450   4.104  14.103  2.9934 -0.6205  0.6027
   39DOPE  C310 5005   1.360   4.264  14.217 -0.7148 -0.1068 -0.3846
   39DOPE  H10X 5006   1.268   4.205  14.230 -0.4149 -0.5585 -0.3094
   39DOPE  C311 5007   1.374   4.394  14.295 -0.7664 -0.0327 -0.0416
   39DOPE  H11X 5008   1.319   4.393  14.391 -0.4610 -0.3603  0.1319
   39DOPE  H11Y 5009   1.480   4.417  14.318 -1.4417  1.1473  2.2168
   39DOPE  C312 5010   1.314   4.519  14.222  0.2019  0.0526  0.1001
   39DOPE  H12X 5011   1.207   4.489  14.209  0.8890 -1.7187 -2.1007
   39DOPE  H12Y 5012   1.364   4.536  14.124 -1.8167  0.0025 -0.9934
   39DOPE  C313 5013   1.316   4.652  14.294  0.2768  0.1679  1.2217
   39DOPE  H13X 5014   1.255   4.646  14.388  1.4715 -1.6156  1.9362
   39DOPE  H13Y 5015   1.418   4.683  14.324 -0.2363  1.4617  1.7225
   39DOPE  C314 5016   1.256   4.771  14.218  0.1726 -0.4072 -0.1427
   39DOPE  H14X 5017   1.249   4.864  14.278 -0.7649  0.2786 -1.2814
   39DOPE  H14Y 5018   1.150   4.741  14.208 -0.1553  0.5509  0.3392
   39DOPE  C315 5019   1.327   4.790  14.086 -0.1193  0.2822  0.2359
   39DOPE  H15X 5020   1.310   4.705  14.016 -0.2680 -0.2192  0.8631
   39DOPE  H15Y 5021   1.436   4.773  14.102  0.1625  0.3594 -1.4537
   39DOPE  C316 5022   1.289   4.908  14.000  0.2191 -0.8693  0.3259
   39DOPE  H16X 5023   1.181   4.895  13.979 -0.3196  0.1912  2.2474
   39DOPE  H16Y 5024   1.350   4.919  13.907  0.8868  1.0339  0.9430
   39DOPE  C317 5025   1.301   5.043  14.074 -0.9340 -0.1678  0.3958
   39DOPE  H17X 5026   1.219   5.054  14.148 -1.0325  1.2672  0.0949
   39DOPE  H17Y 5027   1.398   5.046  14.128 -1.0027  0.5352  0.4828
   39DOPE  C318 5028   1.301   5.165  13.981  0.0128  0.3839  0.5817
   39DOPE  H18X 5029   1.405   5.197  13.960  0.3097 -1.0193 -0.2046
   39DOPE  H18Y 5030   1.258   5.144  13.881  0.0333  0.4264  0.5641
   39DOPE  H18Z 5031   1.242   5.252  14.018  0.5331  2.0037 -2.1263
   40DOPE     N 5032   4.804   5.342  12.867  0.0695 -0.0881 -0.9067
   40DOPE   HN1 5033   4.715   5.389  12.841  0.3605  0.2619 -1.2959
   40DOPE   HN2 5034   4.799   5.244  12.900 -0.5955  0.6233  1.2604
   40DOPE   HN3 5035   4.845   5.388  12.951 -0.6337  0.2618 -0.7481
   40DOPE   C12 5036   4.899   5.376  12.760  0.2625  0.4509 -0.0916
   40DOPE  H12A 5037   4.882   5.481  12.728 -2.2836  0.7595  1.9708
   40DOPE  H12B 5038   4.878   5.305  12.677  1.1417 -1.2437  1.0873
   40DOPE   C11 5039   5.042   5.351  12.816 -0.1374 -0.8122 -0.0771
   40DOPE  H11A 5040   5.098   5.372  12.723  0.9312  3.0804  1.2577
   40DOPE  H11B 5041   5.062   5.249  12.854 -0.7355 -1.3680 -1.2006
   40DOPE     P 5042   5.222   5.513  12.912  0.1802 -0.0969  0.2319
   40DOPE   O13 5043   5.202   5.657  12.894 -0.2652 -0.3388  0.7029
   40DOPE   O14 5044   5.310   5.439  12.815  0.0599  0.2471  0.6179
   40DOPE   O11 5045   5.278   5.486  13.054 -0.0616  0.4352  0.0594
   40DOPE   O12 5046   5.079   5.443  12.921  0.7444 -0.1002 -0.1345
   40DOPE    C1 5047   5.237   5.380  13.135 -0.4486  0.0328  0.6870
   40DOPE    HA 5048   5.323   5.356  13.201  0.7653 -2.5406 -1.6509
   40DOPE    HB 5049   5.215   5.289  13.076 -0.7624  0.6566 -0.1750
   40DOPE    C2 5050   5.124   5.417  13.228  0.8939  0.6874  0.3495
   40DOPE    HS 5051   5.060   5.481  13.164 -0.6068 -1.7681 -0.7608
   40DOPE   O21 5052   5.174   5.490  13.337 -0.1307 -0.6470 -0.1270
   40DOPE   C21 5053   5.104   5.595  13.379 -0.1316 -0.3347  0.5829
   40DOPE   O22 5054   5.013   5.653  13.312  0.6812  0.3248 -0.1826
   40DOPE   C22 5055   5.167   5.635  13.505  0.2768  0.0019 -0.3623
   40DOPE   H2R 5056   5.253   5.699  13.476 -0.3465  1.1834  0.3386
   40DOPE   H2S 5057   5.205   5.542  13.553  0.8208  0.3441 -0.1210
   40DOPE    C3 5058   5.036   5.298  13.272 -0.2004 -0.3803 -0.0905
   40DOPE    HX 5059   5.108   5.231  13.324  0.2279 -0.2799 -0.5473
   40DOPE    HY 5060   5.009   5.240  13.181 -0.9700  0.4444 -0.3997
   40DOPE   O31 5061   4.918   5.335  13.345 -0.9338 -0.1139 -0.3716
   40DOPE   C31 5062   4.814   5.366  13.268 -1.1520  0.0640 -0.4182
   40DOPE   O32 5063   4.821   5.359  13.144  0.1421 -0.3938 -0.0531
   40DOPE   C32 5064   4.695   5.409  13.344  0.0390 -0.0724  0.2748
   40DOPE   H2X 5065   4.646   5.490  13.286 -0.1835 -0.9897 -0.8761
   40DOPE   H2Y 5066   4.620   5.327  13.359  0.2653 -0.0897  1.4079
   40DOPE   C23 5067   5.074   5.709  13.596  0.9000  0.5676 -0.6803
   40DOPE   H3R 5068   4.963   5.702  13.588  0.7476  1.1029  0.6601
   40DOPE   H3S 5069   5.095   5.816  13.575  0.2655  0.8412  0.0156
   40DOPE   C24 5070   5.114   5.684  13.746 -0.0929 -0.2857  0.5205
   40DOPE   H4R 5071   5.224   5.698  13.761  0.4249 -1.9488 -1.2638
   40DOPE   H4S 5072   5.077   5.587  13.785 -3.2318 -0.0012 -1.4779
   40DOPE   C25 5073   5.044   5.795  13.833  0.4904  0.7508  0.3945
   40DOPE   H5R 5074   4.937   5.766  13.846 -0.1552  1.7402 -2.1517
   40DOPE   H5S 5075   5.055   5.882  13.765  0.0113 -1.6366 -3.0286
   40DOPE   C26 5076   5.097   5.815  13.975  0.3162 -0.0009  0.5308
   40DOPE   H6R 5077   5.204   5.842  13.971  0.3188 -0.0999 -2.3975
   40DOPE   H6S 5078   5.091   5.720  14.032  2.2108  0.7987  2.1568
   40DOPE   C27 5079   5.036   5.942  14.034 -0.1558  0.2469 -0.0920
   40DOPE   H7R 5080   4.937   5.963  13.989  0.3021  0.8514 -0.8460
   40DOPE   H7S 5081   5.091   6.034  14.005 -3.3353  2.2069 -0.3214
   40DOPE   C28 5082   5.037   5.947  14.189 -0.1827 -0.2270  0.1087
   40DOPE   H8R 5083   5.049   6.052  14.222  0.3902 -0.5623  0.9989
   40DOPE   H8S 5084   5.136   5.906  14.219 -0.1963  0.5344  1.2472
   40DOPE   C29 5085   4.931   5.880  14.267 -0.3748  0.0380 -0.5886
   40DOPE   H9R 5086   4.833   5.920  14.236  0.3987  1.3108 -1.5068
   40DOPE  C210 5087   4.939   5.769  14.346 -0.3723 -1.0776  0.1866
   40DOPE  H10R 5088   4.846   5.735  14.394  0.1433 -2.3781  0.3084
   40DOPE  C211 5089   5.065   5.704  14.390 -0.5035  0.8193  0.0047
   40DOPE  H11R 5090   5.149   5.707  14.317  0.5652 -1.3287  1.0637
   40DOPE  H11S 5091   5.044   5.595  14.396 -0.7385  0.6728 -2.4848
   40DOPE  C212 5092   5.117   5.758  14.522  0.7562  0.1777  0.1002
   40DOPE  H12R 5093   5.036   5.783  14.594  1.5576 -1.0625  1.4683
   40DOPE  H12S 5094   5.164   5.854  14.492  0.4034 -0.2595 -1.9969
   40DOPE  C213 5095   5.215   5.678  14.594 -0.3656  1.0998  0.3697
   40DOPE  H13R 5096   5.284   5.610  14.540  1.0940 -0.4873  3.9608
   40DOPE  H13S 5097   5.155   5.609  14.657 -2.1259  0.2785 -2.0195
   40DOPE  C214 5098   5.289   5.759  14.700 -0.4147 -0.6245 -0.6955
   40DOPE  H14R 5099   5.221   5.817  14.765 -0.3608 -1.8333  0.4873
   40DOPE  H14S 5100   5.367   5.820  14.651 -1.2139  0.7505 -0.3028
   40DOPE  C215 5101   5.358   5.664  14.811 -0.1338  0.6950  0.2900
   40DOPE  H15R 5102   5.285   5.584  14.834  0.0852  0.6626  0.8696
   40DOPE  H15S 5103   5.391   5.722  14.899  0.2999 -1.1499  1.3793
   40DOPE  C216 5104   5.485   5.598  14.757 -0.0742  0.2674  0.3392
   40DOPE  H16R 5105   5.538   5.689  14.721  2.9816 -1.7729 -0.6731
   40DOPE  H16S 5106   5.458   5.530  14.673  1.2522 -0.6382  0.6279
   40DOPE  C217 5107   5.568   5.537  14.863 -0.0081  0.8171 -0.5769
   40DOPE  H17R 5108   5.514   5.446  14.898  0.4988  0.8012  0.1886
   40DOPE  H17S 5109   5.579   5.596  14.957  2.5093  0.3798 -0.5426
   40DOPE  C218 5110   5.707   5.481  14.828  0.4290 -0.4201  0.1186
   40DOPE  H18R 5111   5.774   5.552  14.775  2.3734 -1.7853  0.6225
   40DOPE  H18S 5112   5.691   5.398  14.756  0.9517 -1.3558  1.0497
   40DOPE  H18T 5113   5.753   5.430  14.916  1.1232 -0.9666 -0.5447
   40DOPE   C33 5114   4.724   5.470  13.485 -0.5320 -0.3993 -0.6820
   40DOPE   H3X 5115   4.751   5.574  13.456 -3.2439  0.5711 -0.0268
   40DOPE   H3Y 5116   4.812   5.418  13.529 -0.3925 -1.2439 -1.9016
   40DOPE   C34 5117   4.604   5.472  13.578  0.4959  0.8192  0.9304
   40DOPE   H4X 5118   4.533   5.541  13.527  1.0677  0.5258 -0.2761
   40DOPE   H4Y 5119   4.558   5.372  13.593  0.2424  0.7886 -0.0342
   40DOPE   C35 5120   4.627   5.527  13.717  0.4045  0.3183 -0.2803
   40DOPE   H5X 5121   4.712   5.600  13.718 -0.6889  1.6330  1.1515
   40DOPE   H5Y 5122   4.652   5.433  13.770 -1.1195  0.7713  1.3309
   40DOPE   C36 5123   4.510   5.576  13.803  0.4378  0.3990  0.5762
   40DOPE   H6X 5124   4.428   5.502  13.790  1.5443 -0.8558  0.5032
   40DOPE   H6Y 5125   4.475   5.675  13.768 -1.0122 -0.8829 -1.9260
   40DOPE   C37 5126   4.561   5.595  13.952 -0.3217  0.3328  0.8073
   40DOPE   H7X 5127   4.625   5.508  13.979  0.3386  1.1159  1.8207
   40DOPE   H7Y 5128   4.619   5.687  13.971 -1.4851  1.0191  1.1262
   40DOPE   C38 5129   4.450   5.597  14.057  0.6010  0.6031 -0.0415
   40DOPE   H8X 5130   4.483   5.609  14.162 -0.3044 -1.1462  0.4791
   40DOPE   H8Y 5131   4.412   5.493  14.058  2.2897 -0.0573  1.2591
   40DOPE   C39 5132   4.334   5.694  14.039  0.0853 -0.4984 -0.4569
   40DOPE   H9X 5133   4.292   5.697  13.937  1.6576 -0.0798 -1.1291
   40DOPE  C310 5134   4.267   5.762  14.137  0.3129 -0.4341  0.3946
   40DOPE  H10X 5135   4.177   5.816  14.104 -1.0666 -1.8436  1.6936
   40DOPE  C311 5136   4.283   5.739  14.284 -0.0435  0.6527 -0.2582
   40DOPE  H11X 5137   4.325   5.637  14.296 -0.9024  0.1690 -1.2447
   40DOPE  H11Y 5138   4.351   5.818  14.324 -0.1437  0.7598 -0.2985
   40DOPE  C312 5139   4.148   5.755  14.362  0.2916 -0.9020 -0.1733
   40DOPE  H12X 5140   4.168   5.718  14.464 -1.8978  0.7697  0.9363
   40DOPE  H12Y 5141   4.079   5.679  14.320  1.9316 -2.5319 -0.0478
   40DOPE  C313 5142   4.088   5.901  14.362  1.3343  0.5907 -0.1514
   40DOPE  H13X 5143   4.174   5.971  14.369  1.5495  0.4662 -1.3458
   40DOPE  H13Y 5144   4.032   5.913  14.267  0.9393 -2.3070 -0.3749
   40DOPE  C314 5145   3.980   5.942  14.476 -0.0149 -0.2163  0.2981
   40DOPE  H14X 5146   4.015   5.910  14.577 -1.5193 -1.3402  0.4846
   40DOPE  H14Y 5147   3.887   5.883  14.470  0.2187 -0.6566  0.9153
   40DOPE  C315 5148   3.928   6.087  14.468  0.5001 -0.1260  0.3549
   40DOPE  H15X 5149   3.883   6.101  14.367  0.8557  2.8651  0.5023
   40DOPE  H15Y 5150   4.005   6.166  14.483  2.0381 -1.4524 -0.3475
   40DOPE  C316 5151   3.818   6.104  14.577 -0.2738 -0.1524 -0.1127
   40DOPE  H16X 5152   3.873   6.098  14.673  1.4421 -1.4697 -1.1179
   40DOPE  H16Y 5153   3.756   6.011  14.572  1.3936 -1.2408 -3.2130
   40DOPE  C317 5154   3.726   6.221  14.558 -0.0021  0.2239  0.1731
   40DOPE  H17X 5155   3.782   6.316  14.547 -0.0209  0.0004 -2.4344
   40DOPE  H17Y 5156   3.667   6.221  14.464  0.2341  1.2423  0.0176
   40DOPE  C318 5157   3.629   6.239  14.675  0.5006  0.8881 -0.7245
   40DOPE  H18X 5158   3.698   6.259  14.759  1.1240 -0.1707 -0.9644
   40DOPE  H18Y 5159   3.568   6.329  14.651  1.3395  1.9276  0.8764
   40DOPE  H18Z 5160   3.570   6.147  14.695  1.9274 -0.0772 -0.8554
   41DOPE     N 5161   2.772   4.720  12.581  0.2554 -0.3725  0.9682
   41DOPE   HN1 5162   2.802   4.708  12.680 -1.2532 -2.4643  1.2343
   41DOPE   HN2 5163   2.858   4.719  12.522  0.0731  1.3578  0.6141
   41DOPE   HN3 5164   2.723   4.810  12.561 -1.0671 -1.3058 -0.2244
   41DOPE   C12 5165   2.687   4.614  12.513  0.7617 -0.0314 -0.0682
   41DOPE  H12A 5166   2.732   4.514  12.530 -0.1188 -0.6615 -1.2883
   41DOPE  H12B 5167   2.683   4.639  12.405 -1.8418  1.6666  0.3105
   41DOPE   C11 5168   2.540   4.624  12.572  1.3195  0.9282 -0.1655
   41DOPE  H11A 5169   2.478   4.559  12.507 -0.0609  4.5712 -2.7846
   41DOPE  H11B 5170   2.487   4.720  12.557 -0.1048 -0.0528 -1.8466
   41DOPE     P 5171   2.522   4.672  12.827  0.1740  0.1124  0.1791
   41DOPE   O13 5172   2.481   4.591  12.946 -0.6354 -0.1210  0.0675
   41DOPE   O14 5173   2.431   4.784  12.800 -0.2293 -0.4879  0.4281
   41DOPE   O11 5174   2.667   4.736  12.834  0.1976 -0.1222  0.4473
   41DOPE   O12 5175   2.527   4.568  12.704  1.0883 -0.5469  0.1036
   41DOPE    C1 5176   2.696   4.873  12.860 -0.0985  0.1709 -0.2693
   41DOPE    HA 5177   2.618   4.935  12.810 -0.1018  0.5918  0.2564
   41DOPE    HB 5178   2.791   4.913  12.820 -0.2795 -0.0886 -0.9758
   41DOPE    C2 5179   2.693   4.904  13.013 -0.2718  0.1934 -0.1744
   41DOPE    HS 5180   2.594   4.872  13.054 -1.1429  1.0915 -1.5120
   41DOPE   O21 5181   2.715   5.045  13.016  0.1208  0.0241  0.0150
   41DOPE   C21 5182   2.666   5.110  13.115  0.4569 -0.2618 -0.3731
   41DOPE   O22 5183   2.602   5.051  13.205 -0.5519  0.1097  0.4022
   41DOPE   C22 5184   2.700   5.257  13.120 -0.2407  0.0294 -0.5340
   41DOPE   H2R 5185   2.712   5.289  13.014  1.8577  0.0645 -0.3121
   41DOPE   H2S 5186   2.799   5.264  13.169 -1.5443 -1.3985  2.5396
   41DOPE    C3 5187   2.811   4.830  13.085 -0.3333  0.7737 -0.1189
   41DOPE    HX 5188   2.900   4.860  13.027 -1.7833 -0.8841 -3.4639
   41DOPE    HY 5189   2.798   4.721  13.072 -3.0369  1.0555 -0.4718
   41DOPE   O31 5190   2.821   4.867  13.227 -0.2819 -0.0023  0.3201
   41DOPE   C31 5191   2.760   4.780  13.308 -0.4231 -0.1724  0.2490
   41DOPE   O32 5192   2.695   4.683  13.277 -0.4685  0.0166  0.9645
   41DOPE   C32 5193   2.789   4.823  13.456 -0.4354 -0.6202  0.4560
   41DOPE   H2X 5194   2.900   4.823  13.462 -0.2492 -0.2386 -1.8320
   41DOPE   H2Y 5195   2.751   4.927  13.461 -2.5368 -1.3941  2.0833
   41DOPE   C23 5196   2.592   5.343  13.202  0.5609 -0.0055 -0.6114
   41DOPE   H3R 5197   2.493   5.318  13.160  0.3908 -1.2083  0.4797
   41DOPE   H3S 5198   2.635   5.444  13.182 -0.7351  0.3099 -1.9411
   41DOPE   C24 5199   2.588   5.320  13.354  0.7371  1.7150  0.0004
   41DOPE   H4R 5200   2.694   5.296  13.377  0.2046 -0.4911  0.3977
   41DOPE   H4S 5201   2.515   5.237  13.370  0.3413  1.9125 -0.7167
   41DOPE   C25 5202   2.541   5.441  13.424 -0.2155 -0.0655  0.0474
   41DOPE   H5R 5203   2.587   5.530  13.377  2.5590 -1.9202 -0.9921
   41DOPE   H5S 5204   2.595   5.438  13.521  1.8328  2.4429 -0.9128
   41DOPE   C26 5205   2.388   5.447  13.442 -0.2692 -0.4900 -0.3782
   41DOPE   H6R 5206   2.347   5.346  13.463  1.9827 -1.3827  0.0168
   41DOPE   H6S 5207   2.349   5.477  13.342 -1.3783  1.0452  0.4830
   41DOPE   C27 5208   2.328   5.543  13.555 -1.0761  0.8300 -0.2978
   41DOPE   H7R 5209   2.357   5.645  13.524  0.4243  0.0075 -1.7748
   41DOPE   H7S 5210   2.390   5.521  13.645  2.3683  0.4182 -2.5636
   41DOPE   C28 5211   2.181   5.537  13.576  0.2196  0.9031  0.2764
   41DOPE   H8R 5212   2.156   5.549  13.684 -0.0096  0.2490  0.2985
   41DOPE   H8S 5213   2.159   5.430  13.553 -2.1647  1.4380 -0.1760
   41DOPE   C29 5214   2.099   5.621  13.484 -0.1845 -0.2126 -0.0318
   41DOPE   H9R 5215   2.146   5.639  13.386 -1.1952 -0.3842 -0.5587
   41DOPE  C210 5216   1.989   5.688  13.516  0.2451  0.2125 -0.6960
   41DOPE  H10R 5217   1.950   5.753  13.436  2.0644  0.1729 -1.6668
   41DOPE  C211 5218   1.929   5.691  13.653  0.0933 -0.1743 -0.5478
   41DOPE  H11R 5219   1.937   5.601  13.717 -0.1858  0.1397 -0.0589
   41DOPE  H11S 5220   1.819   5.707  13.648  0.3870  1.9667 -1.3197
   41DOPE  C212 5221   1.981   5.813  13.732 -0.0932 -0.3108 -0.0925
   41DOPE  H12R 5222   1.926   5.900  13.691  1.1177  0.1233 -0.8582
   41DOPE  H12S 5223   2.091   5.828  13.719  0.5230 -3.7251  0.3423
   41DOPE  C213 5224   1.955   5.790  13.885  0.1259  0.4132  0.6423
   41DOPE  H13R 5225   1.850   5.758  13.899  0.7287 -0.8057  2.7050
   41DOPE  H13S 5226   1.970   5.889  13.934 -2.2992  0.9570  0.4248
   41DOPE  C214 5227   2.061   5.686  13.941  0.2066  1.1082 -0.5049
   41DOPE  H14R 5228   2.167   5.716  13.930  0.3222  1.7323  1.8258
   41DOPE  H14S 5229   2.055   5.596  13.875  0.3643 -0.5651  1.6509
   41DOPE  C215 5230   2.034   5.634  14.074  0.6120 -0.3244  0.1560
   41DOPE  H15R 5231   2.126   5.588  14.116  0.5087 -0.4988  0.1926
   41DOPE  H15S 5232   1.950   5.561  14.067 -0.2939  0.6993  0.0909
   41DOPE  C216 5233   1.995   5.747  14.176 -0.0060  1.1134  0.2273
   41DOPE  H16R 5234   1.899   5.799  14.157  0.4036  0.9303 -2.9784
   41DOPE  H16S 5235   2.076   5.821  14.161  1.0473  0.0383  0.4633
   41DOPE  C217 5236   1.996   5.673  14.318  0.1198 -0.5867 -0.3681
   41DOPE  H17R 5237   2.095   5.626  14.335 -0.7891 -2.7981 -0.8187
   41DOPE  H17S 5238   1.931   5.583  14.318  0.1253 -0.5932  0.0830
   41DOPE  C218 5239   1.965   5.769  14.439 -0.2559 -0.0900 -0.2680
   41DOPE  H18R 5240   1.862   5.804  14.418 -0.4446  0.3203  1.2472
   41DOPE  H18S 5241   2.026   5.862  14.448 -0.8372  0.2583  0.0608
   41DOPE  H18T 5242   1.967   5.718  14.537  2.3405 -1.2724 -0.8483
   41DOPE   C33 5243   2.723   4.722  13.556  0.2039  0.1129  0.2232
   41DOPE   H3X 5244   2.760   4.618  13.540 -1.8454 -0.7859  1.0499
   41DOPE   H3Y 5245   2.615   4.709  13.533  0.3060  1.7347 -1.4339
   41DOPE   C34 5246   2.749   4.774  13.697  0.3026 -0.8613 -0.2113
   41DOPE   H4X 5247   2.859   4.772  13.703  0.3102  0.1992  0.2695
   41DOPE   H4Y 5248   2.706   4.877  13.702 -0.0264 -0.9438 -1.1276
   41DOPE   C35 5249   2.692   4.689  13.806 -0.4745 -0.2140 -0.3405
   41DOPE   H5X 5250   2.715   4.585  13.773 -0.0672 -0.1796 -0.1700
   41DOPE   H5Y 5251   2.582   4.701  13.804 -0.5226 -0.0728  1.6770
   41DOPE   C36 5252   2.726   4.728  13.943 -0.2644 -0.1790 -0.6560
   41DOPE   H6X 5253   2.704   4.836  13.954 -0.6831 -0.3752  0.6347
   41DOPE   H6Y 5254   2.830   4.710  13.978 -0.3867 -1.0814 -0.7357
   41DOPE   C37 5255   2.639   4.634  14.034  0.4252 -0.8416  0.0255
   41DOPE   H7X 5256   2.537   4.626  13.991  1.0099  0.6494 -1.7578
   41DOPE   H7Y 5257   2.687   4.535  14.020  1.7898 -0.3775  1.1966
   41DOPE   C38 5258   2.630   4.666  14.189 -0.5744  0.1971  0.7340
   41DOPE   H8X 5259   2.629   4.777  14.192 -1.1595  0.3316 -1.8370
   41DOPE   H8Y 5260   2.723   4.621  14.230 -0.7832 -0.4029  0.5628
   41DOPE   C39 5261   2.519   4.612  14.267  0.6318  0.2261  0.4549
   41DOPE   H9X 5262   2.516   4.502  14.280  0.4145 -0.2125 -2.5765
   41DOPE  C310 5263   2.404   4.668  14.303 -0.3240  0.7372  0.1249
   41DOPE  H10X 5264   2.351   4.607  14.377  2.5197  0.6197  2.2413
   41DOPE  C311 5265   2.339   4.793  14.257  0.1746 -0.1318  0.1969
   41DOPE  H11X 5266   2.385   4.875  14.316 -0.2427  0.5220 -0.3845
   41DOPE  H11Y 5267   2.354   4.810  14.149 -1.5361 -2.8785 -0.5943
   41DOPE  C312 5268   2.188   4.799  14.286  0.6548 -0.4249 -0.2066
   41DOPE  H12X 5269   2.179   4.807  14.396  0.5305  2.3507 -0.3407
   41DOPE  H12Y 5270   2.142   4.710  14.239 -1.0904 -0.0686  0.7471
   41DOPE  C313 5271   2.128   4.928  14.223  0.2368 -0.0023 -0.1374
   41DOPE  H13X 5272   2.185   5.012  14.267 -0.2817 -0.9402  2.5308
   41DOPE  H13Y 5273   2.138   4.929  14.112 -0.5934  2.9258 -0.2507
   41DOPE  C314 5274   1.975   4.945  14.263 -1.1363  0.7207 -0.1728
   41DOPE  H14X 5275   1.939   5.047  14.240  1.6772  1.7613 -0.3492
   41DOPE  H14Y 5276   1.959   4.941  14.373  1.6935 -1.2838  0.2894
   41DOPE  C315 5277   1.875   4.856  14.183 -0.6144  0.3258 -1.3770
   41DOPE  H15X 5278   1.891   4.850  14.074  2.4802 -1.6688 -0.9305
   41DOPE  H15Y 5279   1.775   4.902  14.196 -1.0265 -0.9283  0.2282
   41DOPE  C316 5280   1.854   4.709  14.234  1.2351 -0.6099  0.0336
   41DOPE  H16X 5281   1.862   4.700  14.344 -0.0636  1.9737  0.3996
   41DOPE  H16Y 5282   1.933   4.640  14.196 -0.2087 -1.9759 -0.5860
   41DOPE  C317 5283   1.715   4.650  14.198  0.7601  0.7452 -0.2734
   41DOPE  H17X 5284   1.704   4.551  14.248 -1.0373 -0.0148 -2.0419
   41DOPE  H17Y 5285   1.633   4.718  14.230 -1.8895 -1.1957 -2.3658
   41DOPE  C318 5286   1.688   4.645  14.047 -0.3944 -0.5467 -0.3539
   41DOPE  H18X 5287   1.771   4.590  13.998 -0.5830 -0.0656 -1.2290
   41DOPE  H18Y 5288   1.588   4.608  14.016 -0.9617  0.2127  0.5108
   41DOPE  H18Z 5289   1.698   4.746  14.001  0.4962 -0.3807  0.1872
   42DOPE     N 5290   1.237   3.816  13.192  0.1995 -0.0355 -0.3354
   42DOPE   HN1 5291   1.318   3.825  13.258  1.5283 -1.8334 -1.6205
   42DOPE   HN2 5292   1.157   3.771  13.240 -0.9764 -0.3181 -2.4590
   42DOPE   HN3 5293   1.252   3.746  13.117 -0.2164  0.8324 -1.2421
   42DOPE   C12 5294   1.198   3.949  13.130 -0.5066 -0.1253  0.1334
   42DOPE  H12A 5295   1.153   4.014  13.209  2.3721 -0.4772  2.2287
   42DOPE  H12B 5296   1.127   3.933  13.046  0.0263  2.0101 -0.7937
   42DOPE   C11 5297   1.324   4.008  13.065  0.6606  0.5792 -0.1198
   42DOPE  H11A 5298   1.368   3.929  13.001 -1.6289 -0.4415 -0.5555
   42DOPE  H11B 5299   1.404   4.038  13.136  0.5838  2.0187 -0.6046
   42DOPE     P 5300   1.382   4.194  12.899  0.1805  0.2457 -0.3008
   42DOPE   O13 5301   1.313   4.298  12.818 -0.3020 -0.0559 -0.6528
   42DOPE   O14 5302   1.461   4.091  12.826  0.5506  0.4907 -0.3446
   42DOPE   O11 5303   1.467   4.255  13.008 -0.2404 -0.5091 -0.2084
   42DOPE   O12 5304   1.277   4.120  12.989 -0.1957  0.0845 -0.4252
   42DOPE    C1 5305   1.398   4.334  13.114  0.4706  0.0978  0.2565
   42DOPE    HA 5306   1.352   4.272  13.195  1.8343 -0.4489  0.6338
   42DOPE    HB 5307   1.332   4.413  13.071  1.8427  0.1725 -1.8102
   42DOPE    C2 5308   1.497   4.413  13.202  0.3136  0.8376 -0.0157
   42DOPE    HS 5309   1.563   4.476  13.139 -1.2784  0.8170 -1.8078
   42DOPE   O21 5310   1.577   4.315  13.278 -0.3753  0.1559  0.8533
   42DOPE   C21 5311   1.705   4.345  13.315 -0.3545  0.0897 -0.0922
   42DOPE   O22 5312   1.756   4.450  13.283 -0.4329 -0.2675  0.1742
   42DOPE   C22 5313   1.766   4.245  13.404 -0.1209 -0.0600 -0.7124
   42DOPE   H2R 5314   1.768   4.146  13.352  1.6801  0.8088 -2.4122
   42DOPE   H2S 5315   1.696   4.222  13.487 -0.8486  0.2918 -1.2185
   42DOPE    C3 5316   1.402   4.507  13.288  0.5852 -0.7161 -0.2086
   42DOPE    HX 5317   1.339   4.440  13.351  1.0800 -1.5130 -0.5495
   42DOPE    HY 5318   1.333   4.568  13.225  1.3944 -0.2931 -0.6937
   42DOPE   O31 5319   1.483   4.585  13.382  0.4474  0.0235 -0.1941
   42DOPE   C31 5320   1.525   4.695  13.324 -0.6365 -0.4292 -0.7634
   42DOPE   O32 5321   1.509   4.731  13.207  0.1842 -0.6325 -0.4525
   42DOPE   C32 5322   1.594   4.785  13.421 -0.4901  0.6756 -0.0369
   42DOPE   H2X 5323   1.699   4.795  13.387 -0.5346  0.2529 -0.2995
   42DOPE   H2Y 5324   1.542   4.884  13.424 -2.3628 -0.2395  3.0181
   42DOPE   C23 5325   1.914   4.278  13.445  0.2149 -0.7014 -0.2550
   42DOPE   H3R 5326   1.971   4.305  13.353 -0.5074 -1.2524 -0.8870
   42DOPE   H3S 5327   1.960   4.184  13.481  0.2007 -0.9087 -0.7610
   42DOPE   C24 5328   1.927   4.385  13.550 -0.5638 -0.0621  0.1529
   42DOPE   H4R 5329   1.902   4.352  13.653 -1.9087  1.5578  0.3805
   42DOPE   H4S 5330   1.860   4.465  13.513  0.4914  0.6145 -0.3418
   42DOPE   C25 5331   2.072   4.440  13.564 -0.1260  0.2715  0.4357
   42DOPE   H5R 5332   2.078   4.538  13.512 -1.5418 -0.0388 -0.3509
   42DOPE   H5S 5333   2.144   4.376  13.510  1.2286  1.6411  0.5412
   42DOPE   C26 5334   2.121   4.454  13.710  0.1419  1.0538  0.0302
   42DOPE   H6R 5335   2.230   4.451  13.728  0.4782 -1.7141 -1.8082
   42DOPE   H6S 5336   2.076   4.370  13.767  0.4717  0.7229 -0.1915
   42DOPE   C27 5337   2.082   4.589  13.768 -0.8935  0.1777  0.2767
   42DOPE   H7R 5338   1.978   4.607  13.730 -0.9694  0.7987  0.7616
   42DOPE   H7S 5339   2.134   4.673  13.716 -1.0170  0.7566  1.0724
   42DOPE   C28 5340   2.094   4.596  13.921 -0.6702 -0.5574 -0.8170
   42DOPE   H8R 5341   2.014   4.538  13.971  1.3095 -1.2480  1.8017
   42DOPE   H8S 5342   2.077   4.702  13.950  0.5426 -1.0779  2.2350
   42DOPE   C29 5343   2.234   4.555  13.975 -0.8526 -0.2734  1.0327
   42DOPE   H9R 5344   2.316   4.607  13.923 -0.6723 -1.3285  0.2290
   42DOPE  C210 5345   2.271   4.460  14.071 -0.3033  0.3961  0.0994
   42DOPE  H10R 5346   2.376   4.427  14.080 -0.8326 -1.1220  0.9048
   42DOPE  C211 5347   2.168   4.368  14.127 -0.7619 -0.0740 -0.0009
   42DOPE  H11R 5348   2.206   4.263  14.123 -2.1941 -0.6321  0.3471
   42DOPE  H11S 5349   2.071   4.376  14.074 -0.8355 -2.3339 -0.3325
   42DOPE  C212 5350   2.128   4.397  14.269 -0.0622 -0.7012  0.6269
   42DOPE  H12R 5351   2.070   4.492  14.275 -0.2882 -0.5172 -2.7272
   42DOPE  H12S 5352   2.208   4.392  14.346 -0.6130 -2.9588  1.1341
   42DOPE  C213 5353   2.045   4.277  14.311 -0.4425 -0.1312  0.1549
   42DOPE  H13R 5354   2.117   4.192  14.311 -2.1042 -1.6127 -0.9746
   42DOPE  H13S 5355   1.969   4.269  14.231  0.6057  0.0634 -0.8938
   42DOPE  C214 5356   1.972   4.296  14.447  0.3562  0.0238  0.2108
   42DOPE  H14R 5357   2.045   4.329  14.524  0.7196 -1.2123  0.4137
   42DOPE  H14S 5358   1.938   4.197  14.486  1.3030 -0.7134 -0.7837
   42DOPE  C215 5359   1.833   4.376  14.443 -0.3378 -0.1109  0.1371
   42DOPE  H15R 5360   1.764   4.330  14.368  0.8759  2.2214 -2.6215
   42DOPE  H15S 5361   1.849   4.476  14.398 -1.2444 -0.4718 -1.0671
   42DOPE  C216 5362   1.765   4.411  14.582 -0.6077  0.0407 -0.3651
   42DOPE  H16R 5363   1.845   4.461  14.641 -0.1233 -1.1272 -0.0123
   42DOPE  H16S 5364   1.739   4.321  14.643 -0.4841 -0.4322 -1.0007
   42DOPE  C217 5365   1.652   4.521  14.573  0.6778  0.3308  0.7988
   42DOPE  H17R 5366   1.648   4.544  14.464 -1.0793  1.1260  0.9882
   42DOPE  H17S 5367   1.665   4.614  14.633 -0.6894  0.2701  1.2323
   42DOPE  C218 5368   1.514   4.467  14.610  0.4841  0.6482 -0.1598
   42DOPE  H18R 5369   1.501   4.453  14.719  0.7875 -0.3121 -0.2359
   42DOPE  H18S 5370   1.481   4.375  14.557 -0.1141  0.7844 -0.0203
   42DOPE  H18T 5371   1.437   4.543  14.590 -0.5347  0.1922  1.8160
   42DOPE   C33 5372   1.595   4.727  13.566 -0.3894 -0.0745 -0.6635
   42DOPE   H3X 5373   1.678   4.654  13.575  0.4702  0.8949 -0.6527
   42DOPE   H3Y 5374   1.496   4.683  13.592 -0.8558 -0.2168 -2.5347
   42DOPE   C34 5375   1.631   4.833  13.671 -0.2010  0.2787 -0.5897
   42DOPE   H4X 5376   1.586   4.927  13.634  1.3219  1.1943 -0.2033
   42DOPE   H4Y 5377   1.592   4.805  13.772 -1.1430  0.3801 -0.9204
   42DOPE   C35 5378   1.785   4.843  13.697  0.8423 -0.1041  0.6778
   42DOPE   H5X 5379   1.833   4.875  13.603  1.9011 -1.7814  0.6091
   42DOPE   H5Y 5380   1.824   4.742  13.720  1.0509  0.2533  1.9975
   42DOPE   C36 5381   1.823   4.943  13.803 -0.2897  0.3509 -0.5786
   42DOPE   H6X 5382   1.927   4.923  13.836 -0.9159 -2.1160  0.1409
   42DOPE   H6Y 5383   1.752   4.922  13.886  1.4647 -0.8834  0.6773
   42DOPE   C37 5384   1.810   5.091  13.757 -0.0046  0.5823 -0.1105
   42DOPE   H7X 5385   1.880   5.087  13.671  1.5092 -1.0866  1.1318
   42DOPE   H7Y 5386   1.707   5.121  13.731 -0.2174  0.3592  0.4501
   42DOPE   C38 5387   1.861   5.175  13.874 -0.3444  0.2147  0.2928
   42DOPE   H8X 5388   1.971   5.172  13.882 -0.1873 -1.0072 -1.6019
   42DOPE   H8Y 5389   1.813   5.127  13.962 -1.8767  0.1512 -0.5351
   42DOPE   C39 5390   1.825   5.323  13.857  0.2621 -0.5174  0.7387
   42DOPE   H9X 5391   1.864   5.376  13.769 -3.4884 -0.9097 -1.3903
   42DOPE  C310 5392   1.746   5.398  13.930  0.2608 -0.4531  0.2533
   42DOPE  H10X 5393   1.727   5.496  13.884  0.7560  0.5241  2.0623
   42DOPE  C311 5394   1.662   5.343  14.040  0.1840 -0.3160  0.0806
   42DOPE  H11X 5395   1.565   5.395  14.053  1.6764  2.9337 -0.6599
   42DOPE  H11Y 5396   1.636   5.237  14.022 -2.6033  0.1826  0.7566
   42DOPE  C312 5397   1.736   5.341  14.175  0.5767 -0.0839  0.4120
   42DOPE  H12X 5398   1.737   5.451  14.191 -2.1516  0.1155 -0.2989
   42DOPE  H12Y 5399   1.843   5.312  14.165  1.2293  2.1465  0.3107
   42DOPE  C313 5400   1.659   5.278  14.287 -0.0468 -0.1705  0.1920
   42DOPE  H13X 5401   1.575   5.338  14.327 -0.1244  1.0379 -1.6618
   42DOPE  H13Y 5402   1.615   5.184  14.248  2.3838 -1.2090 -0.2676
   42DOPE  C314 5403   1.749   5.246  14.411  0.3959  0.4659  0.4173
   42DOPE  H14X 5404   1.830   5.184  14.367 -0.8015  0.3954 -1.8254
   42DOPE  H14Y 5405   1.691   5.184  14.483 -0.3455 -1.2600 -1.5385
   42DOPE  C315 5406   1.807   5.372  14.465 -0.0642 -0.0964 -0.3467
   42DOPE  H15X 5407   1.724   5.445  14.475 -0.3697 -0.1607 -2.1349
   42DOPE  H15Y 5408   1.880   5.407  14.388  1.1069 -0.8144  0.3992
   42DOPE  C316 5409   1.890   5.359  14.600  0.2646 -0.4037 -0.1983
   42DOPE  H16X 5410   1.817   5.323  14.675 -0.7129  0.8554 -0.5058
   42DOPE  H16Y 5411   1.917   5.460  14.637  0.3493 -0.4550 -0.1193
   42DOPE  C317 5412   2.007   5.258  14.598  0.3132 -0.0147 -0.6023
   42DOPE  H17X 5413   2.059   5.259  14.696 -1.6615 -2.7195  0.5995
   42DOPE  H17Y 5414   1.990   5.149  14.581  0.6692 -0.2159  0.2727
   42DOPE  C318 5415   2.118   5.305  14.501 -0.1157  0.8246  0.1625
   42DOPE  H18X 5416   2.204   5.235  14.499  1.1439  2.3303 -0.7740
   42DOPE  H18Y 5417   2.072   5.311  14.400  1.3992  0.9631 -0.5524
   42DOPE  H18Z 5418   2.157   5.407  14.523 -0.7036  0.9859  0.4972
   43DOPE     N 5419   7.126   3.346  13.150 -0.7712  0.1047  0.3992
   43DOPE   HN1 5420   7.181   3.410  13.088  1.7065 -1.0110  1.2879
   43DOPE   HN2 5421   7.189   3.272  13.188 -1.8129 -1.1341 -0.2404
   43DOPE   HN3 5422   7.041   3.306  13.106 -2.2438  2.5602  0.8083
   43DOPE   C12 5423   7.077   3.424  13.266  0.5437 -0.2271 -0.1358
   43DOPE  H12A 5424   7.008   3.357  13.324  0.9020  0.5915  1.2832
   43DOPE  H12B 5425   7.012   3.507  13.233  0.2374 -0.0157  0.9489
   43DOPE   C11 5426   7.196   3.486  13.344  0.1123  0.2243 -0.3669
   43DOPE  H11A 5427   7.262   3.406  13.384 -0.8072 -0.6727 -0.5988
   43DOPE  H11B 5428   7.162   3.552  13.427  0.0125  0.6759 -0.7583
   43DOPE     P 5429   7.329   3.705  13.283  0.1601 -0.2172  0.3347
   43DOPE   O13 5430   7.210   3.780  13.336 -0.0186 -0.3605  0.2165
   43DOPE   O14 5431   7.392   3.759  13.162 -0.1560  0.0112  0.2399
   43DOPE   O11 5432   7.435   3.700  13.396 -0.0141 -0.2886  0.7226
   43DOPE   O12 5433   7.271   3.559  13.244 -0.4680 -0.5075 -0.3765
   43DOPE    C1 5434   7.513   3.588  13.426 -0.5630 -0.2338 -0.0977
   43DOPE    HA 5435   7.616   3.613  13.393 -0.4904  0.1858  0.4282
   43DOPE    HB 5436   7.474   3.495  13.379  0.6710 -1.3144  0.9300
   43DOPE    C2 5437   7.508   3.553  13.577  0.6747 -0.3385 -0.4261
   43DOPE    HS 5438   7.416   3.497  13.601  0.3902 -0.4683 -1.7360
   43DOPE   O21 5439   7.530   3.676  13.662  0.2847  0.1167 -0.0960
   43DOPE   C21 5440   7.436   3.705  13.749  0.8757  0.3220  0.4558
   43DOPE   O22 5441   7.354   3.624  13.790  0.2825  0.2834  0.3413
   43DOPE   C22 5442   7.456   3.839  13.820  0.1455 -0.1228  0.0068
   43DOPE   H2R 5443   7.359   3.889  13.840  0.4573 -0.0114  1.3376
   43DOPE   H2S 5444   7.518   3.896  13.748 -3.0018 -0.5528 -3.2915
   43DOPE    C3 5445   7.617   3.456  13.617  0.0347 -0.4158  0.0472
   43DOPE    HX 5446   7.703   3.523  13.597 -0.7988  1.0291  1.1300
   43DOPE    HY 5447   7.611   3.361  13.559  0.1627 -0.6986  0.4944
   43DOPE   O31 5448   7.606   3.421  13.756  0.3338 -0.2622  0.0048
   43DOPE   C31 5449   7.717   3.361  13.805  0.0217  0.0604 -0.4093
   43DOPE   O32 5450   7.823   3.349  13.742 -0.1827  0.0393 -0.0115
   43DOPE   C32 5451   7.687   3.317  13.945 -0.2480 -0.3749 -0.1247
   43DOPE   H2X 5452   7.653   3.412  13.993 -1.1001 -1.1583  0.8716
   43DOPE   H2Y 5453   7.607   3.240  13.945  1.1397 -1.8931 -1.5338
   43DOPE   C23 5454   7.537   3.825  13.954 -0.1283  0.1920 -0.8054
   43DOPE   H3R 5455   7.617   3.902  13.961 -1.4269  1.4876  0.7366
   43DOPE   H3S 5456   7.587   3.726  13.964  0.9471  0.8691  1.3248
   43DOPE   C24 5457   7.440   3.843  14.071 -0.0972 -0.7954 -0.2284
   43DOPE   H4R 5458   7.357   3.771  14.089 -1.1264  0.5836  0.8566
   43DOPE   H4S 5459   7.412   3.950  14.059  1.6954 -0.3711 -0.8813
   43DOPE   C25 5460   7.512   3.831  14.208  0.1204 -0.0801 -0.3160
   43DOPE   H5R 5461   7.588   3.911  14.222  1.9051 -1.8130  0.4427
   43DOPE   H5S 5462   7.568   3.736  14.213  1.7023  0.7846 -0.7767
   43DOPE   C26 5463   7.429   3.829  14.339 -0.3725 -0.8144 -0.2875
   43DOPE   H6R 5464   7.350   3.751  14.337  0.3928 -1.5824 -1.6615
   43DOPE   H6S 5465   7.376   3.927  14.333  1.5589  0.1975 -1.7997
   43DOPE   C27 5466   7.514   3.821  14.465  0.4529  0.5791 -0.4721
   43DOPE   H7R 5467   7.576   3.912  14.477  0.7030  0.4846 -1.0000
   43DOPE   H7S 5468   7.586   3.740  14.440 -1.0081 -1.0113  0.2334
   43DOPE   C28 5469   7.444   3.793  14.599 -0.2415  0.2036 -0.1019
   43DOPE   H8R 5470   7.522   3.778  14.677 -0.6462 -0.3901  0.1977
   43DOPE   H8S 5471   7.386   3.699  14.589 -0.0784  0.0877  0.0337
   43DOPE   C29 5472   7.354   3.913  14.643 -0.0516 -0.2994 -0.1529
   43DOPE   H9R 5473   7.401   4.007  14.672 -1.7570  0.4299  0.3933
   43DOPE  C210 5474   7.223   3.923  14.645 -0.4927 -0.0986 -0.1571
   43DOPE  H10R 5475   7.178   4.021  14.667  1.5617  0.4958  1.7400
   43DOPE  C211 5476   7.128   3.822  14.585  0.5401 -0.3649  0.2687
   43DOPE  H11R 5477   7.086   3.757  14.664 -0.6625  0.5491  0.4049
   43DOPE  H11S 5478   7.174   3.750  14.514 -0.1302 -1.0197  0.4910
   43DOPE  C212 5479   7.017   3.901  14.515 -0.0775 -0.1904 -0.1054
   43DOPE  H12R 5480   6.957   3.822  14.465  0.8681  0.3216 -2.1177
   43DOPE  H12S 5481   7.048   3.978  14.441 -2.6668  0.1601 -0.9320
   43DOPE  C213 5482   6.928   3.983  14.620 -0.4481  0.6043  0.1397
   43DOPE  H13R 5483   6.982   4.079  14.638 -0.9571  1.1455 -1.0747
   43DOPE  H13S 5484   6.914   3.929  14.716  0.6125  0.8689  0.4625
   43DOPE  C214 5485   6.787   4.018  14.575 -0.2973  0.0893  0.2755
   43DOPE  H14R 5486   6.726   3.929  14.549 -0.2118 -0.0784  0.6450
   43DOPE  H14S 5487   6.790   4.080  14.483 -0.1196 -1.3162 -0.6913
   43DOPE  C215 5488   6.721   4.101  14.683  0.1284  0.5555 -0.3200
   43DOPE  H15R 5489   6.733   4.067  14.788  2.9841 -1.4412 -1.1730
   43DOPE  H15S 5490   6.614   4.113  14.654 -0.0308  0.8479  0.3679
   43DOPE  C216 5491   6.775   4.245  14.689  0.2533  0.7433 -0.2356
   43DOPE  H16R 5492   6.770   4.286  14.586 -2.4924  1.8985  0.2544
   43DOPE  H16S 5493   6.879   4.258  14.726 -0.7965  1.2398  2.8800
   43DOPE  C217 5494   6.682   4.333  14.780  0.0738  0.3753 -0.4775
   43DOPE  H17R 5495   6.691   4.302  14.886  0.9898 -0.2388 -0.7242
   43DOPE  H17S 5496   6.573   4.334  14.758 -0.1018 -0.0919  0.3505
   43DOPE  C218 5497   6.721   4.481  14.760 -0.5094  0.3453  0.2353
   43DOPE  H18R 5498   6.656   4.545  14.823 -0.7667  1.6802 -1.2948
   43DOPE  H18S 5499   6.688   4.512  14.658 -2.9930  0.8686  1.1097
   43DOPE  H18T 5500   6.830   4.499  14.762 -0.6668  1.3747  2.2393
   43DOPE   C33 5501   7.808   3.253  14.014  0.2758 -0.0203  0.1834
   43DOPE   H3X 5502   7.888   3.330  14.018 -0.6595  0.9657  0.4847
   43DOPE   H3Y 5503   7.847   3.167  13.956  0.2011  1.6545 -2.5475
   43DOPE   C34 5504   7.778   3.207  14.156 -0.6263  0.4740  0.9412
   43DOPE   H4X 5505   7.875   3.184  14.205 -0.0544 -2.1387 -1.1779
   43DOPE   H4Y 5506   7.711   3.273  14.216 -0.4672  2.1110 -0.5852
   43DOPE   C35 5507   7.710   3.068  14.167 -0.2100  0.3026 -0.2796
   43DOPE   H5X 5508   7.785   3.004  14.116  0.8843  0.2500  1.3173
   43DOPE   H5Y 5509   7.610   3.071  14.119 -0.2181 -0.5479 -0.3218
   43DOPE   C36 5510   7.664   3.034  14.314  0.0179 -0.6476 -0.0915
   43DOPE   H6X 5511   7.591   2.952  14.297 -0.5779 -0.0311 -0.5823
   43DOPE   H6Y 5512   7.618   3.124  14.360 -0.5294 -0.7947 -0.3357
   43DOPE   C37 5513   7.777   2.998  14.417  0.7462 -0.1833 -0.0842
   43DOPE   H7X 5514   7.827   2.923  14.352  0.0556  1.1198 -2.2412
   43DOPE   H7Y 5515   7.850   3.080  14.436  1.0376 -0.6758  1.0518
   43DOPE   C38 5516   7.733   2.941  14.555  0.1862 -0.5871  0.1910
   43DOPE   H8X 5517   7.822   2.918  14.617  0.8243 -0.0263 -0.4915
   43DOPE   H8Y 5518   7.679   2.850  14.522 -2.5256  0.6984  0.7818
   43DOPE   C39 5519   7.651   3.050  14.627  0.1789 -0.0876  0.4800
   43DOPE   H9X 5520   7.694   3.148  14.602  0.4792 -0.4277 -0.3800
   43DOPE  C310 5521   7.528   3.039  14.672 -0.0898  0.3455  0.2442
   43DOPE  H10X 5522   7.471   3.124  14.712 -2.4721 -0.8976 -0.2951
   43DOPE  C311 5523   7.467   2.903  14.698  0.1136  0.1606 -0.4456
   43DOPE  H11X 5524   7.493   2.823  14.626 -2.9535  0.6132 -2.2392
   43DOPE  H11Y 5525   7.497   2.866  14.798 -0.7465 -0.2594 -0.3326
   43DOPE  C312 5526   7.312   2.905  14.695 -0.5484  0.0364  0.6056
   43DOPE  H12X 5527   7.292   2.796  14.704  1.8510 -0.2842  3.5130
   43DOPE  H12Y 5528   7.268   2.930  14.596  0.1676 -0.1190  0.2386
   43DOPE  C313 5529   7.236   2.974  14.804 -0.3367 -0.0817  0.1591
   43DOPE  H13X 5530   7.284   2.934  14.896  1.7247  1.3425 -0.2155
   43DOPE  H13Y 5531   7.268   3.080  14.810  2.1215 -0.6377 -1.4602
   43DOPE  C314 5532   7.084   2.965  14.811  0.7168  0.0588  0.1748
   43DOPE  H14X 5533   7.058   2.859  14.790  0.7495  0.0691  0.0831
   43DOPE  H14Y 5534   7.036   3.030  14.734 -0.7025 -0.5658  0.5021
   43DOPE  C315 5535   7.033   3.023  14.944  0.0250 -0.2702 -0.0778
   43DOPE  H15X 5536   7.084   3.121  14.952  1.3190 -0.9715  0.7912
   43DOPE  H15Y 5537   7.073   2.965  15.031 -1.0003  1.7642  1.8342
   43DOPE  C316 5538   6.884   3.026  14.968  0.6670 -0.0284 -0.1726
   43DOPE  H16X 5539   6.846   2.922  14.954  0.5117  0.0551 -0.3751
   43DOPE  H16Y 5540   6.842   3.090  14.887  0.9975  1.0226  0.4710
   43DOPE  C317 5541   6.836   3.091  15.101 -0.4615  0.4494 -0.2435
   43DOPE  H17X 5542   6.876   3.044  15.193 -0.1746  0.7629 -0.2044
   43DOPE  H17Y 5543   6.880   3.194  15.097 -0.6364  0.4930 -1.2754
   43DOPE  C318 5544   6.682   3.111  15.094  0.1652 -0.4328  0.2341
   43DOPE  H18X 5545   6.659   3.171  15.004  0.9503 -1.7163 -0.8800
   43DOPE  H18Y 5546   6.626   3.019  15.067  1.5997 -1.0430 -0.8278
   43DOPE  H18Z 5547   6.633   3.158  15.181  0.2192 -1.5099  0.8655
   44DOPE     N 5548   2.751   0.484  12.798  0.0631 -0.0814 -0.2396
   44DOPE   HN1 5549   2.666   0.441  12.842 -0.7521  0.1791 -1.5061
   44DOPE   HN2 5550   2.777   0.559  12.865  0.9946  0.1264 -0.8157
   44DOPE   HN3 5551   2.728   0.522  12.704  0.6021 -0.7209 -0.6362
   44DOPE   C12 5552   2.868   0.386  12.797 -0.0465  0.2097 -0.0039
   44DOPE  H12A 5553   2.841   0.285  12.760 -3.5204  1.5394 -1.5423
   44DOPE  H12B 5554   2.911   0.391  12.899  3.3131 -1.4782 -1.1623
   44DOPE   C11 5555   2.979   0.444  12.718  0.1514  0.1421 -0.3524
   44DOPE  H11A 5556   2.944   0.453  12.613 -2.8656  3.0132  0.7129
   44DOPE  H11B 5557   3.065   0.374  12.712 -1.7944 -2.5086  0.6261
   44DOPE     P 5558   3.156   0.658  12.727 -0.3276 -0.0291  0.2759
   44DOPE   O13 5559   3.134   0.801  12.694 -0.1934  0.8088  0.0721
   44DOPE   O14 5560   3.213   0.582  12.611  0.1701  0.3232 -0.3262
   44DOPE   O11 5561   3.258   0.658  12.841 -0.9479 -0.4645  0.5289
   44DOPE   O12 5562   3.019   0.576  12.772 -0.1771  0.1922 -0.3656
   44DOPE    C1 5563   3.307   0.543  12.913  0.4679  0.0456 -0.4445
   44DOPE    HA 5564   3.412   0.561  12.944  0.0805 -0.2129  1.0743
   44DOPE    HB 5565   3.325   0.458  12.844 -0.8597 -0.1933 -0.5271
   44DOPE    C2 5566   3.215   0.499  13.035  0.3723  0.4377  0.1135
   44DOPE    HS 5567   3.114   0.469  12.999  0.0059 -0.4846  1.7860
   44DOPE   O21 5568   3.221   0.613  13.128  0.5312  0.0216  0.1148
   44DOPE   C21 5569   3.110   0.638  13.198 -0.4718  0.6660  0.6790
   44DOPE   O22 5570   2.999   0.595  13.166  0.4356 -0.5535 -0.3223
   44DOPE   C22 5571   3.131   0.714  13.322  0.4154 -0.8289  0.4543
   44DOPE   H2R 5572   3.044   0.780  13.344 -0.7833 -2.3618  0.4769
   44DOPE   H2S 5573   3.222   0.776  13.308 -0.9304  0.8674 -1.2879
   44DOPE    C3 5574   3.267   0.370  13.104 -0.1894  0.2763  0.8765
   44DOPE    HX 5575   3.351   0.405  13.167 -0.9109  1.8511  1.0227
   44DOPE    HY 5576   3.298   0.295  13.028 -1.9481 -0.4017  0.7725
   44DOPE   O31 5577   3.170   0.317  13.199 -0.3434  0.5768  0.4345
   44DOPE   C31 5578   3.067   0.259  13.147  0.3949 -0.2607 -0.0407
   44DOPE   O32 5579   3.052   0.226  13.030 -0.3547  0.1305  0.4283
   44DOPE   C32 5580   2.958   0.244  13.250  0.7793  0.7016 -0.2062
   44DOPE   H2X 5581   2.990   0.195  13.345  1.1730  2.5227  0.6491
   44DOPE   H2Y 5582   2.925   0.342  13.291 -1.4371 -0.2607  0.4854
   44DOPE   C23 5583   3.165   0.631  13.448 -0.1774  0.2314 -0.3206
   44DOPE   H3R 5584   3.214   0.701  13.520 -0.4015 -0.3601  0.4173
   44DOPE   H3S 5585   3.244   0.556  13.425 -1.0884 -0.4444 -1.3141
   44DOPE   C24 5586   3.049   0.555  13.518 -0.0528 -0.1362 -0.2982
   44DOPE   H4R 5587   3.055   0.449  13.487  3.9112 -0.5353  1.2811
   44DOPE   H4S 5588   2.954   0.607  13.493 -0.0390 -0.3071 -0.7235
   44DOPE   C25 5589   3.068   0.552  13.669 -0.3577 -0.2346 -0.7504
   44DOPE   H5R 5590   3.060   0.658  13.704 -0.8945  0.6057 -3.2611
   44DOPE   H5S 5591   3.176   0.534  13.687 -0.5743 -2.2070 -1.2153
   44DOPE   C26 5592   2.987   0.459  13.757  0.3987 -0.2788  0.3439
   44DOPE   H6R 5593   3.048   0.439  13.848  1.0256  2.1373  0.5314
   44DOPE   H6S 5594   2.974   0.362  13.706  2.2105 -0.6269  0.4737
   44DOPE   C27 5595   2.853   0.529  13.800  0.2399 -0.1730 -0.4215
   44DOPE   H7R 5596   2.789   0.548  13.711 -1.1373  1.3148  0.8195
   44DOPE   H7S 5597   2.869   0.629  13.846 -2.8519  0.2196  0.0012
   44DOPE   C28 5598   2.780   0.435  13.906 -0.1448 -0.0012 -0.1812
   44DOPE   H8R 5599   2.838   0.455  13.999  2.6462  2.0175 -2.1583
   44DOPE   H8S 5600   2.807   0.330  13.883 -0.7150 -1.0232  3.2570
   44DOPE   C29 5601   2.633   0.445  13.920  0.8590 -0.2246 -0.3458
   44DOPE   H9R 5602   2.579   0.402  13.835  1.8380  0.3250 -1.2622
   44DOPE  C210 5603   2.569   0.490  14.029  0.0711 -0.4093 -0.1246
   44DOPE  H10R 5604   2.459   0.495  14.032  0.1148  4.4791  1.1596
   44DOPE  C211 5605   2.628   0.529  14.162  0.2458  0.1173  0.1089
   44DOPE  H11R 5606   2.670   0.632  14.156 -1.4981  1.0273  2.1643
   44DOPE  H11S 5607   2.713   0.463  14.192  1.0013  0.6605 -0.7631
   44DOPE  C212 5608   2.523   0.518  14.287 -0.4930  0.2478  1.2595
   44DOPE  H12R 5609   2.472   0.421  14.270 -1.4729  0.7763  1.1164
   44DOPE  H12S 5610   2.440   0.591  14.276 -0.4941  0.2933  1.5623
   44DOPE  C213 5611   2.595   0.516  14.425  0.2033  0.0652 -0.0442
   44DOPE  H13R 5612   2.640   0.616  14.447 -2.4886  1.4442 -0.3886
   44DOPE  H13S 5613   2.682   0.447  14.422  1.2355  1.3453 -2.1185
   44DOPE  C214 5614   2.505   0.494  14.543  0.3402 -0.2330 -0.4204
   44DOPE  H14R 5615   2.438   0.582  14.551 -0.2137 -0.5851 -1.0363
   44DOPE  H14S 5616   2.564   0.486  14.636  0.3346 -0.4360 -0.4334
   44DOPE  C215 5617   2.413   0.364  14.530 -0.5445  0.3043  0.8402
   44DOPE  H15R 5618   2.484   0.284  14.497  0.3238  1.3492  0.0806
   44DOPE  H15S 5619   2.334   0.377  14.453 -0.4571  1.7906  0.9708
   44DOPE  C216 5620   2.345   0.307  14.653 -0.9224  0.4005  0.0438
   44DOPE  H16R 5621   2.270   0.382  14.687  0.5462  1.9070  0.0823
   44DOPE  H16S 5622   2.418   0.285  14.734 -1.1906 -2.4389 -0.3774
   44DOPE  C217 5623   2.272   0.169  14.621 -0.0172  0.8905 -0.1711
   44DOPE  H17R 5624   2.337   0.113  14.551  0.0595  1.5538 -0.6389
   44DOPE  H17S 5625   2.175   0.188  14.570  0.2954  2.1332 -0.3358
   44DOPE  C218 5626   2.250   0.099  14.744  0.2532 -0.3737 -0.1759
   44DOPE  H18R 5627   2.199   0.000  14.737  0.7600 -0.6139 -0.5520
   44DOPE  H18S 5628   2.187   0.168  14.804 -0.8875 -0.8233 -0.8100
   44DOPE  H18T 5629   2.344   0.072  14.797  0.4326  1.3036  0.4259
   44DOPE   C33 5630   2.826   0.182  13.200  0.6353  0.3654  0.7473
   44DOPE   H3X 5631   2.843   0.074  13.219  1.4160  0.1258 -1.0315
   44DOPE   H3Y 5632   2.815   0.182  13.089  0.9093  0.4477  0.7190
   44DOPE   C34 5633   2.694   0.233  13.251 -0.2420 -0.7603 -0.2882
   44DOPE   H4X 5634   2.673   0.333  13.208  1.1323  0.1396  1.0492
   44DOPE   H4Y 5635   2.614   0.168  13.211 -0.7918 -1.3875  1.7131
   44DOPE   C35 5636   2.678   0.259  13.410 -0.5618  0.2007 -0.3949
   44DOPE   H5X 5637   2.573   0.288  13.433  0.0687  1.8289  0.5564
   44DOPE   H5Y 5638   2.742   0.340  13.451  1.5660 -0.2912 -2.5083
   44DOPE   C36 5639   2.722   0.131  13.476 -0.2786 -0.4597 -0.3621
   44DOPE   H6X 5640   2.829   0.105  13.463  0.1186  0.5146  0.8159
   44DOPE   H6Y 5641   2.676   0.046  13.421  1.6211 -1.9260  0.1922
   44DOPE   C37 5642   2.681   0.137  13.622  0.6772 -0.1306  0.3417
   44DOPE   H7X 5643   2.723   0.229  13.668 -1.5036  1.7458 -1.1506
   44DOPE   H7Y 5644   2.571   0.148  13.635  0.5034 -1.2937 -0.0764
   44DOPE   C38 5645   2.724   0.016  13.705  0.7221 -0.3728 -0.2730
   44DOPE   H8X 5646   2.677  -0.074  13.661  0.4075 -0.8571  1.0188
   44DOPE   H8Y 5647   2.687   0.040  13.807  2.8224 -0.2388  0.5082
   44DOPE   C39 5648   2.875   0.003  13.709 -0.2196 -0.9419 -0.8973
   44DOPE   H9X 5649   2.924  -0.014  13.612  2.2603  2.3650 -0.4140
   44DOPE  C310 5650   2.949  -0.006  13.818 -0.5499  0.5472  0.3156
   44DOPE  H10X 5651   3.057  -0.020  13.804 -1.0422 -0.5620 -3.5310
   44DOPE  C311 5652   2.907   0.018  13.956  0.1041  0.3475  0.2878
   44DOPE  H11X 5653   2.814   0.077  13.968 -0.9780 -0.9616 -1.2353
   44DOPE  H11Y 5654   2.901  -0.071  14.021 -0.2035  1.1843  1.4329
   44DOPE  C312 5655   3.011   0.107  14.027 -0.3896  0.1646 -0.6838
   44DOPE  H12X 5656   3.009   0.206  13.976  1.1780  0.1359 -0.8417
   44DOPE  H12Y 5657   3.110   0.060  14.009 -0.5025  0.5018 -2.3897
   44DOPE  C313 5658   2.976   0.124  14.175  1.2972  0.4229  0.1377
   44DOPE  H13X 5659   2.868   0.150  14.181  1.2517  0.3445 -0.3371
   44DOPE  H13Y 5660   2.992   0.032  14.235 -1.3488  0.0134  0.3560
   44DOPE  C314 5661   3.047   0.244  14.232  0.2187 -0.0158 -0.5794
   44DOPE  H14X 5662   3.016   0.334  14.174  0.6726 -1.2811 -2.9209
   44DOPE  H14Y 5663   3.155   0.218  14.224  0.1875 -0.4687  0.3434
   44DOPE  C315 5664   3.007   0.263  14.380  0.0023 -0.6407 -0.2100
   44DOPE  H15X 5665   3.053   0.186  14.446 -0.8840 -1.0612 -0.0620
   44DOPE  H15Y 5666   2.897   0.247  14.389  0.1464 -0.8857  1.6085
   44DOPE  C316 5667   3.032   0.415  14.423  0.0794 -0.6007 -0.4464
   44DOPE  H16X 5668   2.975   0.489  14.362  0.8231  1.0290  0.7773
   44DOPE  H16Y 5669   3.140   0.438  14.411 -0.0199 -0.3227 -0.8283
   44DOPE  C317 5670   2.987   0.452  14.571 -0.0052  0.5291  0.6848
   44DOPE  H17X 5671   3.038   0.548  14.594  0.9042  0.0115  0.9102
   44DOPE  H17Y 5672   2.881   0.483  14.562 -0.6629 -1.3233  1.4913
   44DOPE  C318 5673   3.004   0.353  14.679  0.3110  0.2230  0.0396
   44DOPE  H18X 5674   2.940   0.385  14.764 -2.7598  0.3102 -2.1604
   44DOPE  H18Y 5675   2.983   0.249  14.645 -1.7053  1.1726 -1.8742
   44DOPE  H18Z 5676   3.108   0.345  14.719 -0.5246  0.7391  2.4397
   45DOPE     N 5677   3.695   0.570  12.698 -0.0166  0.3379 -0.9289
   45DOPE   HN1 5678   3.597   0.534  12.691 -0.8198  1.5552  2.2860
   45DOPE   HN2 5679   3.712   0.665  12.660 -0.0135  0.3631 -0.8631
   45DOPE   HN3 5680   3.761   0.497  12.664 -0.3100 -1.5317  2.2147
   45DOPE   C12 5681   3.720   0.588  12.849 -0.0481  0.5800  0.5567
   45DOPE  H12A 5682   3.656   0.668  12.890  2.1350  1.4828  2.4185
   45DOPE  H12B 5683   3.826   0.619  12.862  0.5320 -1.5944  1.4076
   45DOPE   C11 5684   3.706   0.456  12.924  1.0190 -0.4763  0.8459
   45DOPE  H11A 5685   3.712   0.472  13.034 -2.5917 -1.6395  1.3553
   45DOPE  H11B 5686   3.791   0.389  12.898  0.2162 -0.9540 -0.6670
   45DOPE     P 5687   3.573   0.237  12.852  0.3828 -0.0475  0.1113
   45DOPE   O13 5688   3.701   0.195  12.791  0.2238 -0.1122 -1.0805
   45DOPE   O14 5689   3.450   0.220  12.773  0.3420  0.1631  1.0838
   45DOPE   O11 5690   3.556   0.156  12.990 -0.2299 -0.3031  0.0435
   45DOPE   O12 5691   3.583   0.388  12.888  0.0831 -0.4946  0.0591
   45DOPE    C1 5692   3.656   0.138  13.087 -0.4665  0.4067 -0.8888
   45DOPE    HA 5693   3.618   0.131  13.191 -2.0773  2.4372 -1.2736
   45DOPE    HB 5694   3.723   0.226  13.085  0.5607 -0.3622 -1.4793
   45DOPE    C2 5695   3.744   0.011  13.054  0.0635  0.0726 -0.0944
   45DOPE    HS 5696   3.761  -0.005  12.946 -1.2541 -0.5060 -0.2468
   45DOPE   O21 5697   3.668  -0.103  13.097 -0.1373  0.0819  0.1181
   45DOPE   C21 5698   3.723  -0.221  13.064 -0.0457 -0.1171  0.0650
   45DOPE   O22 5699   3.805  -0.244  12.979  0.4128  0.3088  0.4085
   45DOPE   C22 5700   3.637  -0.331  13.141 -0.5903 -0.7954  0.5471
   45DOPE   H2R 5701   3.533  -0.320  13.103 -1.2021  0.2011  2.3675
   45DOPE   H2S 5702   3.627  -0.296  13.246  0.3514 -1.3189  0.8106
   45DOPE    C3 5703   3.883   0.029  13.120  0.6494 -0.4548 -0.5564
   45DOPE    HX 5704   3.920   0.128  13.086 -1.2064  0.1805 -0.8248
   45DOPE    HY 5705   3.941  -0.061  13.091  0.4768  0.3324 -3.6881
   45DOPE   O31 5706   3.858   0.041  13.265 -0.0657 -0.6018  0.4693
   45DOPE   C31 5707   3.887  -0.062  13.342 -0.2240  0.5513  0.4006
   45DOPE   O32 5708   3.958  -0.157  13.303  0.0287 -0.2262  0.2349
   45DOPE   C32 5709   3.826  -0.038  13.477 -0.0706  0.1286 -0.2731
   45DOPE   H2X 5710   3.891  -0.078  13.557 -2.3812 -1.1235  1.0928
   45DOPE   H2Y 5711   3.835   0.072  13.493 -0.2967  0.1658 -0.3991
   45DOPE   C23 5712   3.685  -0.479  13.121 -0.2008  0.0423  0.1376
   45DOPE   H3R 5713   3.751  -0.505  13.206 -1.1671 -1.9735  0.3108
   45DOPE   H3S 5714   3.748  -0.476  13.029  0.6339  1.3969  0.7170
   45DOPE   C24 5715   3.569  -0.582  13.115 -0.4947 -1.3153  0.9300
   45DOPE   H4R 5716   3.608  -0.685  13.103  2.1342 -0.3565  0.6347
   45DOPE   H4S 5717   3.514  -0.553  13.023  0.2703  2.4226  1.4937
   45DOPE   C25 5718   3.453  -0.577  13.217 -0.4145 -0.0784  0.6498
   45DOPE   H5R 5719   3.438  -0.468  13.230  0.0637  0.0073  0.4993
   45DOPE   H5S 5720   3.484  -0.624  13.313  0.6052 -0.7766 -0.0017
   45DOPE   C26 5721   3.321  -0.645  13.167  0.5799 -0.5411  1.1819
   45DOPE   H6R 5722   3.346  -0.744  13.123 -3.3270  0.2083 -3.6228
   45DOPE   H6S 5723   3.280  -0.588  13.080  0.2054 -1.5736  0.6635
   45DOPE   C27 5724   3.212  -0.671  13.271 -0.3245 -0.0648  0.2610
   45DOPE   H7R 5725   3.185  -0.576  13.322  1.5162  0.1895  0.8571
   45DOPE   H7S 5726   3.263  -0.712  13.361 -0.1205  0.5630  0.4321
   45DOPE   C28 5727   3.096  -0.759  13.233  0.6429 -0.2554  0.1340
   45DOPE   H8R 5728   3.039  -0.732  13.141  0.8371 -2.6940 -0.7790
   45DOPE   H8S 5729   3.026  -0.763  13.319 -0.9498  0.0358 -1.1032
   45DOPE   C29 5730   3.157  -0.896  13.210 -0.4375  0.6761 -0.0860
   45DOPE   H9R 5731   3.217  -0.897  13.117  1.0852  1.2608  0.8529
   45DOPE  C210 5732   3.140  -1.001  13.290 -1.1177  0.1805 -0.4016
   45DOPE  H10R 5733   3.195  -1.094  13.268 -0.0591  0.1145  2.1561
   45DOPE  C211 5734   3.056  -1.016  13.419  0.3641  0.3957  0.1752
   45DOPE  H11R 5735   2.979  -0.937  13.421 -0.3933 -0.3346  0.9139
   45DOPE  H11S 5736   3.123  -1.012  13.507 -0.7216  0.3781  1.0297
   45DOPE  C212 5737   2.975  -1.156  13.435 -0.7415  0.5541 -0.7857
   45DOPE  H12R 5738   3.046  -1.228  13.391  0.8060  0.7435  1.2624
   45DOPE  H12S 5739   2.884  -1.148  13.371  0.7010  0.2641 -2.9745
   45DOPE  C213 5740   2.954  -1.195  13.581 -0.3656  0.2179 -0.4979
   45DOPE  H13R 5741   2.934  -1.101  13.636  1.0331 -0.3583  1.0637
   45DOPE  H13S 5742   3.060  -1.208  13.612  0.4125  1.7918 -2.2613
   45DOPE  C214 5743   2.850  -1.304  13.607  0.2939 -0.4773 -0.7880
   45DOPE  H14R 5744   2.897  -1.404  13.612 -2.4626 -1.8465 -0.4311
   45DOPE  H14S 5745   2.766  -1.309  13.534  0.3616 -0.2958 -0.8784
   45DOPE  C215 5746   2.792  -1.282  13.750  0.4392 -0.4685 -0.4267
   45DOPE  H15R 5747   2.726  -1.193  13.741 -1.9424 -2.0816 -0.0469
   45DOPE  H15S 5748   2.867  -1.253  13.826 -0.6412 -0.4770  0.6784
   45DOPE  C216 5749   2.701  -1.400  13.802 -1.0322  0.9708 -0.2478
   45DOPE  H16R 5750   2.760  -1.493  13.815  0.9733  1.9892 -1.6384
   45DOPE  H16S 5751   2.632  -1.419  13.717 -1.6325  0.4269  0.3573
   45DOPE  C217 5752   2.637  -1.372  13.933  0.0810  0.3418 -0.0497
   45DOPE  H17R 5753   2.551  -1.303  13.916  1.5520  2.2718 -0.0944
   45DOPE  H17S 5754   2.706  -1.315  14.000 -1.7522  1.0720  1.3132
   45DOPE  C218 5755   2.592  -1.495  14.008  0.4093 -0.3946  0.0092
   45DOPE  H18R 5756   2.677  -1.529  14.071  1.1169 -1.1808 -1.3189
   45DOPE  H18S 5757   2.562  -1.571  13.933  0.5564 -0.4822  0.0378
   45DOPE  H18T 5758   2.499  -1.486  14.069  1.3860  0.2280  1.4616
   45DOPE   C33 5759   3.684  -0.079  13.488  0.0656 -0.3957 -0.1744
   45DOPE   H3X 5760   3.658  -0.171  13.431 -0.0304 -0.0843 -0.6357
   45DOPE   H3Y 5761   3.623   0.008  13.457 -1.0931 -0.0188  2.8674
   45DOPE   C34 5762   3.653  -0.115  13.640  0.3463 -0.1874 -0.1883
   45DOPE   H4X 5763   3.703  -0.204  13.684 -1.1054 -0.7655  0.3693
   45DOPE   H4Y 5764   3.672  -0.024  13.701 -3.4192  0.9725 -0.4871
   45DOPE   C35 5765   3.503  -0.147  13.653  0.0894 -0.0009 -0.3534
   45DOPE   H5X 5766   3.442  -0.080  13.589  1.2104 -0.0332 -1.4975
   45DOPE   H5Y 5767   3.479  -0.144  13.761  3.3402 -1.3894  0.5422
   45DOPE   C36 5768   3.472  -0.282  13.597 -0.2535 -0.3633  0.0815
   45DOPE   H6X 5769   3.540  -0.353  13.650 -0.2940 -2.5542 -2.5462
   45DOPE   H6Y 5770   3.481  -0.299  13.488  1.0985  0.8193 -0.0232
   45DOPE   C37 5771   3.323  -0.318  13.621 -0.1621 -0.3460  0.4787
   45DOPE   H7X 5772   3.304  -0.313  13.731  3.0866  0.1216  1.1299
   45DOPE   H7Y 5773   3.256  -0.245  13.571  0.3123  0.2600  0.7070
   45DOPE   C38 5774   3.302  -0.461  13.572 -0.5229  0.3016 -0.3485
   45DOPE   H8X 5775   3.374  -0.531  13.620 -0.8994 -1.2370 -1.9478
   45DOPE   H8Y 5776   3.322  -0.453  13.463 -0.7588 -0.6166 -0.4669
   45DOPE   C39 5777   3.159  -0.500  13.587 -0.1422  0.0621 -0.3787
   45DOPE   H9X 5778   3.093  -0.412  13.586 -2.0341 -1.2837  0.7009
   45DOPE  C310 5779   3.109  -0.611  13.638  0.3821 -0.4304  0.5515
   45DOPE  H10X 5780   3.002  -0.622  13.662  0.8197  0.5444  3.4506
   45DOPE  C311 5781   3.195  -0.725  13.689  0.3645  0.0579 -0.6473
   45DOPE  H11X 5782   3.205  -0.803  13.611  0.6402  0.9306 -1.5031
   45DOPE  H11Y 5783   3.296  -0.687  13.714 -0.2779  2.2997 -1.1982
   45DOPE  C312 5784   3.118  -0.794  13.802  0.1427 -0.7524  0.1138
   45DOPE  H12X 5785   3.021  -0.839  13.772 -0.2410 -1.2620  2.0101
   45DOPE  H12Y 5786   3.096  -0.733  13.893 -0.7185  0.0224 -0.6017
   45DOPE  C313 5787   3.199  -0.909  13.866  0.2678  0.2139  0.1664
   45DOPE  H13X 5788   3.188  -0.989  13.790 -1.4274 -1.1353  1.7320
   45DOPE  H13Y 5789   3.304  -0.874  13.866  0.9924 -1.7885  1.6248
   45DOPE  C314 5790   3.131  -0.967  13.997  0.2938  0.6529  0.9488
   45DOPE  H14X 5791   3.119  -0.881  14.066  0.0327  2.0158 -0.7381
   45DOPE  H14Y 5792   3.186  -1.057  14.033  1.8565  1.2622  0.1707
   45DOPE  C315 5793   2.984  -1.006  13.970 -0.0082  0.1321 -0.0680
   45DOPE  H15X 5794   2.959  -1.102  14.020  0.3899 -0.0936 -0.2983
   45DOPE  H15Y 5795   2.963  -1.019  13.862  1.5502 -0.8155 -0.2867
   45DOPE  C316 5796   2.887  -0.896  14.029  0.3256  0.7654 -0.0129
   45DOPE  H16X 5797   2.906  -0.790  14.003  0.5610  0.5946 -0.5512
   45DOPE  H16Y 5798   2.879  -0.904  14.140 -1.7212 -0.0970 -0.1741
   45DOPE  C317 5799   2.741  -0.938  13.979 -1.0490 -0.5302 -0.5067
   45DOPE  H17X 5800   2.745  -0.945  13.869  0.2926 -1.8459 -0.4025
   45DOPE  H17Y 5801   2.734  -1.037  14.028  1.8060 -0.1840  0.8350
   45DOPE  C318 5802   2.640  -0.838  14.028  0.6113  0.2096 -0.5165
   45DOPE  H18X 5803   2.633  -0.817  14.137  2.8949  0.4473 -0.3679
   45DOPE  H18Y 5804   2.653  -0.743  13.973 -3.2183  0.2272 -1.6274
   45DOPE  H18Z 5805   2.538  -0.875  14.007 -0.0474 -0.2652  2.8483
   46DOPE     N 5806   5.673   7.151  13.142 -0.0927  0.1207  0.4848
   46DOPE   HN1 5807   5.708   7.077  13.206 -0.2822  1.7909  2.6150
   46DOPE   HN2 5808   5.663   7.239  13.196  0.9974 -0.5076  1.7671
   46DOPE   HN3 5809   5.579   7.129  13.102 -0.5098  2.5284 -0.0167
   46DOPE   C12 5810   5.770   7.186  13.028 -0.0602  0.6415 -0.6265
   46DOPE  H12A 5811   5.870   7.205  13.075 -0.9067  3.6490  0.1748
   46DOPE  H12B 5812   5.734   7.286  12.996 -2.3754  0.3992  0.9758
   46DOPE   C11 5813   5.768   7.083  12.916  0.4077 -0.1588  0.5484
   46DOPE  H11A 5814   5.833   7.116  12.832  0.9030 -2.6736 -0.1527
   46DOPE  H11B 5815   5.665   7.072  12.875  0.3626 -1.2006  0.9133
   46DOPE     P 5816   5.815   6.829  12.861 -0.3845  0.0050  0.2093
   46DOPE   O13 5817   5.960   6.807  12.820  0.7707 -1.0305 -0.0047
   46DOPE   O14 5818   5.723   6.854  12.749 -0.1228  0.1404 -0.5246
   46DOPE   O11 5819   5.757   6.707  12.948  0.0112  0.8055  0.0474
   46DOPE   O12 5820   5.809   6.950  12.963 -0.3838 -0.4148 -0.0312
   46DOPE    C1 5821   5.631   6.724  13.009  0.2239  0.6986  0.2904
   46DOPE    HA 5822   5.573   6.636  12.976  1.4324 -0.3043  0.7373
   46DOPE    HB 5823   5.574   6.815  12.982 -1.9122 -0.9461 -1.0467
   46DOPE    C2 5824   5.652   6.714  13.160 -0.3839 -0.3883 -0.7250
   46DOPE    HS 5825   5.724   6.794  13.186  0.1106 -0.5654 -1.4874
   46DOPE   O21 5826   5.706   6.581  13.191 -0.8251 -0.2823 -0.2079
   46DOPE   C21 5827   5.797   6.585  13.291  0.0371 -0.1370 -0.6332
   46DOPE   O22 5828   5.838   6.682  13.347 -0.0354 -0.3894  0.0708
   46DOPE   C22 5829   5.793   6.449  13.357 -0.5884 -0.4020  0.5282
   46DOPE   H2R 5830   5.871   6.389  13.306  2.2178  3.3176  0.0135
   46DOPE   H2S 5831   5.698   6.396  13.341 -1.4803  0.8848  1.3110
   46DOPE    C3 5832   5.512   6.731  13.227  0.3491 -0.3855  0.1477
   46DOPE    HX 5833   5.452   6.642  13.200  1.0385 -1.2157  1.2903
   46DOPE    HY 5834   5.450   6.811  13.182 -2.2382 -2.5827 -0.4269
   46DOPE   O31 5835   5.511   6.744  13.373 -0.1854 -0.2948 -0.3148
   46DOPE   C31 5836   5.490   6.871  13.422  0.1618 -0.1492 -0.7204
   46DOPE   O32 5837   5.492   6.974  13.358 -0.1961  0.4582 -0.0848
   46DOPE   C32 5838   5.456   6.869  13.567  0.1266  0.4907 -0.1682
   46DOPE   H2X 5839   5.346   6.862  13.573  0.2569 -0.6216  1.4374
   46DOPE   H2Y 5840   5.507   6.785  13.618 -0.1751 -0.9983 -2.2023
   46DOPE   C23 5841   5.817   6.445  13.514 -0.1605 -0.3133  0.0954
   46DOPE   H3R 5842   5.736   6.508  13.558  1.4239  1.1536  1.0142
   46DOPE   H3S 5843   5.914   6.491  13.540  1.0341 -1.0285 -2.7111
   46DOPE   C24 5844   5.798   6.295  13.571  0.1562 -0.3613  0.3016
   46DOPE   H4R 5845   5.881   6.232  13.531  0.4525  0.8509 -1.0685
   46DOPE   H4S 5846   5.704   6.251  13.530 -1.1691 -0.4375  3.1530
   46DOPE   C25 5847   5.801   6.304  13.724  0.2419  0.5082 -0.5268
   46DOPE   H5R 5848   5.710   6.352  13.767 -0.5543 -0.9478 -0.5011
   46DOPE   H5S 5849   5.890   6.366  13.746  0.5250  0.2417 -0.8954
   46DOPE   C26 5850   5.815   6.173  13.801  0.0531  0.0897  0.2552
   46DOPE   H6R 5851   5.827   6.195  13.909  0.2760 -0.2270  0.2961
   46DOPE   H6S 5852   5.908   6.121  13.768 -0.9283 -1.6517  0.0901
   46DOPE   C27 5853   5.703   6.062  13.789 -0.4237 -0.0633 -0.4307
   46DOPE   H7R 5854   5.742   5.971  13.840  1.3001  0.9499  0.1164
   46DOPE   H7S 5855   5.677   6.035  13.684 -0.6151 -0.4117 -0.2973
   46DOPE   C28 5856   5.573   6.115  13.846  0.7088  0.3128 -0.2398
   46DOPE   H8R 5857   5.499   6.034  13.825  0.1254  1.1739 -1.6366
   46DOPE   H8S 5858   5.540   6.196  13.777 -0.7084  0.6261  0.7644
   46DOPE   C29 5859   5.574   6.165  13.988  0.2405  0.4989 -0.4799
   46DOPE   H9R 5860   5.592   6.272  14.009  0.9763  0.4465 -0.7955
   46DOPE  C210 5861   5.547   6.090  14.100 -0.1450 -0.1010 -0.0783
   46DOPE  H10R 5862   5.556   6.148  14.193 -0.4899  1.4252 -0.9759
   46DOPE  C211 5863   5.502   5.944  14.110  0.1160  0.6085 -0.9810
   46DOPE  H11R 5864   5.588   5.892  14.062  1.6516  0.3659  1.7997
   46DOPE  H11S 5865   5.408   5.936  14.052 -0.3900  0.4583 -0.1574
   46DOPE  C212 5866   5.486   5.880  14.254  1.0844 -0.2286  0.2989
   46DOPE  H12R 5867   5.459   5.774  14.237  1.9207 -0.5322  0.8472
   46DOPE  H12S 5868   5.389   5.915  14.295  1.5980  0.5486  0.8881
   46DOPE  C213 5869   5.599   5.902  14.348 -0.7715  0.5746  0.2419
   46DOPE  H13R 5870   5.588   6.002  14.396 -3.7153 -0.2942  1.5451
   46DOPE  H13S 5871   5.688   5.903  14.281  1.2930 -2.0757  2.7107
   46DOPE  C214 5872   5.610   5.788  14.444 -0.4545  1.2369 -0.1799
   46DOPE  H14R 5873   5.511   5.740  14.461 -0.0969  1.1182  1.8942
   46DOPE  H14S 5874   5.647   5.828  14.541  1.4342 -2.0505  0.5959
   46DOPE  C215 5875   5.704   5.681  14.388 -0.2886  0.2803  0.4443
   46DOPE  H15R 5876   5.804   5.729  14.381  0.5003 -1.5237 -1.6314
   46DOPE  H15S 5877   5.668   5.668  14.284 -1.8059  0.5158  0.9027
   46DOPE  C216 5878   5.702   5.543  14.458 -0.1886 -0.1122 -0.3506
   46DOPE  H16R 5879   5.595   5.514  14.465 -0.8138  1.8916 -0.9569
   46DOPE  H16S 5880   5.745   5.563  14.559  0.2483  1.7386 -0.8596
   46DOPE  C217 5881   5.780   5.444  14.378  0.1916  0.5649  0.7656
   46DOPE  H17R 5882   5.812   5.348  14.425  1.0226  0.5703  0.2279
   46DOPE  H17S 5883   5.877   5.492  14.352  0.4407  0.3892  1.3464
   46DOPE  C218 5884   5.716   5.404  14.241 -0.3403 -0.2369  0.1367
   46DOPE  H18R 5885   5.616   5.450  14.230  0.0966  0.6966 -0.0614
   46DOPE  H18S 5886   5.712   5.293  14.230  1.6860 -0.3533  0.1148
   46DOPE  H18T 5887   5.787   5.438  14.162  0.6993  1.2377  1.6447
   46DOPE   C33 5888   5.510   6.986  13.655 -0.4088 -0.9405  0.5125
   46DOPE   H3X 5889   5.481   7.089  13.623 -1.3871 -0.5990  2.3401
   46DOPE   H3Y 5890   5.620   6.984  13.649 -0.3984  0.8967 -3.8424
   46DOPE   C34 5891   5.470   6.980  13.800 -0.6287  0.2778 -0.0520
   46DOPE   H4X 5892   5.363   6.959  13.820  0.0577 -2.1483  1.5899
   46DOPE   H4Y 5893   5.525   6.896  13.849  0.4045  1.5470  1.0142
   46DOPE   C35 5894   5.490   7.111  13.877  0.3111 -0.1033 -0.0372
   46DOPE   H5X 5895   5.402   7.166  13.838  0.9492 -0.6586 -2.4604
   46DOPE   H5Y 5896   5.583   7.163  13.845  0.5156  0.2868  1.1411
   46DOPE   C36 5897   5.479   7.090  14.027  0.3050 -0.6069  0.5333
   46DOPE   H6X 5898   5.575   7.058  14.073 -0.3879 -1.0702  1.6993
   46DOPE   H6Y 5899   5.396   7.023  14.057  0.4976 -0.8996  0.4161
   46DOPE   C37 5900   5.444   7.223  14.094 -0.1444 -0.8516 -0.1394
   46DOPE   H7X 5901   5.534   7.282  14.067  0.6937 -0.9300  2.2661
   46DOPE   H7Y 5902   5.361   7.275  14.043  0.3999  0.7614  0.5500
   46DOPE   C38 5903   5.415   7.224  14.244  0.4430 -0.7311  0.5016
   46DOPE   H8X 5904   5.404   7.331  14.275  3.5607  0.0115 -0.5809
   46DOPE   H8Y 5905   5.504   7.179  14.292  1.4976 -0.2437 -0.9056
   46DOPE   C39 5906   5.296   7.146  14.302 -0.0381  0.7260  0.1784
   46DOPE   H9X 5907   5.200   7.196  14.281 -1.4043 -2.0045 -0.4420
   46DOPE  C310 5908   5.290   7.023  14.359  0.2884 -0.1607  0.0784
   46DOPE  H10X 5909   5.195   6.982  14.397  1.0160  0.2051  2.4871
   46DOPE  C311 5910   5.406   6.923  14.383 -0.2355 -1.0524  0.3366
   46DOPE  H11X 5911   5.398   6.840  14.309  0.9236 -0.1260 -0.8871
   46DOPE  H11Y 5912   5.498   6.982  14.362 -1.4957  1.0158  0.3131
   46DOPE  C312 5913   5.419   6.861  14.525  0.1595 -0.0171  0.7050
   46DOPE  H12X 5914   5.427   6.946  14.597 -1.7498  3.2518 -2.6532
   46DOPE  H12Y 5915   5.515   6.805  14.520  1.6486  2.4792 -1.5334
   46DOPE  C313 5916   5.302   6.773  14.563  0.1309 -0.7725 -0.1424
   46DOPE  H13X 5917   5.215   6.840  14.576  2.2193  2.4416 -1.4425
   46DOPE  H13Y 5918   5.284   6.700  14.481 -1.6099  1.6524 -2.0284
   46DOPE  C314 5919   5.321   6.704  14.699 -0.2401  0.1571 -0.2153
   46DOPE  H14X 5920   5.327   6.784  14.776  0.0178  0.6247 -0.7130
   46DOPE  H14Y 5921   5.410   6.638  14.694 -0.5943 -0.2555 -2.6193
   46DOPE  C315 5922   5.211   6.611  14.736  0.5444  0.8545 -0.5200
   46DOPE  H15X 5923   5.227   6.519  14.676 -0.2400  0.2463  0.1791
   46DOPE  H15Y 5924   5.111   6.648  14.707 -1.4617 -1.3564  2.8508
   46DOPE  C316 5925   5.209   6.580  14.882  0.3246 -0.3062 -0.4267
   46DOPE  H16X 5926   5.164   6.665  14.937 -0.7138 -1.2732  0.2755
   46DOPE  H16Y 5927   5.311   6.563  14.921 -0.2294 -2.8141  0.1642
   46DOPE  C317 5928   5.121   6.461  14.913 -0.2174 -0.2007  0.1194
   46DOPE  H17X 5929   5.022   6.479  14.865 -0.3326  1.5860  0.9720
   46DOPE  H17Y 5930   5.168   6.366  14.878  0.5663  0.0558  0.4730
   46DOPE  C318 5931   5.106   6.455  15.065  0.1972 -0.2009 -0.0171
   46DOPE  H18X 5932   5.204   6.468  15.116 -0.1788  0.7701  0.4723
   46DOPE  H18Y 5933   5.036   6.530  15.107  0.9515  1.6359 -1.8832
   46DOPE  H18Z 5934   5.058   6.360  15.096 -2.3848  0.8173 -0.6198
   47DOPE     N 5935   1.105   6.034  13.115  0.5130  0.8331 -0.5933
   47DOPE   HN1 5936   1.071   6.027  13.017  0.2885  0.8474 -0.5164
   47DOPE   HN2 5937   1.032   6.017  13.188 -0.7339 -1.1781 -2.1881
   47DOPE   HN3 5938   1.146   6.128  13.126  3.2126 -0.4040  0.9246
   47DOPE   C12 5939   1.203   5.919  13.124  0.3837 -0.0258  0.0627
   47DOPE  H12A 5940   1.153   5.820  13.127  0.6118 -0.1556 -0.3140
   47DOPE  H12B 5941   1.263   5.937  13.216  0.1501  1.1590 -0.0009
   47DOPE   C11 5942   1.298   5.920  12.994 -0.4571 -0.2552 -0.0720
   47DOPE  H11A 5943   1.226   5.886  12.916 -0.9719  2.4240 -0.8725
   47DOPE  H11B 5944   1.384   5.855  13.021  0.2664  0.2932 -1.0101
   47DOPE     P 5945   1.482   6.110  12.987  0.0897 -0.0468 -0.3210
   47DOPE   O13 5946   1.469   6.248  12.937 -0.3136  0.0506  0.0941
   47DOPE   O14 5947   1.588   6.027  12.932 -0.4654  0.2141  0.2599
   47DOPE   O11 5948   1.487   6.109  13.145 -0.6647 -0.0745 -0.3655
   47DOPE   O12 5949   1.343   6.051  12.958 -0.4496  0.0860 -0.3051
   47DOPE    C1 5950   1.573   6.014  13.217  0.3278  0.5691  0.1652
   47DOPE    HA 5951   1.680   6.037  13.195  0.7374 -1.1623  0.1820
   47DOPE    HB 5952   1.564   5.912  13.173  0.6847  0.0560  1.2539
   47DOPE    C2 5953   1.558   6.020  13.378 -0.1708 -0.3128  0.5368
   47DOPE    HS 5954   1.452   5.989  13.393 -1.0627  0.6425 -2.8152
   47DOPE   O21 5955   1.573   6.165  13.400  0.1152  0.3251 -0.2940
   47DOPE   C21 5956   1.517   6.200  13.517  0.4155 -0.3234  0.0887
   47DOPE   O22 5957   1.455   6.129  13.593  0.0944  0.0272 -0.2335
   47DOPE   C22 5958   1.546   6.346  13.543  0.2148 -0.3805  1.5439
   47DOPE   H2R 5959   1.468   6.415  13.504  1.5488  0.6079  0.5191
   47DOPE   H2S 5960   1.640   6.371  13.488 -0.0921 -0.6463  0.8855
   47DOPE    C3 5961   1.663   5.940  13.449  0.0098  0.9975 -0.0647
   47DOPE    HX 5962   1.761   5.992  13.444  0.9579 -0.6742  0.4397
   47DOPE    HY 5963   1.669   5.846  13.391  0.1372  1.7379 -1.2926
   47DOPE   O31 5964   1.638   5.916  13.591 -0.4264 -0.6215 -0.2631
   47DOPE   C31 5965   1.547   5.828  13.615 -0.6962 -0.0163 -0.1234
   47DOPE   O32 5966   1.466   5.778  13.534 -0.0983 -0.2343 -0.2438
   47DOPE   C32 5967   1.538   5.802  13.769  0.5592 -0.7197  0.1721
   47DOPE   H2X 5968   1.623   5.739  13.804 -0.1139 -0.7625  1.8436
   47DOPE   H2Y 5969   1.545   5.901  13.818  1.8926 -1.8119  2.3527
   47DOPE   C23 5970   1.574   6.379  13.685 -0.3051  0.7941 -0.2541
   47DOPE   H3R 5971   1.650   6.309  13.725  2.9064  3.9234 -0.3473
   47DOPE   H3S 5972   1.480   6.370  13.742  0.7659 -0.3738  1.4285
   47DOPE   C24 5973   1.640   6.518  13.709  0.1306 -0.3649 -0.5592
   47DOPE   H4R 5974   1.634   6.524  13.819  2.6627  0.5221 -0.3884
   47DOPE   H4S 5975   1.567   6.593  13.672  0.7350 -0.1024 -1.2462
   47DOPE   C25 5976   1.767   6.550  13.634 -0.2660  0.5728  0.1681
   47DOPE   H5R 5977   1.762   6.550  13.523  0.1903  1.9325  0.1299
   47DOPE   H5S 5978   1.834   6.464  13.655  1.3848  0.5663 -4.1641
   47DOPE   C26 5979   1.845   6.680  13.662 -0.4339 -0.1027 -0.1169
   47DOPE   H6R 5980   1.777   6.757  13.621 -2.3271 -2.1723 -1.0791
   47DOPE   H6S 5981   1.939   6.682  13.604 -0.7038  1.2375 -0.5339
   47DOPE   C27 5982   1.871   6.706  13.806  0.0305 -0.1215 -0.4139
   47DOPE   H7R 5983   1.771   6.720  13.851 -1.2558 -0.8734 -2.8510
   47DOPE   H7S 5984   1.936   6.796  13.815  1.1588 -1.0330  1.0592
   47DOPE   C28 5985   1.939   6.584  13.888  0.2080 -0.2343  0.3374
   47DOPE   H8R 5986   2.043   6.566  13.854  0.7833  1.3166  1.1492
   47DOPE   H8S 5987   1.869   6.500  13.871  0.3887 -0.4874  0.8236
   47DOPE   C29 5988   1.941   6.606  14.040 -0.6242 -0.0430 -0.0999
   47DOPE   H9R 5989   1.843   6.608  14.090  0.1994  1.1566  1.5768
   47DOPE  C210 5990   2.056   6.611  14.119  0.7435  0.5667 -0.5899
   47DOPE  H10R 5991   2.039   6.636  14.224  1.6752  1.3626 -0.6116
   47DOPE  C211 5992   2.201   6.599  14.081  0.3875  0.1122 -0.5858
   47DOPE  H11R 5993   2.265   6.667  14.142  0.2877 -0.2364 -0.0805
   47DOPE  H11S 5994   2.213   6.629  13.975  1.2476  3.2313  0.2725
   47DOPE  C212 5995   2.255   6.453  14.107  0.5904  0.7924  0.1775
   47DOPE  H12R 5996   2.358   6.438  14.068 -0.6783 -1.1830 -2.7834
   47DOPE  H12S 5997   2.198   6.391  14.035 -0.4726  1.1652  0.6875
   47DOPE  C213 5998   2.243   6.402  14.254 -0.6187  0.5248  0.0038
   47DOPE  H13R 5999   2.257   6.292  14.257 -2.1948  0.3144  1.7956
   47DOPE  H13S 6000   2.144   6.435  14.294 -0.4294  1.3985 -0.2194
   47DOPE  C214 6001   2.342   6.461  14.362  0.3937 -0.2972 -0.0366
   47DOPE  H14R 6002   2.296   6.554  14.402 -1.0840 -0.4689 -1.2596
   47DOPE  H14S 6003   2.430   6.497  14.305 -0.8486  3.0832 -0.0372
   47DOPE  C215 6004   2.377   6.376  14.487  0.1828  0.1520 -0.1979
   47DOPE  H15R 6005   2.454   6.301  14.458  2.2605  2.0675  0.1306
   47DOPE  H15S 6006   2.295   6.315  14.532  0.1595  0.5397  0.2970
   47DOPE  C216 6007   2.439   6.453  14.606 -0.3323  0.5764  0.4307
   47DOPE  H16R 6008   2.346   6.496  14.647 -0.0640  1.2799  0.3240
   47DOPE  H16S 6009   2.497   6.531  14.552 -0.7873 -0.9116 -2.4251
   47DOPE  C217 6010   2.506   6.372  14.717  0.5421 -0.5459 -0.1278
   47DOPE  H17R 6011   2.609   6.335  14.700  1.5566  1.6777  0.7420
   47DOPE  H17S 6012   2.442   6.282  14.727 -1.4635  0.9404  1.4248
   47DOPE  C218 6013   2.503   6.457  14.851  0.0379 -0.1247 -0.3539
   47DOPE  H18R 6014   2.566   6.549  14.849 -1.2352  0.7735 -0.0758
   47DOPE  H18S 6015   2.543   6.405  14.941  0.2586 -1.0529 -0.9777
   47DOPE  H18T 6016   2.401   6.493  14.877 -0.6737 -0.1489 -2.8406
   47DOPE   C33 6017   1.410   5.729  13.821 -0.2276  0.2313  0.2375
   47DOPE   H3X 6018   1.410   5.624  13.787 -0.9990  0.2972  0.0218
   47DOPE   H3Y 6019   1.317   5.779  13.786  1.4066  1.2587 -3.0148
   47DOPE   C34 6020   1.421   5.733  13.979  0.0128 -0.6531 -0.0805
   47DOPE   H4X 6021   1.511   5.677  14.013  1.1924  1.9376  1.3681
   47DOPE   H4Y 6022   1.420   5.841  14.002 -0.1983 -0.2699 -1.7364
   47DOPE   C35 6023   1.300   5.665  14.042 -0.2085  0.4695  0.1916
   47DOPE   H5X 6024   1.274   5.566  13.998 -0.8277 -0.7827  3.1477
   47DOPE   H5Y 6025   1.211   5.732  14.045  0.9185  2.0331  0.2395
   47DOPE   C36 6026   1.341   5.634  14.189 -0.1281 -0.2063 -0.3995
   47DOPE   H6X 6027   1.388   5.727  14.227 -0.7032  0.3911 -1.1233
   47DOPE   H6Y 6028   1.424   5.560  14.197  1.3610  1.3650 -0.7381
   47DOPE   C37 6029   1.224   5.593  14.281 -0.4610  0.2101 -0.4104
   47DOPE   H7X 6030   1.265   5.595  14.385 -0.9223 -1.3104 -0.1784
   47DOPE   H7Y 6031   1.147   5.673  14.279  0.2983  0.9614 -0.4913
   47DOPE   C38 6032   1.161   5.458  14.260  0.0029  0.9652  0.3232
   47DOPE   H8X 6033   1.111   5.455  14.161  0.6932 -1.1978  0.0025
   47DOPE   H8Y 6034   1.077   5.448  14.332 -0.7848  0.2459 -0.6735
   47DOPE   C39 6035   1.266   5.348  14.271  0.0664  0.6115  0.8131
   47DOPE   H9X 6036   1.346   5.355  14.197  0.3238  0.8057  1.1105
   47DOPE  C310 6037   1.278   5.268  14.379 -0.3152  0.0624 -0.1001
   47DOPE  H10X 6038   1.349   5.184  14.384  0.4746  0.6402 -1.1418
   47DOPE  C311 6039   1.190   5.268  14.495  0.0364  0.3535 -0.2081
   47DOPE  H11X 6040   1.243   5.207  14.571 -1.4625 -1.5937 -0.6532
   47DOPE  H11Y 6041   1.181   5.370  14.538  1.5733 -0.1836  1.5255
   47DOPE  C312 6042   1.047   5.218  14.473  0.0558 -0.9979  0.6331
   47DOPE  H12X 6043   0.993   5.271  14.392  0.6172 -0.7304  0.4262
   47DOPE  H12Y 6044   0.989   5.240  14.565 -2.6233 -1.0307 -0.9513
   47DOPE  C313 6045   1.028   5.065  14.452  0.2541 -0.9423  0.2555
   47DOPE  H13X 6046   0.920   5.040  14.444 -0.7218  2.6993  0.6325
   47DOPE  H13Y 6047   1.080   5.043  14.356 -0.9377  2.2149 -1.2278
   47DOPE  C314 6048   1.088   4.976  14.556  0.2340  0.0234  1.0790
   47DOPE  H14X 6049   1.064   5.019  14.656 -0.2703 -2.2310  1.9737
   47DOPE  H14Y 6050   1.196   4.971  14.528 -0.2400  0.3362 -0.8981
   47DOPE  C315 6051   1.023   4.829  14.555 -0.5617 -0.1207 -0.0972
   47DOPE  H15X 6052   1.044   4.780  14.458  2.1869 -0.2993  0.5048
   47DOPE  H15Y 6053   0.913   4.841  14.570 -0.2205  1.6197  1.4903
   47DOPE  C316 6054   1.089   4.728  14.652 -0.3588  0.0704  0.1642
   47DOPE  H16X 6055   1.087   4.772  14.754 -0.9592  0.5370 -0.0408
   47DOPE  H16Y 6056   1.193   4.708  14.618 -0.9302  0.1888 -1.8011
   47DOPE  C317 6057   1.027   4.586  14.654  0.2543  0.3900 -0.2799
   47DOPE  H17X 6058   1.074   4.531  14.738  1.0096 -1.1222 -1.6185
   47DOPE  H17Y 6059   0.918   4.599  14.664  0.0418 -0.6349 -1.0568
   47DOPE  C318 6060   1.065   4.493  14.532  0.5676  0.2290  0.4276
   47DOPE  H18X 6061   0.997   4.518  14.448  0.4303  0.6102  0.6474
   47DOPE  H18Y 6062   1.172   4.503  14.502  0.5786  0.6619  0.6001
   47DOPE  H18Z 6063   1.040   4.392  14.572  0.2890  0.1952  0.1675
   48DOPE     N 6064   6.363   2.603  13.390  0.0777 -0.5758 -0.6169
   48DOPE   HN1 6065   6.404   2.699  13.391 -1.7075  0.3214 -2.8771
   48DOPE   HN2 6066   6.265   2.621  13.359 -0.1417  2.3084  1.3393
   48DOPE   HN3 6067   6.352   2.569  13.487 -2.1129 -1.5010 -1.1169
   48DOPE   C12 6068   6.448   2.513  13.299  0.1334 -0.1772  1.0979
   48DOPE  H12A 6069   6.532   2.579  13.267 -0.8459  0.9373  0.7622
   48DOPE  H12B 6070   6.388   2.484  13.211  1.2512  1.3966 -0.2349
   48DOPE   C11 6071   6.491   2.385  13.375  0.0510  0.4458  0.2934
   48DOPE  H11A 6072   6.396   2.330  13.394 -0.8781  0.9263 -2.5568
   48DOPE  H11B 6073   6.540   2.411  13.472  2.1416 -4.6020  0.8625
   48DOPE     P 6074   6.557   2.181  13.217  0.3092  0.0103  0.0192
   48DOPE   O13 6075   6.683   2.112  13.194 -0.5255 -0.1584 -0.3133
   48DOPE   O14 6076   6.476   2.223  13.097  0.4484 -0.1493 -0.9160
   48DOPE   O11 6077   6.473   2.097  13.317  0.5816 -0.0459 -0.3712
   48DOPE   O12 6078   6.587   2.309  13.305  0.1634 -0.1717  0.2628
   48DOPE    C1 6079   6.535   2.034  13.433 -0.2850 -0.6428 -0.0298
   48DOPE    HA 6080   6.637   2.074  13.450 -0.6129 -0.5660  1.9484
   48DOPE    HB 6081   6.542   1.924  13.416  0.4924 -0.5240 -0.5196
   48DOPE    C2 6082   6.441   2.052  13.555  0.2625  0.6146 -0.1788
   48DOPE    HS 6083   6.396   2.154  13.552 -0.9178  0.0941 -0.6310
   48DOPE   O21 6084   6.519   2.016  13.670  0.2400  0.1713  0.0806
   48DOPE   C21 6085   6.589   2.118  13.716  0.5994  0.3159 -0.1919
   48DOPE   O22 6086   6.591   2.230  13.667 -0.3537  0.4692  0.3037
   48DOPE   C22 6087   6.651   2.100  13.854 -0.1971 -0.2974  0.1237
   48DOPE   H2R 6088   6.739   2.034  13.840  1.2689  1.0021  2.5344
   48DOPE   H2S 6089   6.573   2.048  13.914 -3.3286  1.8926 -1.7670
   48DOPE    C3 6090   6.316   1.949  13.537 -0.2515 -0.5842 -1.3562
   48DOPE    HX 6091   6.376   1.855  13.532 -0.0478 -0.5644  0.3932
   48DOPE    HY 6092   6.269   1.982  13.442  1.8845  1.7826 -1.7016
   48DOPE   O31 6093   6.225   1.932  13.651 -0.1953  0.2097 -0.4622
   48DOPE   C31 6094   6.177   1.811  13.681  0.2585  0.5587  0.1783
   48DOPE   O32 6095   6.211   1.707  13.628 -0.4244 -0.1626 -0.8011
   48DOPE   C32 6096   6.066   1.815  13.784 -0.3807  0.3931 -0.0491
   48DOPE   H2X 6097   6.120   1.847  13.875  2.8125  2.0988 -2.3148
   48DOPE   H2Y 6098   5.991   1.892  13.757 -0.3999 -0.2691 -2.0646
   48DOPE   C23 6099   6.707   2.233  13.925  0.1927 -0.1966  0.3819
   48DOPE   H3R 6100   6.662   2.324  13.882 -0.5849 -0.5213  0.4922
   48DOPE   H3S 6101   6.815   2.227  13.899  0.0521 -1.5822  0.0432
   48DOPE   C24 6102   6.670   2.237  14.071  0.8192  0.0893  0.6009
   48DOPE   H4R 6103   6.562   2.255  14.090  1.0329  1.9222  0.2074
   48DOPE   H4S 6104   6.712   2.329  14.116  2.0253  0.0211 -0.3253
   48DOPE   C25 6105   6.714   2.122  14.159  0.2964 -1.0628 -0.1900
   48DOPE   H5R 6106   6.804   2.072  14.115 -0.9413 -1.9252 -1.8345
   48DOPE   H5S 6107   6.639   2.040  14.151  1.5188 -2.0248 -3.2961
   48DOPE   C26 6108   6.740   2.157  14.311 -0.1247  0.0914  0.1712
   48DOPE   H6R 6109   6.756   2.054  14.349  1.1153  0.1962 -0.0268
   48DOPE   H6S 6110   6.648   2.203  14.353  0.0648  0.3142  0.3457
   48DOPE   C27 6111   6.866   2.236  14.331  0.4201  0.9627 -0.3205
   48DOPE   H7R 6112   6.859   2.332  14.274 -0.1420  0.8255 -0.4914
   48DOPE   H7S 6113   6.945   2.172  14.286 -0.1585  0.8253 -1.1668
   48DOPE   C28 6114   6.904   2.262  14.478 -0.1126  0.1641 -0.6565
   48DOPE   H8R 6115   6.995   2.326  14.480 -0.2593  0.3741 -0.5564
   48DOPE   H8S 6116   6.920   2.164  14.526 -0.2676 -0.5846 -2.0737
   48DOPE   C29 6117   6.785   2.330  14.543 -0.5201  0.1161 -0.3642
   48DOPE   H9R 6118   6.761   2.420  14.484  1.7053 -0.4718 -2.3242
   48DOPE  C210 6119   6.711   2.289  14.648 -0.2820  0.3069  0.4750
   48DOPE  H10R 6120   6.623   2.348  14.680 -0.3028  0.4490  0.1613
   48DOPE  C211 6121   6.742   2.169  14.735  0.1034  0.1893  0.2725
   48DOPE  H11R 6122   6.798   2.196  14.827 -1.2656  1.4208  0.7928
   48DOPE  H11S 6123   6.801   2.099  14.672  2.1570  2.6924 -0.7600
   48DOPE  C212 6124   6.609   2.101  14.775  0.5021 -0.0988 -0.4473
   48DOPE  H12R 6125   6.648   2.000  14.799  0.2883 -0.2271 -0.6373
   48DOPE  H12S 6126   6.542   2.101  14.687  1.1674 -0.3444 -0.9613
   48DOPE  C213 6127   6.542   2.169  14.892  0.3120 -0.4574  0.3225
   48DOPE  H13R 6128   6.444   2.191  14.845  0.4012  1.0373  0.7635
   48DOPE  H13S 6129   6.586   2.266  14.925 -1.1352  0.4644 -0.3576
   48DOPE  C214 6130   6.542   2.062  15.006  1.1264 -0.4796  0.0190
   48DOPE  H14R 6131   6.641   2.013  15.014  0.7092 -1.0912  1.6468
   48DOPE  H14S 6132   6.475   1.977  14.980  2.4317 -0.8504 -2.3776
   48DOPE  C215 6133   6.509   2.123  15.142  0.3813 -1.0577  0.5196
   48DOPE  H15R 6134   6.472   2.042  15.209 -1.0770 -0.0845  0.9311
   48DOPE  H15S 6135   6.428   2.198  15.133  0.2210 -1.3752 -0.9122
   48DOPE  C216 6136   6.632   2.197  15.205  0.3897  0.3838  0.5527
   48DOPE  H16R 6137   6.669   2.278  15.137  0.0361  0.5977  0.6173
   48DOPE  H16S 6138   6.702   2.111  15.214 -0.1489 -0.1520 -0.2925
   48DOPE  C217 6139   6.586   2.267  15.339  0.6891 -0.2449  0.1449
   48DOPE  H17R 6140   6.533   2.188  15.397  1.1307  0.0764  0.9996
   48DOPE  H17S 6141   6.502   2.339  15.327 -0.8204 -1.8167  0.7980
   48DOPE  C218 6142   6.704   2.327  15.409 -0.4577  0.1956 -0.3019
   48DOPE  H18R 6143   6.777   2.248  15.437  1.0069  0.9592 -1.8251
   48DOPE  H18S 6144   6.672   2.377  15.503 -1.3129  1.1715 -1.0847
   48DOPE  H18T 6145   6.754   2.412  15.358  0.6991  0.5365  1.3303
   48DOPE   C33 6146   5.982   1.690  13.813  0.8284 -0.1130  0.3935
   48DOPE   H3X 6147   6.046   1.602  13.835  1.3117 -0.1222 -0.9625
   48DOPE   H3Y 6148   5.925   1.663  13.721  0.5004  2.1564 -0.1328
   48DOPE   C34 6149   5.880   1.707  13.935 -0.3515 -0.1185  0.3948
   48DOPE   H4X 6150   5.855   1.602  13.961  1.4922 -0.8713 -0.6797
   48DOPE   H4Y 6151   5.930   1.750  14.024 -0.6136  1.7833 -0.3410
   48DOPE   C35 6152   5.748   1.772  13.897 -0.0510  0.4038  0.6092
   48DOPE   H5X 6153   5.725   1.734  13.795 -0.8295 -0.0162  0.9260
   48DOPE   H5Y 6154   5.758   1.882  13.890 -0.7221  0.3668 -2.6057
   48DOPE   C36 6155   5.646   1.715  13.999 -0.4389  0.6891 -0.2348
   48DOPE   H6X 6156   5.694   1.737  14.096 -0.2996 -2.2076  0.4506
   48DOPE   H6Y 6157   5.629   1.606  13.988 -1.3398  0.6117  1.5513
   48DOPE   C37 6158   5.501   1.767  14.003 -0.3689 -0.0867 -0.5473
   48DOPE   H7X 6159   5.443   1.704  14.074 -1.1188  0.5685 -0.5579
   48DOPE   H7Y 6160   5.512   1.866  14.052  0.3064  0.6450 -2.1013
   48DOPE   C38 6161   5.421   1.775  13.874  0.2713  0.1299 -0.1695
   48DOPE   H8X 6162   5.465   1.851  13.806  0.9934  0.8076  0.9972
   48DOPE   H8Y 6163   5.318   1.809  13.895  0.2295  1.7198 -2.5543
   48DOPE   C39 6164   5.423   1.648  13.796 -0.6890  0.0462  1.0288
   48DOPE   H9X 6165   5.502   1.651  13.720 -0.0016 -1.8523  1.6142
   48DOPE  C310 6166   5.342   1.542  13.780 -0.4838 -0.9006  0.2673
   48DOPE  H10X 6167   5.363   1.465  13.705 -2.4401  1.0061 -2.4293
   48DOPE  C311 6168   5.219   1.522  13.858  0.3321 -0.8480 -0.7733
   48DOPE  H11X 6169   5.161   1.607  13.902 -0.3027 -1.8657  0.4193
   48DOPE  H11Y 6170   5.137   1.485  13.792  0.4676 -0.2999 -1.2678
   48DOPE  C312 6171   5.242   1.409  13.967 -0.5194  0.5247 -0.2662
   48DOPE  H12X 6172   5.323   1.434  14.039  0.3171 -1.3353 -0.4991
   48DOPE  H12Y 6173   5.266   1.313  13.915 -2.1081 -0.7404  1.2486
   48DOPE  C313 6174   5.114   1.392  14.043  0.2779  0.1502  0.5923
   48DOPE  H13X 6175   5.078   1.494  14.071  0.0421 -0.2554  1.8046
   48DOPE  H13Y 6176   5.044   1.341  13.974  0.2597  1.2342 -0.2221
   48DOPE  C314 6177   5.135   1.311  14.174  0.2030  0.7173 -0.7578
   48DOPE  H14X 6178   5.207   1.363  14.241 -0.1068  0.8948 -0.5593
   48DOPE  H14Y 6179   5.193   1.220  14.145  2.7921  0.8943  3.1301
   48DOPE  C315 6180   5.002   1.278  14.249 -0.4816  0.5986  0.0602
   48DOPE  H15X 6181   4.939   1.210  14.188 -2.0260  2.2151 -0.2441
   48DOPE  H15Y 6182   4.942   1.368  14.273 -1.6482 -0.0073 -0.4758
   48DOPE  C316 6183   5.030   1.214  14.381  0.2344  0.3937 -0.9968
   48DOPE  H16X 6184   5.073   1.296  14.441  1.9890 -0.0875 -1.5527
   48DOPE  H16Y 6185   5.111   1.138  14.375  1.6089  1.7365 -0.1361
   48DOPE  C317 6186   4.903   1.155  14.438 -0.4409  0.1454  0.1726
   48DOPE  H17X 6187   4.814   1.220  14.423 -0.4469 -0.2326 -1.6699
   48DOPE  H17Y 6188   4.873   1.070  14.372 -0.0198 -0.0909  0.2791
   48DOPE  C318 6189   4.909   1.106  14.583 -0.6629 -0.0293  0.2742
   48DOPE  H18X 6190   4.818   1.046  14.607 -0.2936 -0.0912  1.6256
   48DOPE  H18Y 6191   4.999   1.043  14.603 -2.0100 -2.6986 -1.4289
   48DOPE  H18Z 6192   4.905   1.189  14.657  0.1225  0.6854 -0.4667
   49DOPE     N 6193   2.283   6.749  13.093  0.3042  0.1455 -0.6107
   49DOPE   HN1 6194   2.385   6.733  13.100  0.3809  1.1611  1.8909
   49DOPE   HN2 6195   2.274   6.834  13.033  0.4003 -0.8862 -2.1318
   49DOPE   HN3 6196   2.245   6.766  13.189  0.0920  0.1752 -0.6975
   49DOPE   C12 6197   2.234   6.620  13.028  1.1805  0.2709 -0.3605
   49DOPE  H12A 6198   2.124   6.634  13.022  0.7348 -1.6383  1.6330
   49DOPE  H12B 6199   2.250   6.539  13.103 -1.9423  0.4058  0.6277
   49DOPE   C11 6200   2.295   6.611  12.884 -0.1816 -0.2005 -0.3848
   49DOPE  H11A 6201   2.268   6.700  12.822  2.8151  0.7064 -0.5248
   49DOPE  H11B 6202   2.246   6.518  12.849 -0.5493 -1.5449  3.3413
   49DOPE     P 6203   2.510   6.528  12.754  0.1825 -0.2538 -0.1426
   49DOPE   O13 6204   2.481   6.627  12.647  0.5837 -0.5412  0.7530
   49DOPE   O14 6205   2.462   6.391  12.729  0.0709 -0.1043 -0.2743
   49DOPE   O11 6206   2.664   6.527  12.784  0.2222 -0.0404 -0.0467
   49DOPE   O12 6207   2.439   6.596  12.882 -0.4221 -0.3501  0.1548
   49DOPE    C1 6208   2.709   6.586  12.908 -0.0707  0.7690  0.0273
   49DOPE    HA 6209   2.673   6.690  12.921 -1.3848  0.4690 -1.0289
   49DOPE    HB 6210   2.820   6.595  12.901  0.2693  0.2742  3.1079
   49DOPE    C2 6211   2.694   6.492  13.034  0.2524  0.6802  0.3529
   49DOPE    HS 6212   2.584   6.472  13.040  0.7434 -2.2099  1.0430
   49DOPE   O21 6213   2.730   6.565  13.150 -0.5043  0.2574 -0.1821
   49DOPE   C21 6214   2.648   6.667  13.179 -0.8340  0.0147  0.1667
   49DOPE   O22 6215   2.536   6.680  13.133 -0.3728  0.2291  0.6685
   49DOPE   C22 6216   2.717   6.777  13.262 -0.5523  0.3204  0.3267
   49DOPE   H2R 6217   2.679   6.871  13.218  0.6157  0.2119 -0.9833
   49DOPE   H2S 6218   2.824   6.778  13.233  0.1647 -0.7947  2.7212
   49DOPE    C3 6219   2.773   6.359  13.012  0.6498 -0.1355 -0.0060
   49DOPE    HX 6220   2.882   6.380  13.013  0.5435  0.7148 -2.1009
   49DOPE    HY 6221   2.748   6.327  12.908  0.7080 -1.1568  0.2779
   49DOPE   O31 6222   2.742   6.262  13.107 -0.0151  0.1909 -0.8249
   49DOPE   C31 6223   2.831   6.164  13.123  0.5644 -0.3153 -0.2015
   49DOPE   O32 6224   2.937   6.147  13.065  0.0257  0.0289 -0.5510
   49DOPE   C32 6225   2.774   6.087  13.234 -1.0658  1.1340 -0.4587
   49DOPE   H2X 6226   2.720   6.153  13.305 -2.4310 -1.0722  0.6509
   49DOPE   H2Y 6227   2.700   6.020  13.186  1.5323 -0.1306 -3.0550
   49DOPE   C23 6228   2.689   6.764  13.412 -0.2357 -0.2292  0.1195
   49DOPE   H3R 6229   2.728   6.673  13.461 -1.3246  0.5989  2.6841
   49DOPE   H3S 6230   2.579   6.759  13.427 -0.0991 -0.4996  1.0636
   49DOPE   C24 6231   2.731   6.886  13.492 -0.2671 -0.3625 -0.0747
   49DOPE   H4R 6232   2.737   6.978  13.429  0.0375  1.1490  2.0545
   49DOPE   H4S 6233   2.829   6.862  13.539  0.1279  0.5741 -0.3970
   49DOPE   C25 6234   2.653   6.938  13.615  0.3323  0.0178 -0.6806
   49DOPE   H5R 6235   2.660   6.850  13.684  2.8516  0.3224 -0.4599
   49DOPE   H5S 6236   2.548   6.955  13.582  0.4746 -1.7609 -2.1937
   49DOPE   C26 6237   2.710   7.064  13.686  0.3968 -0.8045 -0.2611
   49DOPE   H6R 6238   2.801   7.040  13.744  0.4953 -1.7380 -0.7927
   49DOPE   H6S 6239   2.629   7.081  13.760  0.6823 -0.0682 -0.1076
   49DOPE   C27 6240   2.733   7.189  13.602 -0.3699  0.2900 -0.1171
   49DOPE   H7R 6241   2.647   7.209  13.535  0.2488  0.2986 -0.9284
   49DOPE   H7S 6242   2.817   7.161  13.535 -0.9295  1.6237 -1.4362
   49DOPE   C28 6243   2.759   7.319  13.688  0.2220  0.3723  0.4722
   49DOPE   H8R 6244   2.660   7.343  13.732 -1.1631 -0.5477 -1.9769
   49DOPE   H8S 6245   2.791   7.398  13.616  1.4224 -0.6122 -0.0954
   49DOPE   C29 6246   2.866   7.307  13.793  0.3414 -0.2955 -0.6528
   49DOPE   H9R 6247   2.967   7.323  13.752  1.5330  1.6117  2.6916
   49DOPE  C210 6248   2.852   7.300  13.927 -0.2202 -0.0845 -0.3549
   49DOPE  H10R 6249   2.940   7.289  13.993  1.3036  2.1841 -1.8411
   49DOPE  C211 6250   2.720   7.294  13.999 -0.4755 -0.1965  0.0628
   49DOPE  H11R 6251   2.668   7.198  13.978 -0.9384 -0.4153  2.0450
   49DOPE  H11S 6252   2.651   7.368  13.953 -0.8120 -2.0206 -2.6052
   49DOPE  C212 6253   2.731   7.302  14.152  0.7579 -0.4058 -0.4283
   49DOPE  H12R 6254   2.631   7.303  14.203  0.9732  1.5757  0.0487
   49DOPE  H12S 6255   2.773   7.403  14.170 -0.3861 -0.0611  0.5390
   49DOPE  C213 6256   2.827   7.215  14.224  0.0132  0.8662 -0.4380
   49DOPE  H13R 6257   2.930   7.218  14.182  0.1702  0.8366 -0.0587
   49DOPE  H13S 6258   2.797   7.108  14.216 -1.0191  1.0845  0.2251
   49DOPE  C214 6259   2.832   7.255  14.372  0.4300 -0.0473  0.6617
   49DOPE  H14R 6260   2.727   7.248  14.409 -0.4710  0.2124 -1.6972
   49DOPE  H14S 6261   2.868   7.360  14.359  0.1927 -0.2926 -2.9481
   49DOPE  C215 6262   2.918   7.176  14.472  0.1689 -0.1543 -0.2716
   49DOPE  H15R 6263   2.915   7.242  14.561 -2.4735 -1.2323  0.5409
   49DOPE  H15S 6264   3.020   7.179  14.427  0.0794 -0.2035 -0.4781
   49DOPE  C216 6265   2.899   7.031  14.498  0.3086  0.3021  0.0017
   49DOPE  H16R 6266   2.970   6.996  14.576 -0.2233  0.3396  0.5094
   49DOPE  H16S 6267   2.921   6.979  14.403  2.8314  0.5412  0.3794
   49DOPE  C217 6268   2.759   6.991  14.539  0.5569  0.1947 -0.5583
   49DOPE  H17R 6269   2.679   7.021  14.468  0.1187 -2.1509 -1.1552
   49DOPE  H17S 6270   2.722   7.041  14.631 -1.0297  1.8103 -2.0032
   49DOPE  C218 6271   2.758   6.840  14.560 -0.1974  0.5524  0.2248
   49DOPE  H18R 6272   2.668   6.803  14.614  0.7010  1.2041  2.2767
   49DOPE  H18S 6273   2.832   6.805  14.635 -0.3796 -1.9080 -0.6551
   49DOPE  H18T 6274   2.771   6.801  14.457 -0.3595  0.3756  0.2689
   49DOPE   C33 6275   2.872   5.988  13.310 -0.0782  0.6094  0.8326
   49DOPE   H3X 6276   2.955   6.043  13.358 -0.7355  1.1966  1.3139
   49DOPE   H3Y 6277   2.928   5.932  13.232  0.6737  0.0900  1.7187
   49DOPE   C34 6278   2.792   5.891  13.398  0.2000  0.4113 -0.5890
   49DOPE   H4X 6279   2.706   5.856  13.336 -1.4042 -1.3139  2.4132
   49DOPE   H4Y 6280   2.859   5.807  13.424 -0.6423  0.2350  1.1176
   49DOPE   C35 6281   2.736   5.944  13.534  0.1755 -0.0195  0.0085
   49DOPE   H5X 6282   2.677   6.035  13.509  1.7889  0.3736 -2.8463
   49DOPE   H5Y 6283   2.827   5.975  13.589  0.6970 -2.8656  0.9054
   49DOPE   C36 6284   2.654   5.839  13.608 -0.0248  0.0467 -0.1518
   49DOPE   H6X 6285   2.713   5.745  13.613  0.4913  0.2985 -1.2642
   49DOPE   H6Y 6286   2.560   5.814  13.554  0.9687 -2.0649 -1.0420
   49DOPE   C37 6287   2.633   5.887  13.751  0.4155 -0.2637  0.4985
   49DOPE   H7X 6288   2.728   5.936  13.780  0.4157  1.7892 -2.4852
   49DOPE   H7Y 6289   2.565   5.974  13.749 -0.2521 -0.6756  2.5723
   49DOPE   C38 6290   2.586   5.778  13.844  0.2808 -0.8753  0.2963
   49DOPE   H8X 6291   2.481   5.750  13.822 -0.0708  0.1628  0.6272
   49DOPE   H8Y 6292   2.580   5.812  13.949  1.2800  0.6982 -0.1175
   49DOPE   C39 6293   2.679   5.664  13.857 -1.2331  0.5288 -0.3245
   49DOPE   H9X 6294   2.654   5.577  13.794 -0.4622  0.2863 -0.3126
   49DOPE  C310 6295   2.787   5.658  13.938 -1.2572  0.4864  0.3068
   49DOPE  H10X 6296   2.846   5.566  13.923  0.9231  2.0726 -1.4699
   49DOPE  C311 6297   2.837   5.767  14.031 -0.1491  0.0627 -0.0728
   49DOPE  H11X 6298   2.943   5.794  14.011  0.1080 -1.5227 -1.0700
   49DOPE  H11Y 6299   2.780   5.860  14.011 -1.7784 -0.4315  1.8893
   49DOPE  C312 6300   2.816   5.735  14.189  0.5279  0.3789  0.1467
   49DOPE  H12X 6301   2.876   5.646  14.216 -1.8593 -1.3980 -0.0225
   49DOPE  H12Y 6302   2.707   5.717  14.197  0.5702  0.6113  1.5387
   49DOPE  C313 6303   2.842   5.859  14.274  1.1192 -0.4211  0.5003
   49DOPE  H13X 6304   2.948   5.888  14.257  2.3779 -4.4133  0.4105
   49DOPE  H13Y 6305   2.779   5.944  14.242  1.2086 -0.2794  0.6999
   49DOPE  C314 6306   2.811   5.845  14.427 -0.3516 -0.0254  0.7714
   49DOPE  H14X 6307   2.819   5.738  14.458  0.3323 -1.0887 -2.6456
   49DOPE  H14Y 6308   2.706   5.876  14.441 -1.0836 -0.1966 -3.3272
   49DOPE  C315 6309   2.905   5.923  14.516 -0.3272 -0.2754  0.2417
   49DOPE  H15X 6310   2.862   6.023  14.541 -1.5496 -0.9005  0.7439
   49DOPE  H15Y 6311   3.000   5.948  14.465  1.4113 -0.0763  3.3110
   49DOPE  C316 6312   2.952   5.866  14.652  0.1508 -0.3538  0.3785
   49DOPE  H16X 6313   3.004   5.777  14.611  3.0300  0.8601  1.1027
   49DOPE  H16Y 6314   2.865   5.828  14.710  0.3157 -3.2174 -1.1026
   49DOPE  C317 6315   3.049   5.960  14.727  0.2030  0.2240 -0.2675
   49DOPE  H17X 6316   3.140   5.969  14.664 -1.0626  2.3027 -1.9612
   49DOPE  H17Y 6317   3.009   6.064  14.736  0.0850  0.1139  0.5435
   49DOPE  C318 6318   3.093   5.922  14.866 -0.0196 -0.0573 -0.4496
   49DOPE  H18X 6319   3.151   5.827  14.868  0.5867  0.2373 -2.5699
   49DOPE  H18Y 6320   3.163   5.997  14.908  1.2193 -1.7139  0.5494
   49DOPE  H18Z 6321   3.012   5.927  14.942  1.6163  0.4060  1.3496
   50DOPE     N 6322   2.026   5.104  13.206 -0.2521  0.1069  0.1445
   50DOPE   HN1 6323   2.127   5.087  13.189 -0.0128  1.4469  0.1490
   50DOPE   HN2 6324   1.979   5.014  13.227  0.9483 -0.9902 -1.6084
   50DOPE   HN3 6325   1.978   5.147  13.124 -0.4013 -0.4670 -0.0723
   50DOPE   C12 6326   2.021   5.193  13.319  0.6690 -0.4329  0.2778
   50DOPE  H12A 6327   2.050   5.298  13.296  1.4747  0.2774  3.9052
   50DOPE  H12B 6328   2.083   5.153  13.402  1.4119  0.4184  0.1436
   50DOPE   C11 6329   1.877   5.205  13.368  0.5687 -0.1975 -0.5472
   50DOPE  H11A 6330   1.888   5.261  13.463  0.1817  1.6458 -1.5267
   50DOPE  H11B 6331   1.836   5.103  13.379 -1.6855  0.6052 -0.8648
   50DOPE     P 6332   1.691   5.382  13.289 -0.1446  0.1856 -0.2882
   50DOPE   O13 6333   1.569   5.340  13.221  0.0941  0.3345  0.2877
   50DOPE   O14 6334   1.752   5.513  13.260 -0.4244 -0.2882 -0.7323
   50DOPE   O11 6335   1.680   5.362  13.449  0.5688  0.1424  0.0760
   50DOPE   O12 6336   1.801   5.274  13.265 -0.5024  0.3052  0.2324
   50DOPE    C1 6337   1.577   5.438  13.518 -0.1473  0.1248 -0.3967
   50DOPE    HA 6338   1.554   5.540  13.480 -2.9564  0.1950  1.1906
   50DOPE    HB 6339   1.599   5.456  13.625 -1.4042  0.3785 -0.1587
   50DOPE    C2 6340   1.444   5.364  13.537 -0.2087 -0.1417  0.1256
   50DOPE    HS 6341   1.402   5.359  13.434 -0.8132  1.1885  0.2861
   50DOPE   O21 6342   1.357   5.437  13.632 -0.2617  0.6792  0.7062
   50DOPE   C21 6343   1.228   5.445  13.604  0.2831 -0.4070  0.0476
   50DOPE   O22 6344   1.174   5.392  13.511  0.1997  0.3500  0.3441
   50DOPE   C22 6345   1.160   5.509  13.718 -0.9498  0.3224  0.4281
   50DOPE   H2R 6346   1.187   5.617  13.713 -1.6956  0.4852 -0.2944
   50DOPE   H2S 6347   1.191   5.472  13.818  0.2352 -0.5678 -0.2496
   50DOPE    C3 6348   1.474   5.232  13.612  1.0608  0.3278 -0.6653
   50DOPE    HX 6349   1.540   5.256  13.698 -1.8994 -2.1778  2.5890
   50DOPE    HY 6350   1.534   5.176  13.537  1.2349  2.3002 -2.0750
   50DOPE   O31 6351   1.359   5.159  13.664 -0.2930 -0.0617 -0.3406
   50DOPE   C31 6352   1.299   5.083  13.566 -0.2918 -0.2103 -0.5199
   50DOPE   O32 6353   1.323   5.092  13.448 -0.1958 -0.0652 -0.1329
   50DOPE   C32 6354   1.201   4.981  13.628  0.4533 -0.3793 -0.1719
   50DOPE   H2X 6355   1.262   4.930  13.707 -1.4285 -2.9008 -0.2102
   50DOPE   H2Y 6356   1.120   5.040  13.676  1.1253  1.0090 -0.6942
   50DOPE   C23 6357   1.007   5.510  13.697  0.4236  0.4093 -0.2188
   50DOPE   H3R 6358   0.988   5.514  13.587  1.5397 -2.1021 -0.5810
   50DOPE   H3S 6359   0.964   5.600  13.745 -2.7308 -0.6977 -0.7241
   50DOPE   C24 6360   0.939   5.388  13.757  0.0184 -0.3107 -0.3588
   50DOPE   H4R 6361   0.981   5.296  13.712  0.6249  0.3983 -1.2960
   50DOPE   H4S 6362   0.831   5.376  13.737  0.2150 -4.7447  0.3013
   50DOPE   C25 6363   0.953   5.382  13.905  0.3925  0.1537 -0.9010
   50DOPE   H5R 6364   0.926   5.480  13.950 -0.2743 -0.6232  0.4685
   50DOPE   H5S 6365   1.058   5.362  13.935  0.2388  0.3907 -0.1866
   50DOPE   C26 6366   0.870   5.284  13.992 -0.1780 -0.8338  0.8230
   50DOPE   H6R 6367   0.767   5.318  13.970 -0.6587 -2.1585  0.9422
   50DOPE   H6S 6368   0.889   5.300  14.100 -1.0768  0.6066  0.7855
   50DOPE   C27 6369   0.889   5.139  13.949 -0.0375 -0.4157  0.0175
   50DOPE   H7R 6370   0.986   5.094  13.980  0.1928  0.4510  0.5966
   50DOPE   H7S 6371   0.876   5.142  13.839  0.2768  2.6602 -0.0275
   50DOPE   C28 6372   0.778   5.060  14.013  1.0877 -0.1588 -0.6064
   50DOPE   H8R 6373   0.676   5.094  13.985  0.7126 -1.4891 -0.9635
   50DOPE   H8S 6374   0.782   5.090  14.120  1.7348  2.5389 -1.3314
   50DOPE   C29 6375   0.780   4.910  13.992  0.0767 -0.3423  0.2545
   50DOPE   H9R 6376   0.774   4.879  13.887 -0.6150 -3.7574  1.1767
   50DOPE  C210 6377   0.799   4.811  14.074 -0.2001  0.1165 -0.3098
   50DOPE  H10R 6378   0.796   4.708  14.036 -0.0827  1.1861 -3.4722
   50DOPE  C211 6379   0.800   4.813  14.232 -0.7164 -0.3182  0.2300
   50DOPE  H11R 6380   0.754   4.905  14.274 -2.2382  0.2645 -2.4645
   50DOPE  H11S 6381   0.906   4.800  14.263 -0.9781 -1.9393  0.4897
   50DOPE  C212 6382   0.722   4.689  14.276 -0.4008 -0.7165 -0.2452
   50DOPE  H12R 6383   0.769   4.594  14.241  1.5263  0.4151 -0.8673
   50DOPE  H12S 6384   0.618   4.699  14.240 -0.2074  0.5097 -0.5065
   50DOPE  C213 6385   0.695   4.669  14.430  0.4608 -0.1761  0.1761
   50DOPE  H13R 6386   0.674   4.770  14.471 -1.5161  0.1272 -1.4563
   50DOPE  H13S 6387   0.782   4.622  14.482  0.0372 -1.2074 -0.0242
   50DOPE  C214 6388   0.565   4.598  14.457 -0.1075  0.0476 -0.0023
   50DOPE  H14R 6389   0.548   4.512  14.389  1.3125 -1.5503  1.5744
   50DOPE  H14S 6390   0.485   4.668  14.424  2.0846  2.0264 -1.3714
   50DOPE  C215 6391   0.554   4.526  14.594  0.2458  0.5663  0.3895
   50DOPE  H15R 6392   0.575   4.598  14.676  0.7384 -1.1759  1.8543
   50DOPE  H15S 6393   0.632   4.446  14.596  0.0999  0.4280  0.5227
   50DOPE  C216 6394   0.420   4.459  14.641  0.0598  0.2087 -0.8258
   50DOPE  H16R 6395   0.413   4.432  14.749 -2.0873 -1.8167 -1.3811
   50DOPE  H16S 6396   0.400   4.373  14.574  1.0784 -2.5789  2.1887
   50DOPE  C217 6397   0.292   4.553  14.624 -1.3179 -0.2889 -0.6828
   50DOPE  H17R 6398   0.208   4.491  14.662 -0.9906 -0.9071 -0.9422
   50DOPE  H17S 6399   0.279   4.581  14.517  1.1720  1.6206 -0.5869
   50DOPE  C218 6400   0.287   4.681  14.704 -0.3182 -0.3167  0.3626
   50DOPE  H18R 6401   0.200   4.744  14.676  0.0276  0.9530  2.0140
   50DOPE  H18S 6402   0.381   4.728  14.666 -0.6525  0.8008  0.8830
   50DOPE  H18T 6403   0.296   4.676  14.815  1.0683 -0.7856  0.2559
   50DOPE   C33 6404   1.146   4.877  13.525 -0.5137  0.0481  0.5605
   50DOPE   H3X 6405   1.227   4.847  13.456 -0.5159  0.5492  0.3387
   50DOPE   H3Y 6406   1.060   4.918  13.468 -0.4145  1.2332  1.2278
   50DOPE   C34 6407   1.105   4.747  13.601  0.1094 -0.2464  0.2306
   50DOPE   H4X 6408   1.051   4.774  13.694 -0.5612  0.2954 -0.3056
   50DOPE   H4Y 6409   1.035   4.701  13.527  0.1015 -0.5324  0.4151
   50DOPE   C35 6410   1.224   4.658  13.644 -0.3590 -0.0112  0.2043
   50DOPE   H5X 6411   1.295   4.707  13.713  0.4937 -1.3557  0.3270
   50DOPE   H5Y 6412   1.287   4.636  13.555 -0.1769  1.0143  0.0617
   50DOPE   C36 6413   1.189   4.524  13.719 -0.6890  0.2109 -0.1810
   50DOPE   H6X 6414   1.283   4.485  13.764  0.9833  1.6369 -2.2281
   50DOPE   H6Y 6415   1.147   4.452  13.646  1.8650 -0.2767 -1.2549
   50DOPE   C37 6416   1.094   4.552  13.832 -0.1828 -0.0548 -0.2619
   50DOPE   H7X 6417   1.152   4.615  13.903  0.4210 -1.5048  0.5698
   50DOPE   H7Y 6418   1.001   4.602  13.798 -0.5118  0.0754  0.7908
   50DOPE   C38 6419   1.058   4.427  13.922 -1.0043 -0.4740  0.0404
   50DOPE   H8X 6420   1.012   4.471  14.012  1.1771  1.6667  0.1995
   50DOPE   H8Y 6421   1.151   4.377  13.957  0.0917  0.8154 -0.9389
   50DOPE   C39 6422   0.966   4.330  13.849 -0.0408 -0.9203 -0.2664
   50DOPE   H9X 6423   0.896   4.371  13.775 -0.1315 -0.9424 -0.1931
   50DOPE  C310 6424   0.966   4.197  13.861  0.4933 -0.0543 -0.7559
   50DOPE  H10X 6425   0.898   4.139  13.797  0.4191  0.7860 -1.4538
   50DOPE  C311 6426   1.071   4.121  13.934 -0.1967 -0.3774 -0.7145
   50DOPE  H11X 6427   1.148   4.084  13.863 -0.4502  0.4347 -1.4327
   50DOPE  H11Y 6428   1.144   4.184  13.990  0.6571 -1.6515 -0.3529
   50DOPE  C312 6429   1.014   4.004  14.014  0.3531 -0.2547  0.3745
   50DOPE  H12X 6430   1.103   3.949  14.052  0.7118  0.2576  0.2839
   50DOPE  H12Y 6431   0.954   3.941  13.946 -3.4301  1.0079  2.2141
   50DOPE  C313 6432   0.929   4.052  14.132  0.8177 -0.0895 -0.0502
   50DOPE  H13X 6433   0.993   4.104  14.206 -1.2724  1.0024  1.0601
   50DOPE  H13Y 6434   0.859   4.127  14.091  1.1798  1.7811  2.5141
   50DOPE  C314 6435   0.849   3.936  14.198  0.0496  0.5429  0.5903
   50DOPE  H14X 6436   0.923   3.867  14.242  0.5193  0.9794  0.5011
   50DOPE  H14Y 6437   0.798   3.874  14.121  0.8414 -0.1379  0.5936
   50DOPE  C315 6438   0.747   3.980  14.294  0.1893  0.4613  0.3271
   50DOPE  H15X 6439   0.652   4.008  14.243 -0.0211 -0.7123  0.0512
   50DOPE  H15Y 6440   0.790   4.068  14.347  0.7462  0.1279  0.4271
   50DOPE  C316 6441   0.723   3.872  14.397  0.1971  0.5888  0.0552
   50DOPE  H16X 6442   0.648   3.905  14.472 -1.0336  0.7770 -1.2014
   50DOPE  H16Y 6443   0.814   3.861  14.459  0.2321  2.4236  0.3794
   50DOPE  C317 6444   0.669   3.746  14.328  0.1510 -0.5133  0.1333
   50DOPE  H17X 6445   0.592   3.784  14.257  1.8643  3.3518  0.0426
   50DOPE  H17Y 6446   0.741   3.695  14.261 -0.3518 -0.8482 -0.1602
   50DOPE  C318 6447   0.603   3.643  14.421  0.8463  0.3043  0.4994
   50DOPE  H18X 6448   0.565   3.564  14.352 -2.5182  0.3178  2.0985
   50DOPE  H18Y 6449   0.673   3.603  14.497 -0.5626 -3.1349  0.1921
   50DOPE  H18Z 6450   0.512   3.681  14.472  0.0082 -0.6872 -0.2096
   51DOPE     N 6451   4.593   5.682  12.373 -0.2882 -0.3762 -0.3502
   51DOPE   HN1 6452   4.548   5.600  12.420 -0.6614 -0.1893 -0.3726
   51DOPE   HN2 6453   4.520   5.756  12.370  1.0998  1.0210 -2.5746
   51DOPE   HN3 6454   4.610   5.656  12.274  2.7001  0.1271 -0.0539
   51DOPE   C12 6455   4.714   5.725  12.450  1.2015  0.1489 -0.2179
   51DOPE  H12A 6456   4.740   5.822  12.404  2.3311  0.4248  0.9611
   51DOPE  H12B 6457   4.791   5.647  12.430 -0.0106 -0.8078 -1.4129
   51DOPE   C11 6458   4.683   5.738  12.599 -1.3005 -0.6618  0.4014
   51DOPE  H11A 6459   4.607   5.818  12.610 -3.6876 -2.7712  0.1742
   51DOPE  H11B 6460   4.776   5.764  12.655  0.6539 -1.5401 -2.2169
   51DOPE     P 6461   4.544   5.626  12.792  0.5010 -0.3000 -0.1954
   51DOPE   O13 6462   4.597   5.523  12.883 -0.3755 -0.2165  0.3777
   51DOPE   O14 6463   4.402   5.609  12.752 -0.0819 -0.1835  0.0860
   51DOPE   O11 6464   4.576   5.767  12.843 -0.6962 -0.0420 -0.2704
   51DOPE   O12 6465   4.633   5.617  12.659  0.0310  0.1838  0.3310
   51DOPE    C1 6466   4.675   5.797  12.942  0.4086  0.7149  0.7379
   51DOPE    HA 6467   4.687   5.906  12.925 -2.3496  0.7671 -1.5762
   51DOPE    HB 6468   4.777   5.758  12.920  0.9408  2.0351  0.7469
   51DOPE    C2 6469   4.634   5.785  13.091 -0.1775 -0.1860 -0.0484
   51DOPE    HS 6470   4.619   5.676  13.111 -1.1248  0.3631  2.6918
   51DOPE   O21 6471   4.516   5.868  13.115 -0.2585 -0.0792  0.5283
   51DOPE   C21 6472   4.419   5.809  13.170  0.2305  0.0597 -0.8971
   51DOPE   O22 6473   4.409   5.692  13.200  0.0817  0.0065 -0.2839
   51DOPE   C22 6474   4.310   5.914  13.202  0.2569 -0.0773  0.0354
   51DOPE   H2R 6475   4.215   5.865  13.231 -0.2640 -0.3900 -2.0144
   51DOPE   H2S 6476   4.291   5.970  13.107 -0.2438  1.0614  0.7894
   51DOPE    C3 6477   4.755   5.832  13.186  0.4631 -0.5902  0.5904
   51DOPE    HX 6478   4.775   5.938  13.158 -0.7726 -0.5078 -0.0563
   51DOPE    HY 6479   4.840   5.763  13.167 -0.5581 -1.4370 -1.1439
   51DOPE   O31 6480   4.712   5.830  13.322 -0.7225 -0.0423  0.2916
   51DOPE   C31 6481   4.773   5.915  13.402  0.8557 -0.0698 -0.5264
   51DOPE   O32 6482   4.863   5.992  13.376 -0.4139  0.0177 -0.2928
   51DOPE   C32 6483   4.703   5.894  13.536 -1.1366  0.7204 -0.0626
   51DOPE   H2X 6484   4.596   5.871  13.513 -0.5095 -2.0021 -0.6360
   51DOPE   H2Y 6485   4.761   5.809  13.578  1.7226  3.3700  1.6872
   51DOPE   C23 6486   4.348   6.012  13.325  0.1345  0.5044  0.3339
   51DOPE   H3R 6487   4.291   6.106  13.305  0.1001 -0.1697 -3.5905
   51DOPE   H3S 6488   4.459   6.012  13.323  0.1914 -2.1098 -1.4984
   51DOPE   C24 6489   4.311   5.964  13.463 -0.5612 -0.5097  0.0929
   51DOPE   H4R 6490   4.386   5.892  13.502  1.6932  2.5388  1.8657
   51DOPE   H4S 6491   4.212   5.915  13.449 -1.9662  2.2185 -0.1122
   51DOPE   C25 6492   4.319   6.085  13.562  0.1019 -0.1471 -1.2534
   51DOPE   H5R 6493   4.279   6.176  13.513  0.3064 -0.4930 -2.0888
   51DOPE   H5S 6494   4.425   6.113  13.581 -0.4397  2.1177 -1.2773
   51DOPE   C26 6495   4.241   6.072  13.701  0.4430  0.5445  0.3088
   51DOPE   H6R 6496   4.275   5.981  13.756  3.0651  1.5820  0.5530
   51DOPE   H6S 6497   4.131   6.065  13.688  0.3980  1.3291  0.2392
   51DOPE   C27 6498   4.267   6.198  13.790  0.4234 -0.1027 -0.5652
   51DOPE   H7R 6499   4.208   6.276  13.738 -0.0919 -0.9590 -1.2954
   51DOPE   H7S 6500   4.377   6.196  13.771  0.6958 -1.2772  0.9396
   51DOPE   C28 6501   4.247   6.182  13.937  0.3694 -0.5612  0.0372
   51DOPE   H8R 6502   4.300   6.264  13.989 -1.2612  0.6488 -0.1571
   51DOPE   H8S 6503   4.301   6.090  13.969  1.6966 -0.9363 -2.9696
   51DOPE   C29 6504   4.098   6.186  13.981 -0.2984  0.2870 -0.1090
   51DOPE   H9R 6505   4.033   6.102  13.951  0.9518 -0.9088  0.4319
   51DOPE  C210 6506   4.038   6.288  14.038 -0.1400 -0.4213 -0.2467
   51DOPE  H10R 6507   3.932   6.278  14.062 -0.7088  2.4896 -1.1476
   51DOPE  C211 6508   4.114   6.410  14.082  0.5983  0.1338 -0.4288
   51DOPE  H11R 6509   4.125   6.487  14.003  2.6138 -0.2842 -0.6145
   51DOPE  H11S 6510   4.212   6.376  14.123 -1.6152 -2.4772  3.3008
   51DOPE  C212 6511   4.049   6.465  14.213  0.7920  0.0921 -0.0131
   51DOPE  H12R 6512   4.121   6.540  14.251 -1.4560  2.7895 -0.7962
   51DOPE  H12S 6513   4.032   6.396  14.298 -0.9212  2.4598  1.6961
   51DOPE  C213 6514   3.924   6.550  14.186 -0.4074  0.1288  0.1924
   51DOPE  H13R 6515   3.845   6.473  14.168 -0.4152  0.4297 -1.1714
   51DOPE  H13S 6516   3.928   6.601  14.087 -2.4283 -0.1948 -0.0962
   51DOPE  C214 6517   3.889   6.649  14.302 -0.1584 -0.1275  0.6166
   51DOPE  H14R 6518   3.797   6.704  14.273  1.1064  0.5216 -2.5671
   51DOPE  H14S 6519   3.968   6.726  14.311 -1.7064  1.4854  1.0843
   51DOPE  C215 6520   3.865   6.581  14.435  0.3060  0.9513  0.0855
   51DOPE  H15R 6521   3.935   6.499  14.463  0.3046  0.1300 -2.0880
   51DOPE  H15S 6522   3.758   6.550  14.433  0.9183 -1.3881  0.1339
   51DOPE  C216 6523   3.872   6.681  14.549  0.4482  0.1314 -0.6394
   51DOPE  H16R 6524   3.804   6.767  14.536  1.9086  1.1752 -1.8431
   51DOPE  H16S 6525   3.973   6.725  14.532  0.8315  0.6184  2.2934
   51DOPE  C217 6526   3.864   6.623  14.691 -0.1869 -0.3017  0.1974
   51DOPE  H17R 6527   3.781   6.549  14.696 -0.6737  0.2293  0.0275
   51DOPE  H17S 6528   3.826   6.706  14.753  0.8922  2.1226 -2.1722
   51DOPE  C218 6529   3.994   6.560  14.741  0.3161  0.5906  0.1752
   51DOPE  H18R 6530   4.001   6.471  14.675 -0.4913  0.7474 -0.1351
   51DOPE  H18S 6531   3.985   6.545  14.851  0.7237  0.8618  0.2495
   51DOPE  H18T 6532   4.087   6.614  14.715  0.9212  0.0182  1.0986
   51DOPE   C33 6533   4.725   6.008  13.630  0.4744  0.2154  0.0517
   51DOPE   H3X 6534   4.667   6.096  13.597 -0.9988 -0.8422 -0.3015
   51DOPE   H3Y 6535   4.832   6.033  13.646  0.6172 -0.2719 -0.0956
   51DOPE   C34 6536   4.683   5.975  13.777 -0.2623  0.9013  0.7889
   51DOPE   H4X 6537   4.581   5.935  13.762 -0.3276  1.7045 -1.1388
   51DOPE   H4Y 6538   4.749   5.895  13.818 -0.8661 -0.3938 -0.6700
   51DOPE   C35 6539   4.681   6.102  13.868  0.1242 -0.2364  0.2757
   51DOPE   H5X 6540   4.614   6.182  13.829  0.3850  0.4833  1.2545
   51DOPE   H5Y 6541   4.787   6.135  13.857  0.0464 -0.8179 -3.5023
   51DOPE   C36 6542   4.635   6.064  14.002  0.1770  0.1654  0.3491
   51DOPE   H6X 6543   4.690   5.970  14.026  0.5806  0.5059  0.7811
   51DOPE   H6Y 6544   4.530   6.029  13.990  0.5159 -0.5350 -0.7206
   51DOPE   C37 6545   4.651   6.184  14.094  0.1928  0.6651  0.2739
   51DOPE   H7X 6546   4.760   6.201  14.075  0.5571 -2.8479 -1.4542
   51DOPE   H7Y 6547   4.586   6.266  14.056 -3.1758 -1.4189  1.1657
   51DOPE   C38 6548   4.616   6.157  14.241 -0.9500 -0.0366  0.2887
   51DOPE   H8X 6549   4.660   6.236  14.306 -0.3208 -0.5776  0.5309
   51DOPE   H8Y 6550   4.675   6.066  14.264  0.9644  1.0007 -0.2807
   51DOPE   C39 6551   4.466   6.138  14.261  0.5528 -0.5971  0.1150
   51DOPE   H9X 6552   4.406   6.073  14.196  1.2714 -0.6701 -0.4962
   51DOPE  C310 6553   4.389   6.210  14.344  0.5596  0.0489 -0.5209
   51DOPE  H10X 6554   4.288   6.168  14.351  0.6777 -0.6225 -2.3256
   51DOPE  C311 6555   4.432   6.320  14.438  0.0514  0.6279  0.7655
   51DOPE  H11X 6556   4.536   6.350  14.416  0.8671 -3.2387 -1.4045
   51DOPE  H11Y 6557   4.365   6.406  14.417 -2.0989 -1.4899 -1.8272
   51DOPE  C312 6558   4.424   6.279  14.589  0.3515 -0.0985  0.2594
   51DOPE  H12X 6559   4.481   6.353  14.649 -0.1796  0.9040 -0.4384
   51DOPE  H12Y 6560   4.491   6.191  14.594 -1.2330 -1.3412  0.5271
   51DOPE  C313 6561   4.289   6.268  14.655  0.1900  0.0212 -0.9978
   51DOPE  H13X 6562   4.226   6.360  14.660  0.8851  0.4629 -0.0864
   51DOPE  H13Y 6563   4.230   6.194  14.597 -1.4461 -0.2107  0.8439
   51DOPE  C314 6564   4.298   6.200  14.796  0.4860  0.6321 -0.4243
   51DOPE  H14X 6565   4.379   6.255  14.848  1.8396 -0.5093 -1.2521
   51DOPE  H14Y 6566   4.340   6.097  14.788 -2.3615 -0.5466 -1.6288
   51DOPE  C315 6567   4.168   6.206  14.877  0.4169 -0.6866  0.0284
   51DOPE  H15X 6568   4.093   6.139  14.830  1.2559 -0.5579 -1.5437
   51DOPE  H15Y 6569   4.125   6.308  14.870 -0.6958 -1.0544  1.1575
   51DOPE  C316 6570   4.174   6.174  15.023 -0.0591  0.7639 -0.6479
   51DOPE  H16X 6571   4.257   6.223  15.077  1.0907 -1.2825 -0.4691
   51DOPE  H16Y 6572   4.192   6.065  15.036 -2.2157  0.5419  1.1604
   51DOPE  C317 6573   4.035   6.193  15.087 -0.0128  0.0500  0.3877
   51DOPE  H17X 6574   3.965   6.138  15.021  3.0293 -1.3167 -1.9294
   51DOPE  H17Y 6575   4.031   6.154  15.191  1.1690 -0.2271  0.3357
   51DOPE  C318 6576   3.984   6.346  15.098 -0.7431  0.0058  1.0874
   51DOPE  H18X 6577   3.880   6.339  15.136 -1.7045  2.0383 -0.9527
   51DOPE  H18Y 6578   4.047   6.404  15.168 -0.0503  0.5486  0.0362
   51DOPE  H18Z 6579   3.983   6.387  14.995  2.1683  1.3275  1.4860
   52DOPE     N 6580   6.324   3.237  13.340  0.3356  0.5185  0.1389
   52DOPE   HN1 6581   6.299   3.337  13.357  4.0596  1.5045  0.5916
   52DOPE   HN2 6582   6.426   3.227  13.323  0.8665  2.7206  1.6175
   52DOPE   HN3 6583   6.271   3.212  13.254  0.6027  2.2491 -0.5719
   52DOPE   C12 6584   6.266   3.151  13.445  0.0138  0.0418  0.3790
   52DOPE  H12A 6585   6.281   3.050  13.402  1.4417  0.6933 -0.7473
   52DOPE  H12B 6586   6.161   3.186  13.455 -0.0794 -0.0500 -0.2538
   52DOPE   C11 6587   6.345   3.156  13.574  0.0902 -0.2952  0.0302
   52DOPE  H11A 6588   6.301   3.098  13.657  0.0217  0.8515  0.8097
   52DOPE  H11B 6589   6.351   3.261  13.608 -0.7956 -0.0733 -0.4562
   52DOPE     P 6590   6.605   3.171  13.614  0.2174 -0.0419  0.2475
   52DOPE   O13 6591   6.621   3.284  13.520 -0.3000  0.1560  0.2449
   52DOPE   O14 6592   6.710   3.068  13.633 -0.2632 -0.0427 -0.0253
   52DOPE   O11 6593   6.550   3.216  13.750  1.0547  0.0401  0.2326
   52DOPE   O12 6594   6.478   3.097  13.556 -0.2758 -0.6199  0.3726
   52DOPE    C1 6595   6.539   3.356  13.787  0.5711 -0.1292 -0.3034
   52DOPE    HA 6596   6.469   3.402  13.714  2.6039 -1.9414 -3.6372
   52DOPE    HB 6597   6.639   3.404  13.773  0.5698  0.3316  1.0981
   52DOPE    C2 6598   6.493   3.371  13.931  0.2787  0.2848 -0.2473
   52DOPE    HS 6599   6.479   3.481  13.945  2.3773  0.5314  0.3086
   52DOPE   O21 6600   6.594   3.334  14.022  0.4697 -0.4628 -0.0061
   52DOPE   C21 6601   6.705   3.398  14.025  0.5749 -0.1126  0.1410
   52DOPE   O22 6602   6.733   3.498  13.957  0.6474  0.3397 -0.4268
   52DOPE   C22 6603   6.800   3.328  14.123  0.0619 -0.4454 -0.1679
   52DOPE   H2R 6604   6.880   3.272  14.070  1.7542  1.9174 -0.2858
   52DOPE   H2S 6605   6.748   3.253  14.187  2.2031 -2.1446 -0.3028
   52DOPE    C3 6606   6.360   3.299  13.956 -0.1134 -0.1422 -0.2152
   52DOPE    HX 6607   6.392   3.194  13.944  3.5679  0.9096 -0.8402
   52DOPE    HY 6608   6.292   3.324  13.872  0.7772 -3.2576 -2.0060
   52DOPE   O31 6609   6.311   3.335  14.085 -0.2038 -0.4208 -0.0788
   52DOPE   C31 6610   6.195   3.271  14.106  0.8723  0.1646  0.6172
   52DOPE   O32 6611   6.133   3.204  14.028  0.1020 -0.5814  0.5685
   52DOPE   C32 6612   6.162   3.284  14.252  0.1359 -0.0723 -0.0741
   52DOPE   H2X 6613   6.257   3.261  14.304 -0.1584  0.6604  0.8178
   52DOPE   H2Y 6614   6.140   3.390  14.275  1.6313  0.3691 -0.5511
   52DOPE   C23 6615   6.866   3.426  14.223  0.4252 -0.3100  0.0015
   52DOPE   H3R 6616   6.908   3.367  14.307 -0.4232 -1.0957 -0.1190
   52DOPE   H3S 6617   6.785   3.491  14.262  2.3265  1.8976  0.5424
   52DOPE   C24 6618   6.980   3.504  14.162  0.2909 -0.8276  0.4689
   52DOPE   H4R 6619   7.005   3.592  14.225 -0.3447 -0.4275  0.1756
   52DOPE   H4S 6620   6.946   3.540  14.062  0.6084  0.7579  0.9066
   52DOPE   C25 6621   7.112   3.423  14.143 -0.1245  0.1107 -0.4408
   52DOPE   H5R 6622   7.087   3.333  14.083  0.1106  0.0099 -0.3889
   52DOPE   H5S 6623   7.148   3.384  14.241  3.1322 -0.3050 -1.6768
   52DOPE   C26 6624   7.220   3.509  14.089  0.1041 -0.1654  0.6212
   52DOPE   H6R 6625   7.231   3.599  14.154  1.2143  0.3991 -0.3150
   52DOPE   H6S 6626   7.185   3.533  13.986  0.3053 -0.8763  0.3875
   52DOPE   C27 6627   7.358   3.446  14.080  0.2429  0.2715 -0.3651
   52DOPE   H7R 6628   7.412   3.514  14.011 -0.2620  1.1866  0.1231
   52DOPE   H7S 6629   7.355   3.345  14.034  1.4561 -0.0603  0.2329
   52DOPE   C28 6630   7.430   3.432  14.215 -0.3827 -0.1452 -0.3419
   52DOPE   H8R 6631   7.428   3.534  14.259 -1.7916 -0.3099  0.0245
   52DOPE   H8S 6632   7.537   3.414  14.192 -0.1946 -0.8345  0.9497
   52DOPE   C29 6633   7.380   3.314  14.289 -1.0430 -0.6230  0.7316
   52DOPE   H9R 6634   7.374   3.224  14.226  1.3674 -0.1243 -0.3279
   52DOPE  C210 6635   7.330   3.307  14.412  0.2842 -0.3036  0.0420
   52DOPE  H10R 6636   7.304   3.208  14.452 -1.1865  0.0320 -0.0167
   52DOPE  C211 6637   7.312   3.427  14.502  0.4459 -0.0362 -0.5326
   52DOPE  H11R 6638   7.345   3.526  14.463 -2.3327  2.5700  3.0670
   52DOPE  H11S 6639   7.377   3.428  14.592  0.0362 -0.2458 -0.2296
   52DOPE  C212 6640   7.165   3.430  14.555  0.1711  0.1546 -0.7031
   52DOPE  H12R 6641   7.095   3.443  14.470  0.3011  0.1320 -0.8130
   52DOPE  H12S 6642   7.166   3.517  14.625  2.1577  0.1182 -0.6130
   52DOPE  C213 6643   7.136   3.320  14.655  0.4393 -0.0266 -0.1149
   52DOPE  H13R 6644   7.205   3.318  14.742 -0.1497 -2.9052  0.3704
   52DOPE  H13S 6645   7.142   3.219  14.609  1.0915  0.4149 -1.0532
   52DOPE  C214 6646   6.984   3.337  14.708 -0.2945  0.0103  0.0970
   52DOPE  H14R 6647   6.950   3.266  14.785 -1.4022  2.1303  1.6570
   52DOPE  H14S 6648   6.931   3.299  14.618  0.1940  0.0987 -0.2385
   52DOPE  C215 6649   6.939   3.483  14.736 -0.7434  0.0957 -0.5899
   52DOPE  H15R 6650   6.832   3.482  14.765 -0.6298 -0.7307 -0.1580
   52DOPE  H15S 6651   6.951   3.564  14.662 -4.1889  2.7355  1.4523
   52DOPE  C216 6652   7.018   3.551  14.854  0.0186 -0.1742 -0.3157
   52DOPE  H16R 6653   6.983   3.655  14.871  0.7848  0.1374 -0.6055
   52DOPE  H16S 6654   7.125   3.569  14.832 -0.1452  2.8139  0.8929
   52DOPE  C217 6655   7.013   3.467  14.979  0.5031  0.3092  0.2595
   52DOPE  H17R 6656   7.073   3.374  14.973 -1.9588 -1.3695  0.2854
   52DOPE  H17S 6657   6.906   3.438  14.988  0.8875 -1.5074 -0.7189
   52DOPE  C218 6658   7.054   3.541  15.105 -0.5050  0.1054  0.2738
   52DOPE  H18R 6659   6.998   3.634  15.124 -0.1205  0.9376 -2.2602
   52DOPE  H18S 6660   7.059   3.477  15.196 -1.0604 -1.6639 -0.8770
   52DOPE  H18T 6661   7.164   3.561  15.100 -0.0670 -2.1450 -2.9737
   52DOPE   C33 6662   6.060   3.191  14.308  0.0647  0.5972 -0.1119
   52DOPE   H3X 6663   6.082   3.082  14.305  0.2782  0.5954  1.1631
   52DOPE   H3Y 6664   5.960   3.192  14.259  0.2002 -1.3513 -0.5057
   52DOPE   C34 6665   6.045   3.216  14.460  0.1545 -0.0272 -0.6705
   52DOPE   H4X 6666   6.133   3.174  14.512 -0.5841 -1.3564 -0.4428
   52DOPE   H4Y 6667   6.049   3.325  14.481  1.5765 -0.3546  0.9326
   52DOPE   C35 6668   5.918   3.164  14.531  0.3180  0.1429 -0.1729
   52DOPE   H5X 6669   5.829   3.222  14.498 -1.5070 -1.1487  2.1668
   52DOPE   H5Y 6670   5.922   3.193  14.638  2.1459  1.3233 -0.5199
   52DOPE   C36 6671   5.905   3.008  14.522 -0.4020  0.2161  0.0540
   52DOPE   H6X 6672   5.993   2.970  14.578  0.0703 -0.2008 -0.9436
   52DOPE   H6Y 6673   5.928   2.967  14.421 -0.1939 -1.6267  0.8051
   52DOPE   C37 6674   5.777   2.944  14.580 -0.2860 -0.4694 -0.0330
   52DOPE   H7X 6675   5.800   2.836  14.589  3.8938  0.2759  0.3097
   52DOPE   H7Y 6676   5.764   2.989  14.681  1.8172 -1.1894  0.6159
   52DOPE   C38 6677   5.655   2.975  14.488 -0.4532  0.4141 -0.4031
   52DOPE   H8X 6678   5.644   3.086  14.482  2.8144  0.7784 -2.3294
   52DOPE   H8Y 6679   5.565   2.938  14.542  0.6261  2.1710  2.8770
   52DOPE   C39 6680   5.674   2.914  14.351 -0.5210  0.5447 -0.0559
   52DOPE   H9X 6681   5.776   2.932  14.314 -0.0798 -2.4818 -0.5698
   52DOPE  C310 6682   5.583   2.854  14.270 -0.6166  0.4668 -0.1751
   52DOPE  H10X 6683   5.619   2.813  14.174 -0.4296  1.3243 -0.4800
   52DOPE  C311 6684   5.443   2.812  14.300 -0.7032 -0.6813 -0.1916
   52DOPE  H11X 6685   5.393   2.885  14.367 -1.2374 -1.9620  0.8475
   52DOPE  H11Y 6686   5.384   2.798  14.207 -0.1297 -1.5741 -0.4269
   52DOPE  C312 6687   5.435   2.677  14.386 -0.0561 -0.4837 -0.0884
   52DOPE  H12X 6688   5.485   2.697  14.483 -1.8029  2.2470  0.3855
   52DOPE  H12Y 6689   5.477   2.585  14.341  0.0002 -1.1007  1.1766
   52DOPE  C313 6690   5.291   2.649  14.418  0.1878  0.1079 -0.2570
   52DOPE  H13X 6691   5.234   2.726  14.474  0.9260  0.5387 -0.0733
   52DOPE  H13Y 6692   5.240   2.642  14.320 -0.1313  2.1903 -0.2943
   52DOPE  C314 6693   5.264   2.516  14.486 -0.3882 -0.3101  0.2695
   52DOPE  H14X 6694   5.333   2.514  14.573  2.2371  0.2769 -1.6882
   52DOPE  H14Y 6695   5.302   2.433  14.422  0.9833  0.9144 -0.5607
   52DOPE  C315 6696   5.123   2.495  14.531 -0.0654 -0.1510 -0.4058
   52DOPE  H15X 6697   5.082   2.581  14.587 -3.3857 -1.8112 -0.0154
   52DOPE  H15Y 6698   5.118   2.411  14.604 -1.0930  0.7906  0.6506
   52DOPE  C316 6699   5.020   2.466  14.411 -0.1782 -0.2243 -0.0027
   52DOPE  H16X 6700   5.012   2.563  14.356  1.0449  1.6389  2.8735
   52DOPE  H16Y 6701   4.919   2.449  14.455  0.9132 -0.6019  2.4888
   52DOPE  C317 6702   5.060   2.352  14.310 -0.3546 -0.2952 -0.2996
   52DOPE  H17X 6703   5.000   2.369  14.218 -2.6004  1.0509  1.3234
   52DOPE  H17Y 6704   5.164   2.365  14.273 -1.1290 -0.2927 -2.6814
   52DOPE  C318 6705   5.052   2.207  14.367  0.2284  0.5778  0.2680
   52DOPE  H18X 6706   5.099   2.137  14.295 -0.4170  1.6525 -1.2603
   52DOPE  H18Y 6707   5.100   2.199  14.467 -0.2285 -0.2839  0.4236
   52DOPE  H18Z 6708   4.953   2.163  14.388  0.3771  1.2068  2.5203
   53DOPE     N 6709   7.399   5.483  13.432  0.4587  0.0849  0.1079
   53DOPE   HN1 6710   7.408   5.556  13.358 -1.9579  0.9414  0.5683
   53DOPE   HN2 6711   7.426   5.529  13.521  1.3882 -1.5703  0.7251
   53DOPE   HN3 6712   7.468   5.409  13.408  0.7309 -0.1824  1.6637
   53DOPE   C12 6713   7.257   5.437  13.444 -0.4639  0.0674  0.1565
   53DOPE  H12A 6714   7.260   5.335  13.488  0.6286  1.1480  2.8088
   53DOPE  H12B 6715   7.203   5.447  13.347 -1.2551  2.1090  0.7688
   53DOPE   C11 6716   7.187   5.535  13.542 -0.3966 -0.5457  0.4943
   53DOPE  H11A 6717   7.231   5.514  13.642  0.4715 -1.9964 -0.1619
   53DOPE  H11B 6718   7.079   5.508  13.539 -0.0297 -2.0214 -0.1594
   53DOPE     P 6719   7.140   5.785  13.555 -0.2560 -0.1320  0.2491
   53DOPE   O13 6720   6.990   5.775  13.554 -0.3516  0.2834 -0.8209
   53DOPE   O14 6721   7.195   5.907  13.488 -0.2641 -0.4967 -0.6433
   53DOPE   O11 6722   7.190   5.781  13.704 -0.1190  0.6384  0.1932
   53DOPE   O12 6723   7.204   5.665  13.485 -0.0730 -0.4976  0.0639
   53DOPE    C1 6724   7.329   5.816  13.718 -0.5650  0.3054  1.2232
   53DOPE    HA 6725   7.334   5.926  13.722 -2.3857  0.4503  0.5807
   53DOPE    HB 6726   7.395   5.777  13.637 -3.9091 -1.7632 -0.7426
   53DOPE    C2 6727   7.385   5.764  13.855 -0.0768  0.5118  0.0560
   53DOPE    HS 6728   7.369   5.654  13.848 -0.2993  0.5671 -0.3061
   53DOPE   O21 6729   7.306   5.820  13.963 -0.1393  0.6422 -0.1499
   53DOPE   C21 6730   7.275   5.749  14.068  1.1089  1.1811  1.1891
   53DOPE   O22 6731   7.311   5.633  14.083  0.2366 -0.7126  0.5434
   53DOPE   C22 6732   7.177   5.825  14.159 -0.4710  0.3420 -0.0782
   53DOPE   H2R 6733   7.119   5.751  14.218  1.7767 -2.9563 -1.6810
   53DOPE   H2S 6734   7.121   5.895  14.094  0.8243  1.5949  0.1063
   53DOPE    C3 6735   7.538   5.780  13.882  0.5026  0.1452 -0.2174
   53DOPE    HX 6736   7.574   5.880  13.848  1.4409 -0.9600 -2.7921
   53DOPE    HY 6737   7.597   5.713  13.816 -0.4689 -1.5025  0.5247
   53DOPE   O31 6738   7.577   5.756  14.018 -0.1305 -0.0688  0.1879
   53DOPE   C31 6739   7.614   5.633  14.046  0.5785  0.3473  1.1746
   53DOPE   O32 6740   7.598   5.532  13.974  0.1175  0.1685 -0.0584
   53DOPE   C32 6741   7.666   5.628  14.185 -0.2565 -0.4542 -0.0969
   53DOPE   H2X 6742   7.670   5.520  14.212 -0.5749 -0.3189  0.5024
   53DOPE   H2Y 6743   7.770   5.666  14.190  0.4838 -2.4234  0.6370
   53DOPE   C23 6744   7.242   5.916  14.263  0.4797 -0.0791 -0.0176
   53DOPE   H3R 6745   7.309   5.986  14.210  0.5703 -1.0134 -1.1741
   53DOPE   H3S 6746   7.301   5.851  14.331 -1.9530 -1.2505  1.1195
   53DOPE   C24 6747   7.131   5.986  14.349  0.2480 -0.1320 -0.0367
   53DOPE   H4R 6748   7.062   5.913  14.397 -0.1534 -2.2490 -3.4666
   53DOPE   H4S 6749   7.065   6.044  14.282 -0.8279  0.4378  1.4542
   53DOPE   C25 6750   7.189   6.080  14.450  0.1080  0.0328  0.0755
   53DOPE   H5R 6751   7.235   6.172  14.408 -1.1480  2.0008  2.7178
   53DOPE   H5S 6752   7.270   6.032  14.509  1.2771 -1.1317 -2.3209
   53DOPE   C26 6753   7.079   6.119  14.549 -0.4069  0.1412 -0.2578
   53DOPE   H6R 6754   7.039   6.031  14.603 -1.7488  0.6371 -0.4043
   53DOPE   H6S 6755   7.000   6.161  14.483  0.4672  1.3669 -0.5465
   53DOPE   C27 6756   7.128   6.203  14.669  0.3500 -0.5551 -0.3095
   53DOPE   H7R 6757   7.159   6.301  14.626  0.4665  0.0814  1.1833
   53DOPE   H7S 6758   7.214   6.159  14.724 -0.3494  0.0943  1.3523
   53DOPE   C28 6759   7.014   6.231  14.770  0.2237 -0.2507 -0.7472
   53DOPE   H8R 6760   6.971   6.133  14.796  1.1890 -0.2532  0.9759
   53DOPE   H8S 6761   6.927   6.289  14.732 -0.6409 -0.2450  1.1453
   53DOPE   C29 6762   7.083   6.293  14.894 -0.1619  0.3648  0.3982
   53DOPE   H9R 6763   7.141   6.225  14.958  2.5325  0.5529 -1.6422
   53DOPE  C210 6764   7.067   6.422  14.932  0.3200  0.4853 -0.0852
   53DOPE  H10R 6765   7.125   6.452  15.020 -0.4915  0.4762  0.4669
   53DOPE  C211 6766   6.997   6.537  14.857 -0.1959 -0.1031  0.2536
   53DOPE  H11R 6767   6.903   6.567  14.909 -2.6727 -2.3917 -2.5942
   53DOPE  H11S 6768   6.964   6.512  14.754 -2.5616  2.9908  0.1187
   53DOPE  C212 6769   7.092   6.652  14.842 -0.3980 -0.0498 -0.5325
   53DOPE  H12R 6770   7.125   6.688  14.942 -2.0363 -0.9779  0.3876
   53DOPE  H12S 6771   7.036   6.737  14.797 -0.2340  0.3130 -0.0565
   53DOPE  C213 6772   7.217   6.614  14.752  0.3499  0.4879  0.4070
   53DOPE  H13R 6773   7.182   6.555  14.665  1.7630  1.4465 -0.8508
   53DOPE  H13S 6774   7.294   6.559  14.810  0.0827  0.9149  1.1837
   53DOPE  C214 6775   7.271   6.743  14.681 -0.7823  0.1103  0.4700
   53DOPE  H14R 6776   7.287   6.824  14.756  0.4878 -1.8992  2.5005
   53DOPE  H14S 6777   7.193   6.785  14.615 -1.2795  0.2618  1.1370
   53DOPE  C215 6778   7.392   6.721  14.592 -0.2294  0.3848  0.3065
   53DOPE  H15R 6779   7.478   6.683  14.651  0.0454 -0.5295 -0.6649
   53DOPE  H15S 6780   7.419   6.822  14.553  2.0496  0.6138  2.2665
   53DOPE  C216 6781   7.357   6.621  14.482  0.0987  0.2834  0.0658
   53DOPE  H16R 6782   7.346   6.517  14.517  0.1120  0.7592  1.5277
   53DOPE  H16S 6783   7.448   6.627  14.418  0.8071 -3.1446  0.5567
   53DOPE  C217 6784   7.236   6.646  14.393 -0.3185 -0.1652  0.1525
   53DOPE  H17R 6785   7.250   6.746  14.346  0.3474 -0.1265  0.4336
   53DOPE  H17S 6786   7.146   6.639  14.458 -0.7994  1.6606 -0.2548
   53DOPE  C218 6787   7.223   6.554  14.270 -0.1894  0.2439 -0.2847
   53DOPE  H18R 6788   7.135   6.590  14.212 -1.1143 -2.8214 -0.9292
   53DOPE  H18S 6789   7.216   6.446  14.295 -0.1061 -0.2564 -2.2535
   53DOPE  H18T 6790   7.317   6.564  14.210 -0.7095 -1.1159 -1.3710
   53DOPE   C33 6791   7.585   5.708  14.287  0.3777 -0.4293  0.0260
   53DOPE   H3X 6792   7.479   5.678  14.280 -0.0163  1.2594 -3.6000
   53DOPE   H3Y 6793   7.586   5.816  14.260 -2.0991 -0.7459 -1.6364
   53DOPE   C34 6794   7.640   5.690  14.430  0.4139 -0.7619  0.1888
   53DOPE   H4X 6795   7.745   5.722  14.415 -0.3991  1.3507 -1.6690
   53DOPE   H4Y 6796   7.588   5.767  14.491  3.3123  1.4998  0.0166
   53DOPE   C35 6797   7.629   5.556  14.493  0.2044 -0.4592 -1.1742
   53DOPE   H5X 6798   7.712   5.490  14.460  3.0903  2.0000  0.6762
   53DOPE   H5Y 6799   7.527   5.511  14.489 -0.9721  1.9002 -0.1423
   53DOPE   C36 6800   7.667   5.565  14.644 -0.0426 -0.6635  0.6203
   53DOPE   H6X 6801   7.603   5.642  14.692 -0.6757  0.2208 -1.5399
   53DOPE   H6Y 6802   7.775   5.585  14.658  0.1637 -1.9532  1.0501
   53DOPE   C37 6803   7.630   5.430  14.714 -0.4507 -0.4509 -0.5316
   53DOPE   H7X 6804   7.649   5.345  14.646  0.7993 -1.4788  1.0302
   53DOPE   H7Y 6805   7.705   5.436  14.796  2.4716  0.2107 -3.0571
   53DOPE   C38 6806   7.480   5.407  14.755 -0.3665 -0.2187 -0.0850
   53DOPE   H8X 6807   7.423   5.386  14.662 -2.3969 -2.4838  1.5451
   53DOPE   H8Y 6808   7.440   5.501  14.798  2.1896  0.2772  1.3996
   53DOPE   C39 6809   7.462   5.286  14.836  0.3833 -0.7914  0.5344
   53DOPE   H9X 6810   7.553   5.249  14.886  1.6538 -0.1894 -1.2352
   53DOPE  C310 6811   7.342   5.229  14.861 -0.6261  0.6021 -0.5332
   53DOPE  H10X 6812   7.339   5.143  14.930  2.0453  0.4114 -0.5360
   53DOPE  C311 6813   7.207   5.277  14.816 -0.0719 -0.0364  0.1206
   53DOPE  H11X 6814   7.160   5.310  14.911 -1.7493 -0.1348 -0.6379
   53DOPE  H11Y 6815   7.216   5.362  14.746  1.7476 -0.4337 -0.1566
   53DOPE  C312 6816   7.107   5.168  14.756  0.4506 -0.3869  0.7983
   53DOPE  H12X 6817   7.155   5.139  14.661 -0.7291  1.5115 -0.4522
   53DOPE  H12Y 6818   7.005   5.210  14.739  0.6134 -0.2892  0.0273
   53DOPE  C313 6819   7.099   5.040  14.838 -0.0203 -0.2850 -0.1723
   53DOPE  H13X 6820   7.031   4.974  14.780  0.0428 -0.7528  0.2803
   53DOPE  H13Y 6821   7.198   4.990  14.837  0.9746  1.5508  1.1104
   53DOPE  C314 6822   7.042   5.053  14.978 -0.4673  0.1607 -0.5503
   53DOPE  H14X 6823   6.948   5.112  14.977  0.7083  2.1155  0.2453
   53DOPE  H14Y 6824   7.105   5.103  15.054 -2.0972  1.5217 -0.0355
   53DOPE  C315 6825   7.004   4.916  15.042 -0.6371  0.0596 -0.1151
   53DOPE  H15X 6826   7.085   4.841  15.031  0.0584  0.3555  2.4333
   53DOPE  H15Y 6827   6.914   4.879  14.988 -0.3153 -0.5013 -0.2725
   53DOPE  C316 6828   6.963   4.909  15.192 -0.8492  0.1736  0.2990
   53DOPE  H16X 6829   6.947   4.805  15.226  3.5148 -0.7357  0.1497
   53DOPE  H16Y 6830   6.865   4.955  15.217 -1.1733  0.1253 -0.8060
   53DOPE  C317 6831   7.068   4.965  15.286 -0.2484 -0.3031 -0.0058
   53DOPE  H17X 6832   7.160   4.911  15.256 -1.9677 -3.7703  0.4792
   53DOPE  H17Y 6833   7.080   5.075  15.275 -1.2063 -0.0459  1.3188
   53DOPE  C318 6834   7.045   4.935  15.434  0.1284  0.5465  0.4490
   53DOPE  H18X 6835   7.109   4.992  15.505  2.4345  0.1975 -1.2487
   53DOPE  H18Y 6836   6.936   4.946  15.454 -0.3297 -0.1786 -1.4761
   53DOPE  H18Z 6837   7.065   4.827  15.446 -0.8520  0.2059 -0.7595
   54DOPE     N 6838   7.096   4.114  12.875 -0.1420 -0.3352  0.6755
   54DOPE   HN1 6839   7.082   4.090  12.775 -0.3244 -1.1906  0.8959
   54DOPE   HN2 6840   7.167   4.048  12.913  1.5547  1.3929  0.6433
   54DOPE   HN3 6841   7.002   4.091  12.912 -0.9382 -2.5415 -2.3277
   54DOPE   C12 6842   7.147   4.254  12.895  0.0994 -0.3355  0.7020
   54DOPE  H12A 6843   7.066   4.311  12.844  0.9611 -1.0501 -1.5842
   54DOPE  H12B 6844   7.245   4.260  12.844 -0.5705  2.6069 -0.4441
   54DOPE   C11 6845   7.166   4.282  13.046  1.1503 -0.1718 -0.4913
   54DOPE  H11A 6846   7.066   4.266  13.090  0.8636 -0.9987 -1.3931
   54DOPE  H11B 6847   7.191   4.391  13.044 -0.5250  0.2335 -0.6463
   54DOPE     P 6848   7.313   4.225  13.253  0.3448 -0.3233 -0.0222
   54DOPE   O13 6849   7.419   4.328  13.239  0.3133 -0.2599  0.2810
   54DOPE   O14 6850   7.365   4.099  13.314  0.1723 -0.3351  0.2486
   54DOPE   O11 6851   7.187   4.294  13.325 -0.4208 -0.5756  0.2096
   54DOPE   O12 6852   7.261   4.193  13.109  0.9392 -0.0477  0.5715
   54DOPE    C1 6853   7.073   4.207  13.361 -0.4751  0.0335  0.0104
   54DOPE    HA 6854   7.099   4.099  13.353 -0.0797  0.2920 -3.4286
   54DOPE    HB 6855   6.980   4.231  13.306 -2.2231  1.1409  3.1694
   54DOPE    C2 6856   7.032   4.250  13.509  0.4768  0.0141 -0.8680
   54DOPE    HS 6857   6.988   4.351  13.496 -2.8807 -1.3295 -0.7849
   54DOPE   O21 6858   7.150   4.238  13.592  0.2320 -0.4549  0.1617
   54DOPE   C21 6859   7.169   4.349  13.663 -0.7995  0.0212 -0.6920
   54DOPE   O22 6860   7.117   4.457  13.650 -0.0200  0.7233 -0.1427
   54DOPE   C22 6861   7.276   4.323  13.778 -0.1386 -0.3206 -0.3409
   54DOPE   H2R 6862   7.321   4.424  13.794  1.9791 -1.2799  0.0836
   54DOPE   H2S 6863   7.352   4.250  13.743  0.9950  1.8744 -2.8664
   54DOPE    C3 6864   6.919   4.160  13.551  0.2318 -0.4692  0.5830
   54DOPE    HX 6865   6.953   4.055  13.553  1.3852 -0.1238 -0.1576
   54DOPE    HY 6866   6.837   4.175  13.477  2.0001 -0.6645 -1.5119
   54DOPE   O31 6867   6.875   4.197  13.681 -0.0577  0.8985 -0.3903
   54DOPE   C31 6868   6.763   4.136  13.730  0.0930 -0.2404 -0.0684
   54DOPE   O32 6869   6.695   4.051  13.673  0.5297 -0.3894 -0.2547
   54DOPE   C32 6870   6.724   4.191  13.866  0.1536  0.1154  0.6931
   54DOPE   H2X 6871   6.615   4.211  13.878  0.0238  0.8607 -1.3487
   54DOPE   H2Y 6872   6.761   4.109  13.932  1.4923 -2.4005 -2.8355
   54DOPE   C23 6873   7.211   4.278  13.916 -0.2347 -0.2575 -0.0468
   54DOPE   H3R 6874   7.132   4.349  13.950 -0.0886 -0.0599 -0.1236
   54DOPE   H3S 6875   7.294   4.286  13.990 -0.2231  2.3368 -0.2772
   54DOPE   C24 6876   7.157   4.129  13.926 -0.3927 -0.4088  0.3951
   54DOPE   H4R 6877   7.233   4.059  13.885  2.5331  2.1285  1.0597
   54DOPE   H4S 6878   7.063   4.121  13.868 -0.2421  0.6781 -0.0114
   54DOPE   C25 6879   7.119   4.096  14.074  0.0129  0.3480  0.2263
   54DOPE   H5R 6880   7.027   4.155  14.095  0.3502  1.1154 -0.4332
   54DOPE   H5S 6881   7.205   4.130  14.136  1.7334 -0.0194 -1.8620
   54DOPE   C26 6882   7.087   3.946  14.093 -0.2714 -0.4048 -0.7803
   54DOPE   H6R 6883   7.079   3.921  14.201  1.3670 -1.8807 -0.9545
   54DOPE   H6S 6884   7.171   3.890  14.047  0.8908  0.3372  0.3835
   54DOPE   C27 6885   6.952   3.887  14.033 -0.3669  0.1915 -0.6723
   54DOPE   H7R 6886   6.961   3.777  14.023 -0.4509 -0.1864  2.3476
   54DOPE   H7S 6887   6.942   3.916  13.926 -4.2034 -0.4048 -0.6020
   54DOPE   C28 6888   6.829   3.911  14.130 -0.2339  0.3179 -0.5622
   54DOPE   H8R 6889   6.825   4.020  14.148  1.6395  0.5313 -1.2462
   54DOPE   H8S 6890   6.858   3.864  14.226 -0.5073 -0.0446 -0.6518
   54DOPE   C29 6891   6.701   3.868  14.056 -0.2379 -0.6079  0.0761
   54DOPE   H9R 6892   6.707   3.806  13.965  0.3641  1.5267 -1.4057
   54DOPE  C210 6893   6.574   3.912  14.094 -0.8701 -0.1469  0.3875
   54DOPE  H10R 6894   6.495   3.867  14.032  0.7822 -0.0803 -1.9012
   54DOPE  C211 6895   6.529   3.993  14.213  0.0511 -0.3271  1.0749
   54DOPE  H11R 6896   6.473   4.084  14.182 -0.1080 -0.8862 -0.3523
   54DOPE  H11S 6897   6.613   4.043  14.267  1.6601 -1.6561 -0.0797
   54DOPE  C212 6898   6.448   3.909  14.312 -0.5379  0.2428 -0.2871
   54DOPE  H12R 6899   6.503   3.818  14.345 -0.2585  0.4415 -0.2069
   54DOPE  H12S 6900   6.364   3.868  14.251 -0.6950  0.9909 -0.5784
   54DOPE  C213 6901   6.391   3.983  14.432 -0.0170  0.1384 -0.5518
   54DOPE  H13R 6902   6.344   4.079  14.400 -1.0005  0.2431  1.0935
   54DOPE  H13S 6903   6.473   4.006  14.503  0.1596  1.1629 -1.0742
   54DOPE  C214 6904   6.286   3.903  14.501  0.2586 -0.0974  0.0925
   54DOPE  H14R 6905   6.335   3.832  14.571  0.5682 -1.2054 -1.2035
   54DOPE  H14S 6906   6.225   3.847  14.425  0.8680 -1.6153  0.6795
   54DOPE  C215 6907   6.184   3.983  14.588 -0.0595  0.0335  0.8135
   54DOPE  H15R 6908   6.129   4.029  14.503 -1.1670 -1.0588  0.9054
   54DOPE  H15S 6909   6.241   4.060  14.643 -1.5944  1.2081  0.8347
   54DOPE  C216 6910   6.089   3.907  14.678 -0.3713  0.0310 -0.4390
   54DOPE  H16R 6911   6.042   3.982  14.746 -0.2755 -0.4652  0.1834
   54DOPE  H16S 6912   6.146   3.838  14.743 -1.9311 -0.8646  0.0527
   54DOPE  C217 6913   5.987   3.816  14.605  0.0515 -0.8963 -0.6471
   54DOPE  H17R 6914   6.033   3.715  14.613 -0.6161 -1.1854 -0.3778
   54DOPE  H17S 6915   5.989   3.850  14.499  0.0935  2.3242  0.2976
   54DOPE  C218 6916   5.839   3.819  14.650  0.2279 -0.2148 -0.0977
   54DOPE  H18R 6917   5.816   3.924  14.677  1.7762  0.0006  0.5391
   54DOPE  H18S 6918   5.829   3.747  14.735  1.8298 -0.6040 -0.2111
   54DOPE  H18T 6919   5.778   3.782  14.565 -0.7805 -2.1812  1.3858
   54DOPE   C33 6920   6.789   4.331  13.897 -0.1522 -0.4042 -0.9156
   54DOPE   H3X 6921   6.755   4.398  13.816 -0.0506  1.8355  0.7804
   54DOPE   H3Y 6922   6.900   4.326  13.894  0.1841  1.9633  2.1337
   54DOPE   C34 6923   6.755   4.396  14.029  0.2856  0.0418  0.0274
   54DOPE   H4X 6924   6.795   4.498  14.046 -0.0802  0.1839  0.0468
   54DOPE   H4Y 6925   6.647   4.421  14.028  0.4794  0.9301  0.4744
   54DOPE   C35 6926   6.766   4.303  14.150 -0.1267  0.9355 -0.1277
   54DOPE   H5X 6927   6.876   4.290  14.158  0.0034 -0.2096 -2.7056
   54DOPE   H5Y 6928   6.732   4.199  14.133 -0.5872  1.2933 -1.5739
   54DOPE   C36 6929   6.723   4.359  14.286 -0.2834  0.3207 -0.2064
   54DOPE   H6X 6930   6.772   4.458  14.301 -0.6775  0.4501  0.2601
   54DOPE   H6Y 6931   6.754   4.281  14.358  0.8199 -2.1411 -3.1426
   54DOPE   C37 6932   6.570   4.394  14.290  0.0357  0.1485  0.4856
   54DOPE   H7X 6933   6.556   4.475  14.215 -1.1602  0.7372  1.3090
   54DOPE   H7Y 6934   6.501   4.316  14.251 -1.4257  1.1411  0.9922
   54DOPE   C38 6935   6.534   4.443  14.430  0.2692 -0.4655 -0.7790
   54DOPE   H8X 6936   6.576   4.544  14.449  0.6533 -1.0839  2.1517
   54DOPE   H8Y 6937   6.584   4.370  14.498  2.2737  0.9841 -0.6150
   54DOPE   C39 6938   6.387   4.433  14.449  0.1949 -0.2698 -0.2157
   54DOPE   H9X 6939   6.362   4.326  14.454  1.6939 -0.6123  0.4921
   54DOPE  C310 6940   6.297   4.529  14.426 -0.1799 -0.8656 -0.3116
   54DOPE  H10X 6941   6.190   4.512  14.442 -0.3243  1.6357  2.3545
   54DOPE  C311 6942   6.327   4.679  14.405  0.1668  0.0876 -0.3637
   54DOPE  H11X 6943   6.236   4.737  14.430 -0.4190 -0.0288 -2.1294
   54DOPE  H11Y 6944   6.418   4.714  14.458 -0.5350 -0.9676  1.6734
   54DOPE  C312 6945   6.347   4.709  14.256  1.1722 -0.4018 -0.1137
   54DOPE  H12X 6946   6.263   4.681  14.189 -0.1823  0.9842  0.9294
   54DOPE  H12Y 6947   6.433   4.653  14.215  2.6759  1.7108 -0.0350
   54DOPE  C313 6948   6.384   4.859  14.226  0.7134  0.1170  0.4282
   54DOPE  H13X 6949   6.340   4.886  14.127  0.1120  0.5260  0.8024
   54DOPE  H13Y 6950   6.346   4.927  14.305 -0.0748  0.3703 -0.1564
   54DOPE  C314 6951   6.535   4.880  14.206  0.4577  0.0838 -0.2146
   54DOPE  H14X 6952   6.562   4.802  14.131 -0.7098  0.3870 -0.9877
   54DOPE  H14Y 6953   6.591   4.864  14.300  1.4374  0.0463 -0.7895
   54DOPE  C315 6954   6.573   5.015  14.142 -0.0136 -1.0778 -1.0842
   54DOPE  H15X 6955   6.497   5.038  14.064 -0.4290 -0.5486 -0.5412
   54DOPE  H15Y 6956   6.676   4.999  14.103  0.8460 -0.1423  0.6901
   54DOPE  C316 6957   6.573   5.130  14.245  0.7476 -0.1073 -0.0866
   54DOPE  H16X 6958   6.580   5.081  14.344  2.1978 -2.2739 -1.1694
   54DOPE  H16Y 6959   6.481   5.192  14.241 -0.6929 -2.0980  0.4525
   54DOPE  C317 6960   6.706   5.221  14.237 -0.1751 -0.0462 -0.2067
   54DOPE  H17X 6961   6.728   5.240  14.130  0.5961  3.4070  0.4384
   54DOPE  H17Y 6962   6.682   5.319  14.283 -0.9666 -0.3111 -0.0457
   54DOPE  C318 6963   6.826   5.165  14.311 -0.2143 -0.2841  0.1768
   54DOPE  H18X 6964   6.788   5.140  14.413 -0.5882 -1.0275 -0.1411
   54DOPE  H18Y 6965   6.867   5.077  14.256  0.6513  0.2113  0.0094
   54DOPE  H18Z 6966   6.901   5.246  14.323 -0.3261 -0.4358  2.2935
   55DOPE     N 6967   1.194   6.943  12.749  0.2930  0.5858  0.6651
   55DOPE   HN1 6968   1.271   6.967  12.814  1.6276 -1.0719 -0.2201
   55DOPE   HN2 6969   1.243   6.941  12.658 -0.2547  2.9424  0.2618
   55DOPE   HN3 6970   1.122   7.018  12.740 -0.8081 -0.4874  0.2652
   55DOPE   C12 6971   1.131   6.813  12.772  0.2335 -0.5073 -0.4081
   55DOPE  H12A 6972   1.117   6.809  12.882 -1.1092 -1.9283 -0.6015
   55DOPE  H12B 6973   1.188   6.729  12.729 -2.8992 -3.3404  0.5203
   55DOPE   C11 6974   0.990   6.820  12.705 -0.3312  0.2538 -0.0562
   55DOPE  H11A 6975   0.946   6.723  12.736  0.8373  0.0114  0.9337
   55DOPE  H11B 6976   1.002   6.828  12.594 -1.2979  0.2115 -0.1684
   55DOPE     P 6977   0.807   6.945  12.863  0.2543 -0.0384 -0.0052
   55DOPE   O13 6978   0.726   6.820  12.875 -0.6388  0.0532 -0.1955
   55DOPE   O14 6979   0.733   7.073  12.846  0.0026 -0.5196 -0.1475
   55DOPE   O11 6980   0.899   6.958  12.993 -0.4573  0.5367  0.0342
   55DOPE   O12 6981   0.908   6.931  12.741 -0.2510  0.7208  0.0832
   55DOPE    C1 6982   0.914   6.869  13.102 -0.5459  1.0523  0.3265
   55DOPE    HA 6983   1.016   6.886  13.142 -1.3815  2.2412  2.0577
   55DOPE    HB 6984   0.906   6.763  13.070 -3.0712  1.0264  0.8347
   55DOPE    C2 6985   0.804   6.900  13.210  0.4637  0.4735  0.6559
   55DOPE    HS 6986   0.703   6.885  13.166  0.4990 -0.5069  0.8995
   55DOPE   O21 6987   0.828   7.038  13.247  0.4110  0.1690 -0.4793
   55DOPE   C21 6988   0.722   7.098  13.306  0.4365 -0.1852 -0.3334
   55DOPE   O22 6989   0.609   7.055  13.308 -0.2392  0.1500  0.5104
   55DOPE   C22 6990   0.762   7.231  13.370  0.1244 -0.1948 -0.1637
   55DOPE   H2R 6991   0.673   7.284  13.410  0.3675 -0.1718  0.3544
   55DOPE   H2S 6992   0.796   7.293  13.284 -2.0717  3.1561  1.1795
   55DOPE    C3 6993   0.805   6.819  13.339  0.0131  0.0483  0.4177
   55DOPE    HX 6994   0.814   6.712  13.311 -0.5107  0.7525 -2.8358
   55DOPE    HY 6995   0.701   6.835  13.373 -0.4763 -0.7947 -0.6027
   55DOPE   O31 6996   0.905   6.872  13.441  0.2361  0.4131 -0.3353
   55DOPE   C31 6997   1.025   6.819  13.431 -0.1205  0.2044 -0.2994
   55DOPE   O32 6998   1.050   6.731  13.348  0.6531  0.3994 -0.1799
   55DOPE   C32 6999   1.116   6.877  13.544 -0.1991 -0.0322 -0.1239
   55DOPE   H2X 7000   1.188   6.948  13.499 -0.9191  0.3965 -0.6350
   55DOPE   H2Y 7001   1.054   6.932  13.619 -0.3850 -2.7126  1.7937
   55DOPE   C23 7002   0.871   7.221  13.480  1.0464 -0.0136  0.6385
   55DOPE   H3R 7003   0.921   7.320  13.493  1.6462 -0.4726  2.1068
   55DOPE   H3S 7004   0.955   7.154  13.452 -0.4102 -1.1559 -1.1608
   55DOPE   C24 7005   0.809   7.170  13.606  0.1136  0.8217 -0.0778
   55DOPE   H4R 7006   0.765   7.068  13.594  1.9370  0.0941 -0.9997
   55DOPE   H4S 7007   0.722   7.231  13.640 -1.2823 -2.4512  2.9136
   55DOPE   C25 7008   0.916   7.171  13.716 -0.4137 -0.3339 -0.2170
   55DOPE   H5R 7009   0.931   7.278  13.743 -1.7014 -0.5642  1.6475
   55DOPE   H5S 7010   1.012   7.129  13.680  0.1504  0.5737  0.1901
   55DOPE   C26 7011   0.854   7.109  13.839 -0.5936  0.0036  0.3314
   55DOPE   H6R 7012   0.798   7.019  13.808  0.8536 -0.6048 -0.6347
   55DOPE   H6S 7013   0.783   7.176  13.892  0.2036  1.3070 -0.2039
   55DOPE   C27 7014   0.958   7.061  13.942  0.5339 -0.1930 -0.1462
   55DOPE   H7R 7015   1.027   7.144  13.969  0.5206 -0.2831  0.1685
   55DOPE   H7S 7016   1.008   6.970  13.904 -0.4298 -1.1913  0.8947
   55DOPE   C28 7017   0.895   7.016  14.074 -0.5850 -0.1696 -0.6352
   55DOPE   H8R 7018   0.859   7.106  14.128  3.8770 -0.1524  2.9408
   55DOPE   H8S 7019   0.981   6.990  14.139 -2.8365 -0.8274  2.2864
   55DOPE   C29 7020   0.803   6.898  14.052  0.3848 -0.2831  0.0320
   55DOPE   H9R 7021   0.711   6.927  13.999  0.0200 -0.2202  0.6931
   55DOPE  C210 7022   0.826   6.766  14.083  0.2113  0.4182  0.7444
   55DOPE  H10R 7023   0.747   6.693  14.060  1.1343  0.0102 -1.4516
   55DOPE  C211 7024   0.958   6.704  14.126  0.0241 -0.5514  0.1423
   55DOPE  H11R 7025   1.025   6.792  14.130  0.9998 -1.0773 -2.5672
   55DOPE  H11S 7026   1.000   6.645  14.041  1.7848 -1.4331  1.5596
   55DOPE  C212 7027   0.955   6.617  14.255 -0.1451 -0.0505 -0.3274
   55DOPE  H12R 7028   0.902   6.519  14.254 -1.4706  0.6325 -1.3456
   55DOPE  H12S 7029   0.902   6.679  14.331  2.0623  3.2364 -1.3021
   55DOPE  C213 7030   1.103   6.586  14.300 -0.1602 -0.0766  0.2536
   55DOPE  H13R 7031   1.166   6.677  14.306  1.3915 -1.1759  1.2060
   55DOPE  H13S 7032   1.156   6.531  14.220  1.6885  2.4786 -0.3879
   55DOPE  C214 7033   1.103   6.522  14.440  0.3296 -0.0924 -0.0859
   55DOPE  H14R 7034   1.048   6.426  14.425  1.1513 -0.3835 -1.4092
   55DOPE  H14S 7035   1.050   6.593  14.506  2.3046  1.1667  0.2245
   55DOPE  C215 7036   1.244   6.508  14.496 -0.1018  0.1105  0.1343
   55DOPE  H15R 7037   1.284   6.612  14.501 -1.2830  0.6441 -0.9320
   55DOPE  H15S 7038   1.306   6.450  14.424  0.0321 -0.3328  0.5995
   55DOPE  C216 7039   1.234   6.445  14.634  0.3581  0.0966 -0.5768
   55DOPE  H16R 7040   1.192   6.343  14.637  2.2136 -0.7143 -0.3885
   55DOPE  H16S 7041   1.158   6.504  14.689  0.2796 -0.8590  0.3846
   55DOPE  C217 7042   1.374   6.452  14.703  0.1847 -0.1059 -0.6287
   55DOPE  H17R 7043   1.413   6.556  14.700 -0.6793  0.3072  1.2141
   55DOPE  H17S 7044   1.436   6.381  14.643 -0.4261 -1.1023 -0.1115
   55DOPE  C218 7045   1.365   6.425  14.849  0.1740 -0.4650  0.1836
   55DOPE  H18R 7046   1.300   6.503  14.895  0.0163  1.3369 -2.8404
   55DOPE  H18S 7047   1.463   6.421  14.901  1.0017 -3.3556 -1.3890
   55DOPE  H18T 7048   1.313   6.330  14.872 -0.2557 -0.0094  1.1425
   55DOPE   C33 7049   1.197   6.766  13.623  0.0820 -0.1752 -0.2822
   55DOPE   H3X 7050   1.280   6.818  13.677  0.8617 -1.4010 -0.2605
   55DOPE   H3Y 7051   1.241   6.689  13.556 -0.8546 -0.9039 -0.0906
   55DOPE   C34 7052   1.113   6.691  13.724 -0.3436 -0.7848  0.0169
   55DOPE   H4X 7053   1.059   6.769  13.781  0.1403 -0.7854  0.4798
   55DOPE   H4Y 7054   1.031   6.636  13.674 -1.8800  0.9119  0.5727
   55DOPE   C35 7055   1.181   6.582  13.809  0.6083  0.1100 -0.5056
   55DOPE   H5X 7056   1.206   6.501  13.737 -1.8691 -0.0712 -1.2520
   55DOPE   H5Y 7057   1.117   6.530  13.882  2.0258  2.5236  2.7211
   55DOPE   C36 7058   1.290   6.647  13.888  0.2020 -0.7743 -0.4831
   55DOPE   H6X 7059   1.250   6.733  13.946  0.3572 -0.5565 -0.6985
   55DOPE   H6Y 7060   1.365   6.694  13.821  1.2906  0.2894  1.3796
   55DOPE   C37 7061   1.361   6.555  13.981  0.2274 -0.2990 -0.4335
   55DOPE   H7X 7062   1.286   6.539  14.061 -0.5611  2.7784 -0.4274
   55DOPE   H7Y 7063   1.393   6.456  13.941 -1.6460 -1.3488  0.5487
   55DOPE   C38 7064   1.489   6.615  14.050 -0.0730 -1.1105 -0.3395
   55DOPE   H8X 7065   1.541   6.668  13.967 -2.3648 -1.0135 -1.7989
   55DOPE   H8Y 7066   1.554   6.533  14.087  1.4608 -0.6320 -1.8273
   55DOPE   C39 7067   1.456   6.708  14.163 -0.1312 -0.0419  0.4436
   55DOPE   H9X 7068   1.371   6.774  14.142  1.3021  2.0050  0.7894
   55DOPE  C310 7069   1.489   6.687  14.294 -0.2391  0.7068 -0.3591
   55DOPE  H10X 7070   1.459   6.755  14.375  1.3703 -0.0663  0.9722
   55DOPE  C311 7071   1.585   6.581  14.345 -0.0744  0.2659 -0.3075
   55DOPE  H11X 7072   1.532   6.521  14.421 -0.4457  0.9384 -0.0206
   55DOPE  H11Y 7073   1.633   6.509  14.276  0.1224  0.5985 -0.5234
   55DOPE  C312 7074   1.700   6.652  14.422  0.7997  0.1289  0.5263
   55DOPE  H12X 7075   1.656   6.723  14.495  0.2614  1.3693 -0.9534
   55DOPE  H12Y 7076   1.768   6.699  14.347 -1.3155  0.2370 -1.4543
   55DOPE  C313 7077   1.786   6.558  14.512  0.6354  0.0734  0.0861
   55DOPE  H13X 7078   1.826   6.624  14.591  0.2071  0.4219  0.0120
   55DOPE  H13Y 7079   1.718   6.478  14.548  0.0484 -0.5489 -2.2222
   55DOPE  C314 7080   1.912   6.493  14.448  0.1290 -0.3142  0.1158
   55DOPE  H14X 7081   1.989   6.568  14.422  0.1324 -0.1770  0.5119
   55DOPE  H14Y 7082   1.881   6.466  14.345 -1.4845  2.8930 -0.3561
   55DOPE  C315 7083   1.969   6.374  14.527  0.4001  0.2082 -0.5942
   55DOPE  H15X 7084   2.049   6.327  14.467 -1.5524 -2.4219 -1.3205
   55DOPE  H15Y 7085   1.896   6.291  14.536  0.3331  0.2383 -0.8701
   55DOPE  C316 7086   2.007   6.407  14.671  0.2052 -0.1116 -0.7749
   55DOPE  H16X 7087   1.915   6.429  14.729  0.8261 -0.7971  0.5228
   55DOPE  H16Y 7088   2.080   6.490  14.680  0.7647 -0.6493 -0.1818
   55DOPE  C317 7089   2.068   6.276  14.733  0.2000 -0.3710 -0.2176
   55DOPE  H17X 7090   1.998   6.194  14.707 -0.9883  1.4160 -3.1577
   55DOPE  H17Y 7091   2.168   6.242  14.699  1.1351  2.2909 -0.3878
   55DOPE  C318 7092   2.074   6.281  14.889 -1.0517 -0.0702  0.4895
   55DOPE  H18X 7093   2.117   6.181  14.912 -0.7343 -0.0472 -0.0158
   55DOPE  H18Y 7094   2.157   6.346  14.923  0.5922 -2.4404  1.2751
   55DOPE  H18Z 7095   1.978   6.297  14.944 -0.3052  1.8699  1.3370
   56DOPE     N 7096   0.880   7.199  12.624 -0.0988 -0.3027 -0.2292
   56DOPE   HN1 7097   0.870   7.135  12.706 -0.3384 -1.0141 -0.7945
   56DOPE   HN2 7098   0.853   7.151  12.535  0.9120 -3.3044  0.9311
   56DOPE   HN3 7099   0.983   7.202  12.608  0.0719 -1.2666  0.5748
   56DOPE   C12 7100   0.820   7.335  12.638 -0.2481 -0.1785 -0.7857
   56DOPE  H12A 7101   0.744   7.336  12.718 -0.8564  2.6786 -1.2981
   56DOPE  H12B 7102   0.785   7.367  12.538  1.5762 -1.8664 -2.0539
   56DOPE   C11 7103   0.931   7.441  12.670  0.7580 -0.6384 -0.0559
   56DOPE  H11A 7104   0.865   7.530  12.681 -0.9159 -1.9687  1.1961
   56DOPE  H11B 7105   0.995   7.453  12.580 -0.3539 -0.0092 -0.7722
   56DOPE     P 7106   1.137   7.338  12.787  0.1561  0.2033 -0.1486
   56DOPE   O13 7107   1.238   7.409  12.709  0.6714  0.6742 -0.3917
   56DOPE   O14 7108   1.112   7.199  12.752  0.2777 -0.0023 -0.1088
   56DOPE   O11 7109   1.174   7.348  12.939 -0.2114  0.1704 -0.3182
   56DOPE   O12 7110   1.002   7.413  12.787 -0.0372 -0.3151 -0.0673
   56DOPE    C1 7111   1.092   7.287  13.047  0.1938 -0.0934 -0.4604
   56DOPE    HA 7112   1.053   7.187  13.017 -4.6835  1.6260 -0.8641
   56DOPE    HB 7113   0.995   7.342  13.052 -0.3729 -0.9750 -1.2244
   56DOPE    C2 7114   1.155   7.284  13.185  0.3002  0.0120  0.0375
   56DOPE    HS 7115   1.073   7.273  13.260  1.1873  0.7775  1.1507
   56DOPE   O21 7116   1.223   7.406  13.199 -0.3422  0.2696  0.0357
   56DOPE   C21 7117   1.136   7.503  13.230  0.0993 -0.3968  0.2376
   56DOPE   O22 7118   1.020   7.492  13.253  0.6153  0.2399 -0.1181
   56DOPE   C22 7119   1.215   7.631  13.243 -0.0840 -0.1402 -0.3060
   56DOPE   H2R 7120   1.194   7.705  13.162 -1.6997 -1.4846 -1.1706
   56DOPE   H2S 7121   1.323   7.606  13.234  0.3396  1.6893 -0.7896
   56DOPE    C3 7122   1.269   7.175  13.200 -0.3521  0.1149 -0.1346
   56DOPE    HX 7123   1.351   7.184  13.125  0.2036  1.6957  0.6080
   56DOPE    HY 7124   1.208   7.084  13.186 -2.4015  1.4966 -0.5584
   56DOPE   O31 7125   1.328   7.183  13.332  0.2929 -0.3301 -0.1801
   56DOPE   C31 7126   1.436   7.110  13.361  0.5595 -0.6256  0.9525
   56DOPE   O32 7127   1.465   7.004  13.315  0.5124  0.5290  0.2271
   56DOPE   C32 7128   1.504   7.176  13.481 -0.1412 -0.1108 -0.2850
   56DOPE   H2X 7129   1.477   7.284  13.473  2.2739  0.5546 -0.1522
   56DOPE   H2Y 7130   1.464   7.135  13.576  1.8333  2.0763  1.6151
   56DOPE   C23 7131   1.194   7.703  13.375  0.0258  0.2024  0.2615
   56DOPE   H3R 7132   1.091   7.745  13.375  0.5981  1.7110  1.5999
   56DOPE   H3S 7133   1.264   7.789  13.381  1.6773 -1.1315  0.8752
   56DOPE   C24 7134   1.218   7.619  13.502 -0.0467  0.1322 -0.2359
   56DOPE   H4R 7135   1.156   7.529  13.519 -0.9253  0.6379 -0.6944
   56DOPE   H4S 7136   1.196   7.691  13.584  1.9462  0.1117  0.3739
   56DOPE   C25 7137   1.367   7.568  13.517  0.0405  0.3862 -0.3723
   56DOPE   H5R 7138   1.430   7.650  13.476 -1.4948  2.0057  0.3443
   56DOPE   H5S 7139   1.381   7.483  13.447 -1.5985  1.2225 -1.8025
   56DOPE   C26 7140   1.410   7.548  13.661 -0.1800  0.1393 -0.7359
   56DOPE   H6R 7141   1.395   7.638  13.725  2.4126  0.1233  0.0080
   56DOPE   H6S 7142   1.518   7.522  13.658 -0.0392  0.4841  0.5156
   56DOPE   C27 7143   1.349   7.415  13.724  0.2406 -0.3496  0.6092
   56DOPE   H7R 7144   1.337   7.342  13.640 -1.2706  3.0522 -2.4158
   56DOPE   H7S 7145   1.244   7.440  13.751 -0.2996 -0.9803 -0.7722
   56DOPE   C28 7146   1.433   7.352  13.829  0.0677  0.2064  0.0539
   56DOPE   H8R 7147   1.470   7.426  13.903  1.7027  1.3083 -1.7434
   56DOPE   H8S 7148   1.523   7.317  13.773 -0.7684 -0.3843 -0.9563
   56DOPE   C29 7149   1.356   7.235  13.888 -0.7516 -0.2882 -0.8223
   56DOPE   H9R 7150   1.298   7.174  13.817 -2.3774  1.9039 -1.4957
   56DOPE  C210 7151   1.356   7.187  14.020 -0.6032  0.0878  0.3865
   56DOPE  H10R 7152   1.312   7.090  14.049 -0.5499 -0.9517 -2.7175
   56DOPE  C211 7153   1.431   7.253  14.128 -0.0070 -0.6995 -0.5521
   56DOPE  H11R 7154   1.386   7.347  14.167  2.7566 -0.9244  3.8547
   56DOPE  H11S 7155   1.537   7.270  14.099  0.0852 -1.5290 -0.7382
   56DOPE  C212 7156   1.452   7.159  14.255 -0.7470  0.2055 -0.1964
   56DOPE  H12R 7157   1.527   7.207  14.322  0.5034 -0.6539 -0.9135
   56DOPE  H12S 7158   1.494   7.061  14.223  0.4918  1.3865 -2.4238
   56DOPE  C213 7159   1.329   7.137  14.346  0.9296 -0.0549  0.5509
   56DOPE  H13R 7160   1.242   7.106  14.283  1.5286  0.3514 -0.4989
   56DOPE  H13S 7161   1.299   7.231  14.397  0.6070  0.2934 -0.2649
   56DOPE  C214 7162   1.357   7.030  14.452  0.0496  0.1203 -0.0310
   56DOPE  H14R 7163   1.435   7.076  14.517 -0.3154  0.7948 -0.0586
   56DOPE  H14S 7164   1.406   6.950  14.393 -2.5878 -0.7052 -1.2386
   56DOPE  C215 7165   1.242   6.967  14.530 -0.8458 -0.2813 -0.5161
   56DOPE  H15R 7166   1.192   6.902  14.455  0.6062 -1.9534 -0.1186
   56DOPE  H15S 7167   1.170   7.042  14.568 -0.6835  0.2975 -1.3131
   56DOPE  C216 7168   1.279   6.886  14.653  0.2997  0.2937 -0.3436
   56DOPE  H16R 7169   1.344   6.808  14.607  0.3495 -0.4224  0.9081
   56DOPE  H16S 7170   1.190   6.846  14.706  2.4815 -1.1319  2.5519
   56DOPE  C217 7171   1.354   6.962  14.771  0.1094  0.1439  0.2630
   56DOPE  H17R 7172   1.418   7.041  14.726  1.3670 -0.5829  0.7301
   56DOPE  H17S 7173   1.420   6.885  14.816  1.7964 -0.9552 -3.6333
   56DOPE  C218 7174   1.254   7.006  14.873  0.4605 -0.3486  0.3148
   56DOPE  H18R 7175   1.181   6.925  14.893  0.7715 -0.3651  1.4925
   56DOPE  H18S 7176   1.191   7.089  14.835  2.4516  1.7458  1.3101
   56DOPE  H18T 7177   1.306   7.053  14.960 -0.8009 -0.1071  0.9733
   56DOPE   C33 7178   1.656   7.161  13.469 -0.1041  0.5013 -0.3836
   56DOPE   H3X 7179   1.688   7.224  13.384  0.5684 -0.5125 -0.9023
   56DOPE   H3Y 7180   1.680   7.057  13.439 -3.0020 -0.5474  0.5199
   56DOPE   C34 7181   1.747   7.186  13.598 -0.3415  0.2516  0.4534
   56DOPE   H4X 7182   1.854   7.191  13.567 -0.1873 -0.0545  0.9237
   56DOPE   H4Y 7183   1.719   7.287  13.634 -1.1880 -0.3140  1.3965
   56DOPE   C35 7184   1.742   7.080  13.712  0.4525 -0.0047  0.3642
   56DOPE   H5X 7185   1.797   6.987  13.684  1.0354 -0.2185  2.0812
   56DOPE   H5Y 7186   1.639   7.040  13.719  0.0619  0.6820 -1.1008
   56DOPE   C36 7187   1.781   7.137  13.843  0.8107  1.0082 -0.3368
   56DOPE   H6X 7188   1.701   7.206  13.876 -3.3045 -2.3264 -2.3451
   56DOPE   H6Y 7189   1.871   7.200  13.829 -0.0127  2.1218 -0.7112
   56DOPE   C37 7190   1.814   7.023  13.948 -0.0191 -0.4902 -0.5199
   56DOPE   H7X 7191   1.725   6.958  13.941 -0.7648 -0.0238  2.9127
   56DOPE   H7Y 7192   1.904   6.963  13.919  1.2249  1.2164 -0.3524
   56DOPE   C38 7193   1.830   7.071  14.102  0.2590  0.4988 -0.0960
   56DOPE   H8X 7194   1.743   7.126  14.143  0.5896  0.0416  1.2987
   56DOPE   H8Y 7195   1.913   7.142  14.085 -0.5916  0.9122 -3.0464
   56DOPE   C39 7196   1.862   6.952  14.192  0.1123  0.3488 -0.7500
   56DOPE   H9X 7197   1.852   6.847  14.161  1.9472 -0.1339  0.1296
   56DOPE  C310 7198   1.902   6.971  14.323 -0.2784 -0.5870  0.0101
   56DOPE  H10X 7199   1.909   6.876  14.379  0.1200 -1.3258 -1.2607
   56DOPE  C311 7200   1.925   7.099  14.389 -0.0854 -0.5935 -0.2974
   56DOPE  H11X 7201   2.012   7.078  14.456  2.1252 -1.0721 -3.1043
   56DOPE  H11Y 7202   1.965   7.170  14.314  1.4511 -1.5333 -0.4182
   56DOPE  C312 7203   1.803   7.148  14.475 -0.1220  0.3388  0.5419
   56DOPE  H12X 7204   1.725   7.188  14.406  0.1021  3.3034  1.8230
   56DOPE  H12Y 7205   1.823   7.234  14.542 -2.0420 -0.7349  2.5998
   56DOPE  C313 7206   1.745   7.042  14.564  0.1733 -0.2541  0.1385
   56DOPE  H13X 7207   1.672   7.097  14.626 -1.1021  1.5091 -2.7037
   56DOPE  H13Y 7208   1.691   6.971  14.498 -2.2714  0.0514  1.7017
   56DOPE  C314 7209   1.831   6.971  14.670  0.3450 -0.6238  0.8476
   56DOPE  H14X 7210   1.907   7.037  14.718  0.5441 -0.3229  0.1263
   56DOPE  H14Y 7211   1.886   6.894  14.611  1.0669 -0.9249  1.8760
   56DOPE  C315 7212   1.743   6.900  14.769 -0.1434  0.6045 -0.1123
   56DOPE  H15X 7213   1.652   6.860  14.719 -0.7687 -0.5678  1.8673
   56DOPE  H15Y 7214   1.720   6.986  14.836 -0.4087  0.6360 -0.2429
   56DOPE  C316 7215   1.795   6.788  14.850 -0.0969 -0.1410 -0.5176
   56DOPE  H16X 7216   1.887   6.819  14.903 -0.6815  1.2689 -0.2658
   56DOPE  H16Y 7217   1.825   6.712  14.775 -1.4650  0.1336 -1.3913
   56DOPE  C317 7218   1.700   6.729  14.959 -0.4790  0.9009  0.2932
   56DOPE  H17X 7219   1.690   6.798  15.046 -2.5903  0.2641  0.6057
   56DOPE  H17Y 7220   1.600   6.708  14.915 -1.1473 -1.1525  2.5683
   56DOPE  C318 7221   1.754   6.595  15.012 -0.2761  0.6698 -0.0121
   56DOPE  H18X 7222   1.783   6.524  14.932  1.0904 -0.9421  1.8138
   56DOPE  H18Y 7223   1.853   6.605  15.061 -0.1630 -1.9573  0.3985
   56DOPE  H18Z 7224   1.691   6.550  15.091  0.6977 -0.6854  0.0278
   57DOPE     N 7225   0.001   2.235  12.715 -0.2705 -0.6440 -0.5283
   57DOPE   HN1 7226  -0.004   2.339  12.712  0.9213 -0.4664  1.4345
   57DOPE   HN2 7227  -0.024   2.181  12.630 -0.0254 -1.7317  0.0716
   57DOPE   HN3 7228  -0.068   2.199  12.784 -0.6938 -4.1774 -2.5654
   57DOPE   C12 7229   0.136   2.191  12.767 -0.5801  0.3249  0.6304
   57DOPE  H12A 7230   0.205   2.237  12.692 -1.4777 -0.3880 -0.6718
   57DOPE  H12B 7231   0.147   2.081  12.774  1.8629  0.5569  1.2922
   57DOPE   C11 7232   0.159   2.250  12.908 -0.1218 -0.4348 -0.5788
   57DOPE  H11A 7233   0.239   2.191  12.957 -0.2588 -1.4498 -1.5392
   57DOPE  H11B 7234   0.068   2.226  12.968 -0.1725 -0.2399 -0.5779
   57DOPE     P 7235   0.273   2.479  13.000 -0.6099  0.4629  0.3206
   57DOPE   O13 7236   0.216   2.613  13.015 -0.3839  0.4054 -0.1470
   57DOPE   O14 7237   0.411   2.469  12.956 -0.2494 -0.1334 -0.2213
   57DOPE   O11 7238   0.264   2.391  13.129  0.0479 -0.7235 -0.6679
   57DOPE   O12 7239   0.178   2.395  12.903 -0.7964 -0.0208 -0.0580
   57DOPE    C1 7240   0.137   2.370  13.200 -0.4289 -0.5150  0.3698
   57DOPE    HA 7241   0.097   2.266  13.201 -1.2789 -0.3107 -2.6988
   57DOPE    HB 7242   0.052   2.423  13.152 -0.9888 -2.7814 -1.2861
   57DOPE    C2 7243   0.148   2.427  13.342  0.5845 -0.5698 -0.5226
   57DOPE    HS 7244   0.173   2.533  13.323 -0.6741  0.0046  0.8180
   57DOPE   O21 7245   0.257   2.356  13.408  0.4311 -0.1564 -0.0797
   57DOPE   C21 7246   0.355   2.432  13.461  0.0022  0.3935  0.3653
   57DOPE   O22 7247   0.353   2.553  13.458  0.3632 -0.0336 -0.0571
   57DOPE   C22 7248   0.471   2.360  13.526 -0.3788  0.1088 -0.3573
   57DOPE   H2R 7249   0.565   2.398  13.479  0.7516 -1.2561  0.7075
   57DOPE   H2S 7250   0.468   2.250  13.513  2.4733  0.0883 -1.7045
   57DOPE    C3 7251   0.024   2.425  13.434  0.8736  0.2996 -0.0657
   57DOPE    HX 7252  -0.044   2.473  13.361 -0.0346  0.3894  0.8178
   57DOPE    HY 7253   0.043   2.480  13.529  2.8175  1.1238 -0.8735
   57DOPE   O31 7254  -0.017   2.292  13.464 -0.5821  0.2568  0.6702
   57DOPE   C31 7255  -0.128   2.279  13.544 -0.6761  0.1546 -0.2863
   57DOPE   O32 7256  -0.183   2.374  13.595 -0.4832 -0.2184 -0.0312
   57DOPE   C32 7257  -0.163   2.134  13.586  0.6205 -0.2447 -0.0610
   57DOPE   H2X 7258  -0.263   2.143  13.633  0.3175  2.1360 -0.9909
   57DOPE   H2Y 7259  -0.175   2.065  13.499 -2.4218 -1.9117  1.5266
   57DOPE   C23 7260   0.478   2.398  13.675  0.1726  0.0653  0.3383
   57DOPE   H3R 7261   0.439   2.498  13.705  1.9069  0.1938  2.3999
   57DOPE   H3S 7262   0.587   2.400  13.697  0.1022 -1.7305  1.0071
   57DOPE   C24 7263   0.425   2.298  13.775 -0.3582  0.5349 -0.5424
   57DOPE   H4R 7264   0.482   2.204  13.761  3.4575  2.4791  0.5869
   57DOPE   H4S 7265   0.314   2.287  13.770 -0.2944 -0.8378  0.6035
   57DOPE   C25 7266   0.460   2.350  13.919 -0.4795 -0.1048  0.6927
   57DOPE   H5R 7267   0.398   2.441  13.932 -2.7525 -1.0938 -2.1999
   57DOPE   H5S 7268   0.565   2.380  13.942 -0.8454 -0.8632  3.8075
   57DOPE   C26 7269   0.428   2.244  14.020 -0.3202 -0.0953 -0.2800
   57DOPE   H6R 7270   0.499   2.160  14.004 -0.7599  0.0177 -3.4608
   57DOPE   H6S 7271   0.326   2.199  14.010 -0.0147 -0.8166 -0.1921
   57DOPE   C27 7272   0.443   2.292  14.165 -0.3846 -0.5048 -0.8856
   57DOPE   H7R 7273   0.389   2.388  14.184  0.1338 -0.1769 -1.0510
   57DOPE   H7S 7274   0.552   2.310  14.172 -0.1817 -1.7094 -0.7971
   57DOPE   C28 7275   0.394   2.180  14.261  1.3280 -0.3142 -0.2048
   57DOPE   H8R 7276   0.453   2.087  14.246  0.0977 -1.4053  1.3227
   57DOPE   H8S 7277   0.288   2.155  14.236 -0.0355  2.9671  1.6620
   57DOPE   C29 7278   0.407   2.224  14.402 -0.1475 -0.5619  0.0305
   57DOPE   H9R 7279   0.488   2.296  14.423  0.2825 -0.7541 -0.9314
   57DOPE  C210 7280   0.312   2.206  14.497 -0.3506  0.6757  0.3991
   57DOPE  H10R 7281   0.326   2.266  14.588  1.3856 -0.2000  0.7413
   57DOPE  C211 7282   0.178   2.131  14.484  0.0818  0.4093  0.2527
   57DOPE  H11R 7283   0.161   2.091  14.382  1.8522 -0.4859  0.2774
   57DOPE  H11S 7284   0.095   2.203  14.499 -1.2972 -0.9008 -0.7705
   57DOPE  C212 7285   0.169   2.018  14.587  0.2125 -0.6320  0.1439
   57DOPE  H12R 7286   0.257   1.951  14.588 -1.2771 -2.6865  0.4090
   57DOPE  H12S 7287   0.080   1.952  14.575  1.3224 -2.4464  1.3690
   57DOPE  C213 7288   0.160   2.072  14.727  0.5552  0.3177  0.1606
   57DOPE  H13R 7289   0.065   2.130  14.723 -1.6370 -2.9978 -0.0164
   57DOPE  H13S 7290   0.239   2.144  14.756 -1.3134  2.1957  0.8560
   57DOPE  C214 7291   0.148   1.968  14.842  0.8209 -0.1401  0.3044
   57DOPE  H14R 7292   0.235   1.899  14.845  1.8323  1.0841  3.2263
   57DOPE  H14S 7293   0.056   1.908  14.829  1.3453 -1.0840  0.8055
   57DOPE  C215 7294   0.126   2.036  14.980 -0.2141  0.1969  0.3948
   57DOPE  H15R 7295   0.044   2.110  14.972 -0.2551  0.3042  1.6313
   57DOPE  H15S 7296   0.219   2.090  15.006 -0.1669  0.1501  0.3245
   57DOPE  C216 7297   0.089   1.934  15.098 -0.4334  0.4084 -0.0434
   57DOPE  H16R 7298  -0.004   1.879  15.075 -0.3255  0.8864 -1.7545
   57DOPE  H16S 7299   0.063   1.996  15.187 -0.4686  2.0289 -1.1335
   57DOPE  C217 7300   0.201   1.834  15.131 -0.0344  0.1906  0.0283
   57DOPE  H17R 7301   0.302   1.876  15.154  0.5842 -0.8046 -0.7672
   57DOPE  H17S 7302   0.223   1.770  15.042 -3.0726  0.8360 -1.3344
   57DOPE  C218 7303   0.163   1.740  15.250  0.1379  0.1480 -0.1301
   57DOPE  H18R 7304   0.067   1.685  15.252  1.0167 -1.4753 -0.6921
   57DOPE  H18S 7305   0.161   1.807  15.339  1.0527 -1.0142  0.8007
   57DOPE  H18T 7306   0.241   1.661  15.261  0.2967  0.4155  0.8063
   57DOPE   C33 7307  -0.062   2.080  13.687 -0.2362  0.0448 -0.1839
   57DOPE   H3X 7308   0.044   2.093  13.659 -0.7405 -0.5473 -2.6274
   57DOPE   H3Y 7309  -0.071   1.969  13.691  1.8585 -0.1387  0.6138
   57DOPE   C34 7310  -0.084   2.142  13.825 -0.5642 -0.4444  0.3071
   57DOPE   H4X 7311  -0.046   2.246  13.817  2.6961 -1.6796 -3.0182
   57DOPE   H4Y 7312  -0.193   2.157  13.837 -0.6224 -2.0448  2.2121
   57DOPE   C35 7313  -0.016   2.066  13.938 -0.1626 -0.5140  0.9628
   57DOPE   H5X 7314   0.092   2.091  13.936 -0.4646  0.8756 -0.5657
   57DOPE   H5Y 7315  -0.026   1.958  13.913  0.2063 -0.1654 -0.8757
   57DOPE   C36 7316  -0.064   2.105  14.073  0.1425 -0.2780 -0.3468
   57DOPE   H6X 7317  -0.100   2.210  14.085  0.3994  0.0440 -2.0653
   57DOPE   H6Y 7318   0.017   2.093  14.148 -0.2700 -0.0563  0.1374
   57DOPE   C37 7319  -0.194   2.032  14.118  0.7547  0.8653 -0.6759
   57DOPE   H7X 7320  -0.274   2.021  14.042  0.6534 -3.2000 -0.2049
   57DOPE   H7Y 7321  -0.169   1.926  14.143  2.0696  1.2709 -0.2047
   57DOPE   C38 7322  -0.245   2.087  14.255  0.2424  0.3552  0.2857
   57DOPE   H8X 7323  -0.270   2.192  14.228  2.1251  1.1457  1.3774
   57DOPE   H8Y 7324  -0.160   2.082  14.326 -0.4058  0.7684  1.1069
   57DOPE   C39 7325  -0.362   2.016  14.301  0.5780  0.6572  0.1646
   57DOPE   H9X 7326  -0.433   2.014  14.217 -0.9250 -1.5537  1.3985
   57DOPE  C310 7327  -0.393   1.969  14.423  0.2012 -0.4564  0.4171
   57DOPE  H10X 7328  -0.491   1.921  14.437 -0.3839  0.3997 -0.5518
   57DOPE  C311 7329  -0.295   1.955  14.530 -0.3096 -0.3416  0.1058
   57DOPE  H11X 7330  -0.200   2.009  14.508 -1.0830  1.0445  0.0653
   57DOPE  H11Y 7331  -0.339   2.011  14.615 -0.1991 -0.8248  0.4835
   57DOPE  C312 7332  -0.288   1.806  14.578  0.5877  0.0347  0.0393
   57DOPE  H12X 7333  -0.263   1.748  14.487 -0.8913 -1.9105  0.8113
   57DOPE  H12Y 7334  -0.387   1.770  14.614  0.7758  0.9553  1.5544
   57DOPE  C313 7335  -0.187   1.774  14.685 -0.1775  0.2318 -0.4409
   57DOPE  H13X 7336  -0.086   1.799  14.648 -0.3144 -0.1971 -1.1345
   57DOPE  H13Y 7337  -0.204   1.841  14.771  0.8991  1.6658 -1.3024
   57DOPE  C314 7338  -0.193   1.626  14.719  0.8487  0.0595  0.5249
   57DOPE  H14X 7339  -0.174   1.563  14.630  1.7343 -0.6621  1.2057
   57DOPE  H14Y 7340  -0.299   1.609  14.747  0.1815  0.0465 -1.8370
   57DOPE  C315 7341  -0.115   1.589  14.844  0.3929 -0.1636  0.2016
   57DOPE  H15X 7342  -0.142   1.666  14.919 -2.5399  0.7673 -1.6315
   57DOPE  H15Y 7343  -0.006   1.589  14.820  0.3504 -3.4618 -0.4715
   57DOPE  C316 7344  -0.147   1.441  14.896  0.0402 -0.2202 -1.1498
   57DOPE  H16X 7345  -0.092   1.374  14.827  2.4077 -1.1059  1.3880
   57DOPE  H16Y 7346  -0.254   1.414  14.900  0.8702 -4.0809 -0.5430
   57DOPE  C317 7347  -0.100   1.417  15.044 -0.4405  0.2086  0.5498
   57DOPE  H17X 7348  -0.151   1.483  15.117  0.7016  1.0936  0.5887
   57DOPE  H17Y 7349  -0.125   1.310  15.063  2.4971 -1.3031 -2.8143
   57DOPE  C318 7350   0.047   1.453  15.058  0.4765 -0.2319 -0.0177
   57DOPE  H18X 7351   0.081   1.556  15.038  2.0948 -0.9514 -1.2130
   57DOPE  H18Y 7352   0.074   1.423  15.162 -0.3229 -2.1578 -0.3195
   57DOPE  H18Z 7353   0.114   1.386  14.999  0.8189 -1.0886  1.2835
   58DOPE     N 7354   0.605   6.583  12.867  0.1042 -0.5502 -0.7635
   58DOPE   HN1 7355   0.614   6.680  12.904 -0.1426 -1.5859  2.3452
   58DOPE   HN2 7356   0.577   6.576  12.768  1.1578 -0.7224 -1.0614
   58DOPE   HN3 7357   0.532   6.539  12.927 -0.3368 -0.9822 -1.6036
   58DOPE   C12 7358   0.734   6.523  12.881 -0.9639 -0.3892  0.0197
   58DOPE  H12A 7359   0.775   6.569  12.974  0.2675  2.7662 -1.8999
   58DOPE  H12B 7360   0.796   6.565  12.799 -1.0912  0.4963  0.3613
   58DOPE   C11 7361   0.741   6.372  12.870  0.0072 -0.6727 -0.2146
   58DOPE  H11A 7362   0.837   6.328  12.837  0.1080  0.0024 -0.8496
   58DOPE  H11B 7363   0.683   6.350  12.778 -0.2210 -0.3497 -0.1485
   58DOPE     P 7364   0.761   6.269  13.099  0.4100 -0.4025 -0.1576
   58DOPE   O13 7365   0.886   6.210  13.049 -0.0618 -0.3354 -0.7451
   58DOPE   O14 7366   0.679   6.191  13.194 -0.0749 -0.2667 -0.2510
   58DOPE   O11 7367   0.797   6.403  13.174 -0.4159  0.1411 -0.2645
   58DOPE   O12 7368   0.673   6.302  12.979 -0.0168 -0.3330 -0.2395
   58DOPE    C1 7369   0.923   6.415  13.247 -0.1654 -0.0638 -0.1358
   58DOPE    HA 7370   0.970   6.515  13.235  1.3297 -0.8205 -0.7490
   58DOPE    HB 7371   0.997   6.340  13.212 -0.1597 -0.5049  0.7682
   58DOPE    C2 7372   0.906   6.395  13.398  0.5531  0.4745  0.0893
   58DOPE    HS 7373   0.859   6.295  13.409  2.0544 -0.1363  1.2221
   58DOPE   O21 7374   0.831   6.499  13.465  0.0691 -0.4083  0.3769
   58DOPE   C21 7375   0.743   6.455  13.553  1.1387 -0.7294  0.0543
   58DOPE   O22 7376   0.726   6.340  13.583  0.3256  0.5178  0.0274
   58DOPE   C22 7377   0.647   6.564  13.596 -0.3120 -0.6469 -0.0249
   58DOPE   H2R 7378   0.556   6.530  13.542  0.8037 -2.5599 -0.7823
   58DOPE   H2S 7379   0.678   6.669  13.576 -1.3298 -0.5105 -0.9946
   58DOPE    C3 7380   1.049   6.382  13.462 -0.1860  0.1866 -0.2105
   58DOPE    HX 7381   1.096   6.481  13.444  1.2828 -0.8287 -2.4269
   58DOPE    HY 7382   1.100   6.310  13.394  1.2213  1.4840 -0.5978
   58DOPE   O31 7383   1.042   6.341  13.597  0.3423  0.0489 -0.6548
   58DOPE   C31 7384   1.052   6.212  13.624  0.0370  0.4382 -0.6929
   58DOPE   O32 7385   1.068   6.133  13.537 -0.2306 -0.2290 -0.1140
   58DOPE   C32 7386   1.045   6.188  13.776  1.0029  0.5186 -0.1046
   58DOPE   H2X 7387   0.980   6.266  13.820  0.7241  1.2182 -1.6591
   58DOPE   H2Y 7388   1.000   6.087  13.777  0.0849  0.9139  0.1472
   58DOPE   C23 7389   0.625   6.568  13.748 -0.0990  0.6967 -0.2421
   58DOPE   H3R 7390   0.701   6.635  13.795  1.9489 -1.2946 -0.5412
   58DOPE   H3S 7391   0.641   6.466  13.789  2.9660  1.5287  0.8944
   58DOPE   C24 7392   0.486   6.621  13.784  0.1036 -0.0687  0.5058
   58DOPE   H4R 7393   0.408   6.554  13.741 -1.5247  0.7987  1.9455
   58DOPE   H4S 7394   0.486   6.721  13.735  2.0165 -0.7195 -0.9226
   58DOPE   C25 7395   0.450   6.647  13.933 -0.8755 -0.5498  1.2243
   58DOPE   H5R 7396   0.349   6.688  13.954 -1.4878 -1.3244 -0.0586
   58DOPE   H5S 7397   0.527   6.719  13.968  0.2429 -1.5004  0.7817
   58DOPE   C26 7398   0.459   6.523  14.021 -0.4429  0.4454  0.8117
   58DOPE   H6R 7399   0.540   6.453  13.991 -2.1469 -0.7893 -1.2519
   58DOPE   H6S 7400   0.364   6.467  14.010 -0.3513  0.4295  0.0145
   58DOPE   C27 7401   0.498   6.555  14.163 -0.1020  0.9110  0.0452
   58DOPE   H7R 7402   0.417   6.612  14.213 -0.4280  1.5966 -1.2091
   58DOPE   H7S 7403   0.592   6.614  14.171 -0.7245  1.8876  0.3369
   58DOPE   C28 7404   0.531   6.434  14.246 -0.0697  0.5337 -0.5576
   58DOPE   H8R 7405   0.574   6.463  14.344  0.8287 -1.4185 -0.3235
   58DOPE   H8S 7406   0.626   6.390  14.208 -0.0078  0.1274  0.0591
   58DOPE   C29 7407   0.420   6.337  14.256  0.4285 -0.2201 -0.2544
   58DOPE   H9R 7408   0.401   6.282  14.163  2.5420 -2.4612  0.5172
   58DOPE  C210 7409   0.334   6.315  14.357  0.4230 -0.1849  0.1402
   58DOPE  H10R 7410   0.253   6.243  14.344  0.6323 -0.8348  2.0887
   58DOPE  C211 7411   0.338   6.380  14.493 -0.5237 -0.0741 -0.2757
   58DOPE  H11R 7412   0.264   6.462  14.495 -1.3157 -0.7726 -0.4353
   58DOPE  H11S 7413   0.431   6.440  14.502 -1.3643  1.2149  0.0387
   58DOPE  C212 7414   0.316   6.272  14.602 -0.2970 -0.5848 -0.8283
   58DOPE  H12R 7415   0.403   6.203  14.601  0.7128  0.6242  0.4368
   58DOPE  H12S 7416   0.218   6.223  14.584 -1.8483  1.5103  1.3040
   58DOPE  C213 7417   0.307   6.327  14.751  0.0933 -0.0087  0.9681
   58DOPE  H13R 7418   0.403   6.365  14.792  0.4589  0.8627 -0.5920
   58DOPE  H13S 7419   0.284   6.236  14.810  0.2024 -2.2046 -2.1309
   58DOPE  C214 7420   0.202   6.442  14.768  0.2693 -0.3390  0.1295
   58DOPE  H14R 7421   0.105   6.387  14.772 -1.1021  1.8947 -0.5980
   58DOPE  H14S 7422   0.211   6.516  14.686  0.2498 -2.0383 -1.4669
   58DOPE  C215 7423   0.235   6.511  14.899 -0.0795  0.2379 -0.2366
   58DOPE  H15R 7424   0.321   6.580  14.884  0.5629 -0.0505  1.7908
   58DOPE  H15S 7425   0.276   6.438  14.972  1.7547  2.0342  0.6280
   58DOPE  C216 7426   0.113   6.583  14.967 -0.3698 -0.1244 -0.3702
   58DOPE  H16R 7427   0.018   6.547  14.922 -1.5637 -0.2951  2.1179
   58DOPE  H16S 7428   0.121   6.691  14.944  0.2011 -0.1008 -0.0836
   58DOPE  C217 7429   0.120   6.563  15.122 -0.6173  0.7542  0.9496
   58DOPE  H17R 7430   0.223   6.537  15.153 -0.0976  1.6361  0.0247
   58DOPE  H17S 7431   0.060   6.470  15.130  1.7843 -1.2636 -2.0025
   58DOPE  C218 7432   0.063   6.681  15.200  0.2352  0.3083 -0.1132
   58DOPE  H18R 7433   0.058   6.652  15.307 -1.5927  1.4706  0.1662
   58DOPE  H18S 7434  -0.039   6.701  15.161  0.5450 -1.0198 -1.7305
   58DOPE  H18T 7435   0.126   6.771  15.183 -3.2223  3.5501  2.5765
   58DOPE   C33 7436   1.187   6.206  13.836 -0.3270  0.1897  0.3276
   58DOPE   H3X 7437   1.245   6.297  13.811  1.3499 -1.2053 -1.1588
   58DOPE   H3Y 7438   1.240   6.122  13.786 -0.4638 -0.7808  1.7497
   58DOPE   C34 7439   1.183   6.187  13.992  0.5169 -0.0959 -0.2005
   58DOPE   H4X 7440   1.144   6.282  14.033  0.1012 -1.3555  2.5656
   58DOPE   H4Y 7441   1.110   6.108  14.020 -0.4517  0.9595  0.3112
   58DOPE   C35 7442   1.329   6.172  14.046 -0.0061  0.2228 -0.0357
   58DOPE   H5X 7443   1.397   6.240  13.991  1.0090 -0.8265 -0.1071
   58DOPE   H5Y 7444   1.358   6.068  14.021 -0.7826 -0.4190  1.5570
   58DOPE   C36 7445   1.332   6.207  14.201  0.3063  0.1076  0.4674
   58DOPE   H6X 7446   1.262   6.293  14.214  0.0981 -0.1709  1.2074
   58DOPE   H6Y 7447   1.438   6.237  14.214  0.3917 -0.3738  0.9304
   58DOPE   C37 7448   1.289   6.092  14.308 -0.0942  0.2007  0.4124
   58DOPE   H7X 7449   1.239   6.141  14.394  0.0561  1.8335 -0.3830
   58DOPE   H7Y 7450   1.209   6.027  14.265 -0.4887  0.3312  0.9359
   58DOPE   C38 7451   1.409   6.005  14.359  0.1257 -0.2980 -0.3482
   58DOPE   H8X 7452   1.461   5.967  14.269 -0.5115 -0.1773 -0.7734
   58DOPE   H8Y 7453   1.375   5.913  14.412 -1.5208  1.1266  1.1918
   58DOPE   C39 7454   1.505   6.092  14.441  0.2121 -0.3163  0.0535
   58DOPE   H9X 7455   1.457   6.144  14.525  0.3969 -0.3073  0.1533
   58DOPE  C310 7456   1.631   6.125  14.420 -0.1393 -1.0449  0.4051
   58DOPE  H10X 7457   1.663   6.210  14.481 -2.2995  0.2915 -0.2069
   58DOPE  C311 7458   1.714   6.070  14.306  0.2869 -0.3134 -0.0091
   58DOPE  H11X 7459   1.807   6.029  14.353 -0.5252 -2.4095 -0.1184
   58DOPE  H11Y 7460   1.658   5.989  14.256  0.1859 -1.1034  1.3251
   58DOPE  C312 7461   1.750   6.181  14.213  0.0065 -0.1571  0.2701
   58DOPE  H12X 7462   1.808   6.259  14.266  1.1968 -0.5203 -0.4662
   58DOPE  H12Y 7463   1.656   6.231  14.180  0.2435  0.1728  0.0927
   58DOPE  C313 7464   1.833   6.120  14.097 -0.2988 -0.6997 -0.2648
   58DOPE  H13X 7465   1.913   6.058  14.142  0.7807  1.2912  0.6825
   58DOPE  H13Y 7466   1.777   6.064  14.019  2.7277 -2.5249 -1.2794
   58DOPE  C314 7467   1.912   6.220  14.009 -0.7231 -0.8213 -0.5452
   58DOPE  H14X 7468   1.993   6.277  14.061 -0.9304 -0.0052 -1.0928
   58DOPE  H14Y 7469   1.839   6.287  13.959 -0.4252 -0.7029 -0.8248
   58DOPE  C315 7470   1.975   6.161  13.883 -0.2144  0.5238  0.7812
   58DOPE  H15X 7471   1.890   6.128  13.820  1.0612  0.3483 -0.9192
   58DOPE  H15Y 7472   2.048   6.082  13.912  0.2176  1.0451  1.1509
   58DOPE  C316 7473   2.049   6.263  13.795 -0.7252 -0.1878 -0.2888
   58DOPE  H16X 7474   2.134   6.310  13.849 -0.2168 -0.5967 -0.7206
   58DOPE  H16Y 7475   1.970   6.337  13.772 -1.1252 -0.3098  0.6475
   58DOPE  C317 7476   2.113   6.225  13.662 -0.2291  0.3302 -0.2759
   58DOPE  H17X 7477   2.164   6.314  13.619 -2.6157  0.9255 -2.0936
   58DOPE  H17Y 7478   2.166   6.131  13.688  1.4670  1.2194 -0.4066
   58DOPE  C318 7479   2.010   6.189  13.554  0.2561 -0.1445  0.4319
   58DOPE  H18X 7480   1.950   6.281  13.538  0.3760 -0.0656  0.4290
   58DOPE  H18Y 7481   2.056   6.168  13.455 -0.3579 -3.7211  0.7475
   58DOPE  H18Z 7482   1.950   6.101  13.588  0.4119 -0.3382  0.2074
   59DOPE     N 7483   7.215   0.747  13.020  0.1886 -0.5194 -0.0689
   59DOPE   HN1 7484   7.232   0.722  13.119 -0.4187 -2.1484 -0.3361
   59DOPE   HN2 7485   7.181   0.667  12.963 -0.3321 -1.3277  1.3476
   59DOPE   HN3 7486   7.309   0.777  12.985 -0.3841  1.3718 -0.0830
   59DOPE   C12 7487   7.121   0.860  13.012  0.1378  0.0789 -0.4377
   59DOPE  H12A 7488   7.150   0.942  13.081 -0.5257 -0.1570  0.1355
   59DOPE  H12B 7489   7.022   0.829  13.053 -1.0571  2.6085 -1.2002
   59DOPE   C11 7490   7.091   0.907  12.875 -0.4289  0.9786 -0.4951
   59DOPE  H11A 7491   6.991   0.954  12.866 -1.5928 -1.3133 -0.3153
   59DOPE  H11B 7492   7.075   0.818  12.811 -2.7103  1.7599 -1.1001
   59DOPE     P 7493   7.195   1.138  12.833  0.4269  0.0269 -0.2734
   59DOPE   O13 7494   7.058   1.197  12.853 -0.0069  0.1998  0.7092
   59DOPE   O14 7495   7.269   1.219  12.733 -0.3852 -0.0149 -0.1707
   59DOPE   O11 7496   7.274   1.147  12.967  0.2488  0.5715 -0.9422
   59DOPE   O12 7497   7.199   0.980  12.814 -0.3065 -0.9047  0.1245
   59DOPE    C1 7498   7.225   1.220  13.085 -0.0476 -0.1430 -0.0173
   59DOPE    HA 7499   7.256   1.170  13.179  2.8199 -0.7345 -1.1788
   59DOPE    HB 7500   7.114   1.226  13.092  0.0295  1.1504  0.3578
   59DOPE    C2 7501   7.261   1.369  13.092 -0.0819 -0.5116  0.5771
   59DOPE    HS 7502   7.255   1.413  12.990  1.7478  0.5156  0.8522
   59DOPE   O21 7503   7.402   1.371  13.129  0.1312  0.4620  0.0131
   59DOPE   C21 7504   7.473   1.478  13.114 -0.2057  0.0395  0.4347
   59DOPE   O22 7505   7.434   1.581  13.062  0.0019 -0.1777 -0.0085
   59DOPE   C22 7506   7.613   1.450  13.173  0.3380 -0.1098  0.3082
   59DOPE   H2R 7507   7.677   1.540  13.162  1.1171 -0.8770 -2.0624
   59DOPE   H2S 7508   7.659   1.363  13.122 -1.1802 -0.0630 -1.2450
   59DOPE    C3 7509   7.164   1.438  13.190  0.0970 -0.2556  0.3362
   59DOPE    HX 7510   7.068   1.454  13.136  0.3291 -1.7424 -0.5777
   59DOPE    HY 7511   7.204   1.538  13.218 -1.0594  0.1641  0.5869
   59DOPE   O31 7512   7.148   1.354  13.304 -0.0591 -0.0691 -0.6810
   59DOPE   C31 7513   7.159   1.415  13.425  0.1291  0.1551  0.3505
   59DOPE   O32 7514   7.161   1.534  13.448 -0.0910  0.2336  0.2183
   59DOPE   C32 7515   7.172   1.298  13.534  0.7936  0.1730  0.1553
   59DOPE   H2X 7516   7.087   1.229  13.513 -1.1546  2.4911 -0.0005
   59DOPE   H2Y 7517   7.270   1.252  13.511  0.7345 -0.5785  1.2744
   59DOPE   C23 7518   7.599   1.437  13.321 -0.4216 -0.2664 -0.6071
   59DOPE   H3R 7519   7.696   1.396  13.356  0.3022  1.8560  0.0956
   59DOPE   H3S 7520   7.521   1.361  13.340  1.2158 -1.7290  0.6079
   59DOPE   C24 7521   7.557   1.559  13.406 -0.7413 -0.3858 -0.7984
   59DOPE   H4R 7522   7.454   1.593  13.383 -1.1260 -1.8206 -1.2734
   59DOPE   H4S 7523   7.629   1.642  13.389  0.2578 -0.9802  0.3492
   59DOPE   C25 7524   7.541   1.545  13.566  0.0860 -0.3486 -0.3767
   59DOPE   H5R 7525   7.644   1.538  13.607  0.1905  0.7215 -0.4278
   59DOPE   H5S 7526   7.484   1.450  13.578  0.0830 -0.6063 -2.1485
   59DOPE   C26 7527   7.480   1.674  13.623  0.5237  0.1194  0.0238
   59DOPE   H6R 7528   7.375   1.678  13.587  0.7438  1.1924 -0.5467
   59DOPE   H6S 7529   7.526   1.772  13.596  2.6144  0.1265  3.0051
   59DOPE   C27 7530   7.485   1.661  13.780  0.3771 -0.2814  0.2399
   59DOPE   H7R 7531   7.591   1.661  13.813  0.6978 -2.9190 -0.5781
   59DOPE   H7S 7532   7.457   1.560  13.814 -0.0910 -0.2397 -0.0033
   59DOPE   C28 7533   7.406   1.769  13.865 -0.6384  0.3919  0.5468
   59DOPE   H8R 7534   7.441   1.865  13.823  0.1720 -1.3460 -3.1937
   59DOPE   H8S 7535   7.441   1.759  13.970 -1.6136 -2.1879  0.7137
   59DOPE   C29 7536   7.259   1.752  13.855  0.9242 -0.2113  0.1234
   59DOPE   H9R 7537   7.230   1.754  13.749 -1.8744  2.5297  0.7902
   59DOPE  C210 7538   7.165   1.740  13.955  0.3150  0.0720  0.3893
   59DOPE  H10R 7539   7.058   1.737  13.931  0.3359 -1.9581  0.3921
   59DOPE  C211 7540   7.186   1.741  14.106  0.2532 -0.2492 -0.2660
   59DOPE  H11R 7541   7.129   1.829  14.143  1.0975  0.2603 -0.1378
   59DOPE  H11S 7542   7.295   1.756  14.126  0.5187 -0.0389 -1.7581
   59DOPE  C212 7543   7.139   1.609  14.180 -0.0013  0.0204  0.3032
   59DOPE  H12R 7544   7.179   1.516  14.135  1.4513  0.0723  1.4130
   59DOPE  H12S 7545   7.028   1.614  14.186 -0.0246  0.6705 -0.4357
   59DOPE  C213 7546   7.191   1.599  14.322 -0.5675 -0.3898 -0.3690
   59DOPE  H13R 7547   7.162   1.697  14.367 -1.2904 -0.1707 -1.2558
   59DOPE  H13S 7548   7.300   1.583  14.330 -0.9389 -1.9686  4.7066
   59DOPE  C214 7549   7.119   1.492  14.404  0.0391  0.0600 -0.3367
   59DOPE  H14R 7550   7.163   1.393  14.380 -0.1364 -0.0672 -0.1319
   59DOPE  H14S 7551   7.011   1.495  14.379  0.7213  1.7141 -3.7483
   59DOPE  C215 7552   7.140   1.514  14.552  0.5016  0.5186  0.4890
   59DOPE  H15R 7553   7.101   1.616  14.575 -0.5226 -0.0082  1.1652
   59DOPE  H15S 7554   7.248   1.503  14.574  0.9343  2.7066 -0.2758
   59DOPE  C216 7555   7.051   1.413  14.623  0.0195 -1.1785  0.2627
   59DOPE  H16R 7556   6.946   1.403  14.587 -0.0382  0.3524 -0.0323
   59DOPE  H16S 7557   7.039   1.454  14.726  1.0563 -0.5255  0.1309
   59DOPE  C217 7558   7.120   1.281  14.654  0.8544  0.1273 -0.5147
   59DOPE  H17R 7559   7.217   1.289  14.707  0.7179 -2.1475  0.2088
   59DOPE  H17S 7560   7.155   1.246  14.555  1.2518 -1.3671  0.1257
   59DOPE  C218 7561   7.029   1.170  14.712 -0.3000  0.6502  0.6080
   59DOPE  H18R 7562   6.943   1.163  14.642 -0.3217 -1.9125  0.8058
   59DOPE  H18S 7563   6.983   1.194  14.810 -0.0482 -1.0676  1.1733
   59DOPE  H18T 7564   7.070   1.067  14.714  0.7925  1.0873  1.5252
   59DOPE   C33 7565   7.166   1.337  13.683  0.2964  0.5448 -0.9543
   59DOPE   H3X 7566   7.251   1.408  13.686  0.0914  0.9094 -2.6232
   59DOPE   H3Y 7567   7.193   1.244  13.739 -0.5758  1.1381  0.5098
   59DOPE   C34 7568   7.033   1.391  13.738 -0.7658 -0.5212  0.0876
   59DOPE   H4X 7569   7.031   1.499  13.709  0.9029 -0.9972 -2.0541
   59DOPE   H4Y 7570   6.949   1.331  13.697 -0.9377 -1.7467  2.1329
   59DOPE   C35 7571   7.034   1.369  13.892  0.0464  0.4239  0.4024
   59DOPE   H5X 7572   7.112   1.432  13.940 -0.6293  0.0757  2.0185
   59DOPE   H5Y 7573   7.056   1.262  13.908  0.7271  0.8900  3.1063
   59DOPE   C36 7574   6.908   1.404  13.974 -0.9777 -0.0915  0.2248
   59DOPE   H6X 7575   6.813   1.388  13.918 -1.5749  2.2664  0.4575
   59DOPE   H6Y 7576   6.907   1.515  13.970  3.1612  0.0753 -1.8306
   59DOPE   C37 7577   6.911   1.360  14.124  0.7791 -0.0882  0.8669
   59DOPE   H7X 7578   7.004   1.398  14.171  0.1839  0.7279  1.4266
   59DOPE   H7Y 7579   6.819   1.405  14.168 -0.6301 -2.5554  0.6156
   59DOPE   C38 7580   6.903   1.209  14.145 -0.4209 -0.0108  0.6793
   59DOPE   H8X 7581   6.984   1.164  14.084 -0.7346 -0.0600  0.2985
   59DOPE   H8Y 7582   6.807   1.173  14.102 -0.8371  0.5708  1.1021
   59DOPE   C39 7583   6.920   1.160  14.284 -0.1797 -0.1406  0.4087
   59DOPE   H9X 7584   7.019   1.165  14.331 -0.6620  0.3905  1.4107
   59DOPE  C310 7585   6.826   1.102  14.354  0.0582  0.5874 -0.9504
   59DOPE  H10X 7586   6.860   1.070  14.454 -0.6361  0.3718 -0.7766
   59DOPE  C311 7587   6.679   1.101  14.335 -0.3074  0.2095  0.3392
   59DOPE  H11X 7588   6.644   1.173  14.258  1.4557 -0.4980 -1.2319
   59DOPE  H11Y 7589   6.662   1.001  14.288 -1.1922  1.9448 -3.4025
   59DOPE  C312 7590   6.594   1.127  14.466  0.1092 -0.3691 -0.1673
   59DOPE  H12X 7591   6.640   1.204  14.531 -2.1176  0.4195  0.5718
   59DOPE  H12Y 7592   6.584   1.036  14.530 -1.1501  1.1621  1.9384
   59DOPE  C313 7593   6.444   1.174  14.430  0.3527 -0.1026 -0.8141
   59DOPE  H13X 7594   6.441   1.261  14.361  2.5094  0.3339 -0.4254
   59DOPE  H13Y 7595   6.398   1.080  14.393  1.1623 -2.1216  2.8412
   59DOPE  C314 7596   6.364   1.214  14.557 -0.3089 -0.1055 -0.5489
   59DOPE  H14X 7597   6.434   1.273  14.619  0.4142 -0.6666 -0.8205
   59DOPE  H14Y 7598   6.341   1.123  14.616  1.7804 -0.2540  0.1010
   59DOPE  C315 7599   6.234   1.302  14.537  0.8885  0.8690  0.4576
   59DOPE  H15X 7600   6.160   1.244  14.478  1.5693 -0.1687  0.6115
   59DOPE  H15Y 7601   6.259   1.386  14.469 -0.2464  0.4111 -0.5668
   59DOPE  C316 7602   6.166   1.356  14.668 -0.0153 -0.8010  0.7188
   59DOPE  H16X 7603   6.155   1.265  14.731  0.8108 -2.2364 -1.1226
   59DOPE  H16Y 7604   6.070   1.404  14.642  0.3091  0.5401  1.8708
   59DOPE  C317 7605   6.245   1.457  14.751 -1.0088 -0.2557  0.3745
   59DOPE  H17X 7606   6.335   1.403  14.787 -0.1835  0.2117 -0.9245
   59DOPE  H17Y 7607   6.282   1.544  14.691  2.3319 -0.3115  2.1188
   59DOPE  C318 7608   6.167   1.488  14.877 -0.6619  0.7192 -0.2559
   59DOPE  H18X 7609   6.181   1.407  14.951 -0.5538  0.4961 -0.5202
   59DOPE  H18Y 7610   6.196   1.585  14.923  0.0665  0.9808 -1.2193
   59DOPE  H18Z 7611   6.059   1.478  14.856 -0.2891  0.7940 -2.5503
   60DOPE     N 7612   6.469   7.084  13.525  0.3208 -0.6252  0.0813
   60DOPE   HN1 7613   6.464   7.085  13.629 -0.5033  0.2104  0.0484
   60DOPE   HN2 7614   6.381   7.050  13.481  0.2321 -2.4196  1.5037
   60DOPE   HN3 7615   6.544   7.016  13.502  1.8084  0.7237  0.7106
   60DOPE   C12 7616   6.512   7.212  13.468  0.4402 -0.2347 -0.0928
   60DOPE  H12A 7617   6.585   7.271  13.527  0.5392 -1.0563  0.6340
   60DOPE  H12B 7618   6.420   7.275  13.470  0.7407  0.2621 -1.1894
   60DOPE   C11 7619   6.570   7.194  13.327 -0.5485 -0.6506 -0.1703
   60DOPE  H11A 7620   6.572   7.296  13.282  1.0489  0.7183  2.6771
   60DOPE  H11B 7621   6.505   7.131  13.264 -0.0330 -2.1373  0.7416
   60DOPE     P 7622   6.745   6.995  13.316 -0.2412 -0.0220 -0.1563
   60DOPE   O13 7623   6.746   6.969  13.164  0.0683 -0.0524 -0.7895
   60DOPE   O14 7624   6.651   6.920  13.404 -0.2195  0.4686  0.6024
   60DOPE   O11 7625   6.894   6.985  13.382 -0.7599  0.2392  0.4890
   60DOPE   O12 7626   6.706   7.145  13.333  0.2796 -0.2509 -0.2852
   60DOPE    C1 7627   6.973   7.102  13.386 -0.7780 -0.1936  0.4633
   60DOPE    HA 7628   6.927   7.203  13.376  2.1911  1.4302  1.8122
   60DOPE    HB 7629   7.051   7.099  13.308 -1.2527 -2.9699 -0.0061
   60DOPE    C2 7630   7.053   7.101  13.522 -0.5495  0.0077 -0.3729
   60DOPE    HS 7631   7.078   6.997  13.550 -0.8451  0.0429  0.0367
   60DOPE   O21 7632   6.974   7.164  13.618  0.7662 -0.0676 -0.2336
   60DOPE   C21 7633   6.909   7.078  13.702 -0.0152 -0.9638 -0.0313
   60DOPE   O22 7634   6.936   6.963  13.718  0.1255  0.5483  0.0665
   60DOPE   C22 7635   6.792   7.155  13.760 -0.2132  0.2811 -0.6706
   60DOPE   H2R 7636   6.723   7.085  13.813 -2.2391  3.4461  1.1890
   60DOPE   H2S 7637   6.736   7.206  13.679 -2.1542 -0.1337  0.3490
   60DOPE    C3 7638   7.187   7.178  13.512  0.6642 -0.1044 -0.3988
   60DOPE    HX 7639   7.173   7.273  13.456  0.1080  0.2863  0.3971
   60DOPE    HY 7640   7.257   7.123  13.445  0.1921  0.0541 -1.0312
   60DOPE   O31 7641   7.247   7.204  13.640 -0.1949  0.3406  0.3974
   60DOPE   C31 7642   7.362   7.281  13.622 -0.0119  0.4729 -0.2210
   60DOPE   O32 7643   7.421   7.296  13.523  0.0700 -0.0608 -0.1622
   60DOPE   C32 7644   7.384   7.362  13.753 -0.4366  0.4356  0.1054
   60DOPE   H2X 7645   7.446   7.447  13.717 -1.2825  1.2703  0.5868
   60DOPE   H2Y 7646   7.284   7.399  13.780  0.0861  1.2863  0.9321
   60DOPE   C23 7647   6.841   7.268  13.850 -0.2919  0.0249  0.4814
   60DOPE   H3R 7648   6.755   7.339  13.862  0.9730  1.4355  1.5822
   60DOPE   H3S 7649   6.923   7.335  13.816 -1.3647  2.7977  2.8616
   60DOPE   C24 7650   6.876   7.223  13.988  0.2097 -0.3719  0.2042
   60DOPE   H4R 7651   6.978   7.179  13.997  0.2811 -0.3498 -0.4639
   60DOPE   H4S 7652   6.806   7.151  14.037 -1.3348  1.9605  1.6028
   60DOPE   C25 7653   6.871   7.342  14.087  0.0833  0.3863  0.1579
   60DOPE   H5R 7654   6.903   7.311  14.188  0.0162  0.6408  0.2562
   60DOPE   H5S 7655   6.770   7.388  14.090 -0.6133 -1.1269  0.7091
   60DOPE   C26 7656   6.971   7.449  14.048  0.2735 -0.0984  0.1050
   60DOPE   H6R 7657   6.935   7.494  13.953  1.6588 -2.7026 -1.7901
   60DOPE   H6S 7658   7.065   7.396  14.022 -0.1966 -0.4038 -1.0240
   60DOPE   C27 7659   7.008   7.544  14.155  0.3200 -0.1259  0.7652
   60DOPE   H7R 7660   7.101   7.591  14.118 -0.6412 -0.2039 -1.9776
   60DOPE   H7S 7661   7.037   7.501  14.253 -0.1742 -3.5179 -0.4568
   60DOPE   C28 7662   6.907   7.656  14.189  0.8312  0.3561 -0.0346
   60DOPE   H8R 7663   6.897   7.702  14.089  0.1579 -0.8338 -0.5401
   60DOPE   H8S 7664   6.953   7.736  14.250 -0.7409  1.3907 -0.1414
   60DOPE   C29 7665   6.777   7.609  14.250  0.1235  0.2878  0.3463
   60DOPE   H9R 7666   6.694   7.617  14.179 -0.3021  0.4025  0.8517
   60DOPE  C210 7667   6.749   7.592  14.376 -0.3826 -0.7974 -0.6875
   60DOPE  H10R 7668   6.647   7.567  14.410 -0.0082 -0.5423  0.7053
   60DOPE  C211 7669   6.852   7.596  14.492 -0.0744  0.6958  0.3314
   60DOPE  H11R 7670   6.799   7.641  14.579  0.4301  0.3925  0.7978
   60DOPE  H11S 7671   6.944   7.655  14.471  0.3704 -0.3380 -0.7520
   60DOPE  C212 7672   6.893   7.446  14.524  0.9668 -0.0178  1.0223
   60DOPE  H12R 7673   6.954   7.401  14.443 -0.1305  1.6374 -0.8050
   60DOPE  H12S 7674   6.796   7.391  14.527 -0.2909  2.0951  1.1453
   60DOPE  C213 7675   6.958   7.430  14.659 -0.0789  0.2654 -0.6748
   60DOPE  H13R 7676   6.903   7.467  14.749  0.8429 -1.6824  0.7653
   60DOPE  H13S 7677   7.047   7.497  14.658  0.5371 -0.5418 -0.4071
   60DOPE  C214 7678   7.005   7.291  14.681  0.0005 -0.3214  0.1751
   60DOPE  H14R 7679   7.065   7.257  14.593 -1.4409  0.3733 -1.1256
   60DOPE  H14S 7680   6.919   7.221  14.694  1.3922 -2.1282  0.1490
   60DOPE  C215 7681   7.103   7.272  14.798  0.5661 -0.2160 -0.0095
   60DOPE  H15R 7682   7.056   7.328  14.882 -0.2600  1.1113 -1.3251
   60DOPE  H15S 7683   7.197   7.324  14.769  0.6364  1.0668  2.2677
   60DOPE  C216 7684   7.134   7.126  14.825 -0.1702  0.1079  0.0998
   60DOPE  H16R 7685   7.206   7.085  14.751  0.3631  0.0656  0.6427
   60DOPE  H16S 7686   7.040   7.066  14.822  0.0885 -0.2992  0.0409
   60DOPE  C217 7687   7.193   7.106  14.965 -0.0799  0.4150  0.4180
   60DOPE  H17R 7688   7.149   7.177  15.038  1.1751  1.4312  0.2132
   60DOPE  H17S 7689   7.301   7.129  14.965  0.7527 -2.9367 -0.6617
   60DOPE  C218 7690   7.175   6.970  15.021  0.2677  0.2793  0.1329
   60DOPE  H18R 7691   7.071   6.933  15.014  0.0865  0.6835  0.6045
   60DOPE  H18S 7692   7.205   6.963  15.128 -0.0777 -4.1341  0.1242
   60DOPE  H18T 7693   7.243   6.898  14.970  0.6486  1.0076 -0.3943
   60DOPE   C33 7694   7.444   7.276  13.872  0.0723  0.2285 -0.3123
   60DOPE   H3X 7695   7.554   7.294  13.870  0.0981  0.1814  0.3481
   60DOPE   H3Y 7696   7.437   7.168  13.846  0.0878  0.4240 -1.1369
   60DOPE   C34 7697   7.371   7.311  13.999 -0.6623 -0.3267 -1.0574
   60DOPE   H4X 7698   7.380   7.421  14.012 -4.5116 -0.0239  0.3138
   60DOPE   H4Y 7699   7.263   7.286  13.998 -1.2629  1.8011  0.8912
   60DOPE   C35 7700   7.435   7.247  14.132 -0.7344  0.1562 -0.0743
   60DOPE   H5X 7701   7.545   7.264  14.129 -0.8654  1.3293  1.0070
   60DOPE   H5Y 7702   7.420   7.137  14.136  0.8466 -0.1286 -1.0109
   60DOPE   C36 7703   7.379   7.313  14.256  0.0264 -0.1478 -0.1512
   60DOPE   H6X 7704   7.268   7.306  14.255 -0.1135  1.3874 -1.9748
   60DOPE   H6Y 7705   7.394   7.421  14.234  1.0006 -0.6727 -2.2930
   60DOPE   C37 7706   7.453   7.285  14.384  0.6363 -0.1988 -0.6987
   60DOPE   H7X 7707   7.446   7.175  14.398 -2.1760 -0.3564 -2.3835
   60DOPE   H7Y 7708   7.557   7.314  14.360  0.0891  1.1122 -1.5705
   60DOPE   C38 7709   7.406   7.357  14.513  0.0856 -0.0535  0.0191
   60DOPE   H8X 7710   7.483   7.326  14.587  0.8155 -1.0690 -1.1347
   60DOPE   H8Y 7711   7.305   7.316  14.532  1.2867 -2.2835  2.1805
   60DOPE   C39 7712   7.398   7.509  14.504  0.0560  0.0944 -0.4965
   60DOPE   H9X 7713   7.337   7.545  14.419  0.7310  0.0127 -1.0256
   60DOPE  C310 7714   7.456   7.604  14.588  0.3953 -0.0487 -0.1626
   60DOPE  H10X 7715   7.434   7.710  14.570 -1.7470 -0.1420  1.4545
   60DOPE  C311 7716   7.536   7.576  14.711  0.4555 -0.1771 -0.6608
   60DOPE  H11X 7717   7.621   7.505  14.703 -0.0930 -0.7926 -1.1612
   60DOPE  H11Y 7718   7.579   7.671  14.748 -1.3686  0.6125 -0.4458
   60DOPE  C312 7719   7.459   7.523  14.836 -0.2046  0.5621  0.7488
   60DOPE  H12X 7720   7.539   7.507  14.911  0.7197  1.1708 -0.0789
   60DOPE  H12Y 7721   7.417   7.424  14.806 -0.2051  1.2528 -1.8164
   60DOPE  C313 7722   7.353   7.615  14.887 -0.0747 -0.2351 -0.1241
   60DOPE  H13X 7723   7.401   7.710  14.917  0.9321 -1.3591  2.0385
   60DOPE  H13Y 7724   7.268   7.636  14.819 -3.4034  0.3355  3.8096
   60DOPE  C314 7725   7.276   7.549  15.007 -0.0687 -0.2521 -0.2016
   60DOPE  H14X 7726   7.209   7.468  14.972 -1.6057  1.3490 -1.0888
   60DOPE  H14Y 7727   7.213   7.633  15.043 -0.1880  0.3707 -1.7875
   60DOPE  C315 7728   7.358   7.491  15.121 -0.2781  0.1992 -0.2393
   60DOPE  H15X 7729   7.433   7.562  15.161  2.6722 -2.1101 -1.2785
   60DOPE  H15Y 7730   7.416   7.405  15.081  0.0887 -0.5796  1.8416
   60DOPE  C316 7731   7.269   7.452  15.242  0.2130 -0.3439 -0.3834
   60DOPE  H16X 7732   7.225   7.355  15.211  1.9399 -0.9722 -1.0124
   60DOPE  H16Y 7733   7.188   7.528  15.250  1.4983  1.1827 -1.1732
   60DOPE  C317 7734   7.328   7.429  15.377  0.3345 -0.5347  0.9325
   60DOPE  H17X 7735   7.250   7.380  15.439  0.3977 -1.3005  0.4238
   60DOPE  H17Y 7736   7.409   7.353  15.387 -0.5693 -1.8658 -1.1852
   60DOPE  C318 7737   7.362   7.558  15.453  0.6194  0.0858 -0.1542
   60DOPE  H18X 7738   7.451   7.604  15.408 -0.2350  0.8750 -1.0720
   60DOPE  H18Y 7739   7.272   7.624  15.450  0.6753  0.1557 -0.2929
   60DOPE  H18Z 7740   7.383   7.535  15.560 -0.3760 -0.3209 -0.0301
   6123SM     N 7741   3.440   3.285  17.249 -0.5133 -0.5033 -0.0455
   6123SM   C15 7742   3.335   3.191  17.204 -0.4180 -0.2136 -0.0923
   6123SM  H15A 7743   3.380   3.097  17.175 -2.7763 -1.0237 -1.3810
   6123SM  H15B 7744   3.266   3.226  17.129 -4.6807 -2.9966  2.1331
   6123SM  H15C 7745   3.272   3.177  17.290  1.8591 -0.8179  1.5739
   6123SM   C14 7746   3.501   3.225  17.373 -0.9846  0.1547 -0.3533
   6123SM  H14A 7747   3.554   3.135  17.347 -0.9766 -0.1590  0.6973
   6123SM  H14B 7748   3.432   3.214  17.456 -1.3988  0.0397 -0.7053
   6123SM  H14C 7749   3.584   3.285  17.406 -0.0465 -0.8304 -0.8706
   6123SM   C13 7750   3.541   3.272  17.130  0.1442  0.4755  0.2024
   6123SM  H13A 7751   3.492   3.301  17.039  1.3340 -0.6620 -0.8239
   6123SM  H13B 7752   3.573   3.169  17.135 -0.5098  0.2920  0.8844
   6123SM  H13C 7753   3.626   3.337  17.142  0.6039  0.0172 -0.5501
   6123SM   C12 7754   3.384   3.426  17.259 -0.0211  0.1334 -0.1529
   6123SM  H12A 7755   3.344   3.459  17.164 -0.3794  1.3691  0.4088
   6123SM  H12B 7756   3.461   3.498  17.282 -0.0036 -0.1619  0.7189
   6123SM   C11 7757   3.273   3.440  17.363  0.8943  0.1338 -0.0262
   6123SM  H11A 7758   3.315   3.402  17.458 -1.4543  3.1740  2.4411
   6123SM  H11B 7759   3.186   3.380  17.330  1.3692 -0.9515  0.6350
   6123SM     P 7760   3.113   3.643  17.300 -0.1308 -0.1360 -0.0778
   6123SM   O13 7761   2.989   3.614  17.372 -0.3782 -0.4088 -0.3579
   6123SM   O14 7762   3.147   3.783  17.280  0.6108 -0.2977 -0.0668
   6123SM   O11 7763   3.107   3.567  17.160  0.3019  0.2198 -0.2704
   6123SM   O12 7764   3.232   3.569  17.381 -0.0682 -0.0626 -0.2753
   6123SM   C1S 7765   2.980   3.573  17.089  0.8179  0.2245  0.4484
   6123SM   H1S 7766   2.961   3.681  17.068  1.1572  0.2098  0.0790
   6123SM   H1T 7767   2.893   3.524  17.140  0.3572 -0.3019 -0.8191
   6123SM    NF 7768   2.878   3.539  16.876 -0.4349 -0.0068 -0.2602
   6123SM   HNF 7769   2.792   3.490  16.876 -1.4243  1.6610 -0.1798
   6123SM   C2S 7770   2.987   3.495  16.960 -0.5037  0.3151 -0.4635
   6123SM   H2S 7771   3.090   3.524  16.932 -1.0301  0.8597 -1.9265
   6123SM   C3S 7772   2.997   3.340  16.987  0.0627 -0.1652 -0.7541
   6123SM   H3S 7773   2.894   3.312  17.019 -0.6419  2.9776  0.0934
   6123SM    O3 7774   3.091   3.300  17.086  0.2152  0.2389 -0.9305
   6123SM   HO3 7775   3.124   3.384  17.120  0.4463 -0.7744  1.5124
   6123SM   C4S 7776   3.022   3.274  16.858 -0.6776 -0.2095 -0.0572
   6123SM   H4S 7777   2.935   3.237  16.802 -1.1276 -0.1789  0.6233
   6123SM   C5S 7778   3.143   3.253  16.808  0.3271 -0.2288 -0.0890
   6123SM   H5S 7779   3.233   3.270  16.869  0.8585  1.0396 -1.1746
   6123SM   C6S 7780   3.170   3.191  16.672 -0.5916  0.4284 -0.4981
   6123SM   H6S 7781   3.173   3.081  16.687  0.2795  0.6282  0.8985
   6123SM   H6T 7782   3.275   3.213  16.643  0.6225 -2.2771  1.4735
   6123SM   C7S 7783   3.086   3.236  16.555 -0.4113  0.1510  0.1404
   6123SM   H7S 7784   3.103   3.345  16.551  1.9948 -0.1985 -2.2667
   6123SM   H7T 7785   2.979   3.210  16.567 -0.4507 -0.3138 -1.0763
   6123SM   C8S 7786   3.135   3.170  16.423  1.2549  0.7757 -0.8398
   6123SM   H8S 7787   3.138   3.059  16.435  2.3395  0.5852 -2.5076
   6123SM   H8T 7788   3.239   3.204  16.401  0.7702  1.4495 -2.1803
   6123SM   C9S 7789   3.051   3.217  16.302  0.0103  0.0053  0.2197
   6123SM   H9S 7790   3.077   3.321  16.273 -1.8716 -0.0743 -2.1242
   6123SM   H9T 7791   2.947   3.228  16.341 -0.0057  3.3069 -0.4424
   6123SM  C10S 7792   3.078   3.142  16.171  0.3108  0.4831 -0.1872
   6123SM  H10S 7793   3.063   3.036  16.200  0.8615  0.3215 -0.4723
   6123SM  H10T 7794   3.186   3.151  16.147  0.0361  2.7897 -0.8061
   6123SM  C11S 7795   2.969   3.171  16.064  0.1682 -0.4351 -0.7018
   6123SM  H11S 7796   2.870   3.158  16.113  0.0597 -1.4217 -1.1666
   6123SM  H11T 7797   2.979   3.102  15.977  0.0574 -0.1521 -0.9383
   6123SM  C12S 7798   2.978   3.314  16.014 -0.3137 -0.5427  0.6216
   6123SM  H12S 7799   3.083   3.338  15.987 -0.3157 -1.1130  0.0833
   6123SM  H12T 7800   2.942   3.377  16.098  0.0286  0.5731 -0.0486
   6123SM  C13S 7801   2.899   3.339  15.887 -0.1961 -0.5233  0.3003
   6123SM  H13S 7802   2.797   3.295  15.899  0.4821 -1.7711  1.9583
   6123SM  H13T 7803   2.945   3.282  15.803 -2.9650  1.2068 -2.6278
   6123SM  C14S 7804   2.897   3.493  15.850  0.9123  0.1990 -0.4099
   6123SM  H14S 7805   3.002   3.524  15.831  1.0229  1.4546  1.8586
   6123SM  H14T 7806   2.847   3.542  15.936  0.6426 -1.3108  0.3355
   6123SM  C15S 7807   2.806   3.523  15.734 -0.3669 -0.0686  0.1819
   6123SM  H15S 7808   2.701   3.506  15.766 -0.5766  0.1179 -0.3892
   6123SM  H15T 7809   2.840   3.471  15.641  2.6644  2.0332 -0.0397
   6123SM  C16S 7810   2.817   3.666  15.681 -0.2536 -0.2806  0.3669
   6123SM  H16S 7811   2.917   3.679  15.635 -0.4600  1.4370  0.3242
   6123SM  H16T 7812   2.803   3.739  15.764 -0.8091  0.6757 -0.5472
   6123SM  C17S 7813   2.709   3.699  15.569 -0.0204  0.1884 -0.3929
   6123SM  H17S 7814   2.731   3.797  15.521 -0.0855  0.2093 -0.3802
   6123SM  H17T 7815   2.613   3.705  15.624  0.7481 -1.4478  1.2394
   6123SM  C18S 7816   2.691   3.600  15.458 -0.4214  0.4508 -0.0144
   6123SM  H18S 7817   2.788   3.588  15.405 -0.0008  2.7097  0.1495
   6123SM  H18T 7818   2.607   3.635  15.394 -2.2572  0.2992  2.1875
   6123SM  H18U 7819   2.670   3.497  15.496  1.1812  0.3498  0.7051
   6123SM   C1F 7820   2.877   3.652  16.803  0.0723  0.4612 -0.0380
   6123SM    OF 7821   2.975   3.724  16.792 -0.0423  0.2072 -0.2091
   6123SM   C2F 7822   2.752   3.659  16.714 -0.2356  0.2808 -0.5325
   6123SM   H2F 7823   2.665   3.696  16.773  1.0545  2.9049 -0.0828
   6123SM   H2G 7824   2.713   3.562  16.679  0.0295  0.3055 -0.9094
   6123SM   C3F 7825   2.763   3.755  16.592 -0.8742  0.4360  0.3421
   6123SM   H3F 7826   2.786   3.860  16.619  0.1278  0.3547 -0.1561
   6123SM   H3G 7827   2.669   3.756  16.533 -0.0447  1.9859 -1.0315
   6123SM   C4F 7828   2.869   3.696  16.497  0.0575  0.2000  0.4622
   6123SM   H4F 7829   2.855   3.587  16.481  1.1627  0.2351 -0.8490
   6123SM   H4G 7830   2.964   3.706  16.554 -0.4180 -2.4127  1.8987
   6123SM   C5F 7831   2.865   3.771  16.361  0.0857 -0.0928 -0.8637
   6123SM   H5F 7832   2.851   3.879  16.383 -4.3844 -0.3730 -1.3436
   6123SM   H5G 7833   2.766   3.747  16.315  0.1169 -1.3008 -0.3366
   6123SM   C6F 7834   2.977   3.757  16.263 -0.6402 -0.0718  0.1869
   6123SM   H6F 7835   2.998   3.661  16.212  0.5993 -0.2680  1.0235
   6123SM   H6G 7836   3.066   3.784  16.324  1.9425  0.4429 -3.4905
   6123SM   C7F 7837   2.955   3.860  16.149  0.1173  0.0736  0.2481
   6123SM   H7F 7838   2.931   3.960  16.190 -1.6231  0.3710 -1.3289
   6123SM   H7G 7839   2.864   3.833  16.091 -2.2185  1.1833  3.1408
   6123SM   C8F 7840   3.076   3.868  16.064  0.3846 -0.0190 -0.0682
   6123SM   H8F 7841   3.094   3.774  16.008 -1.5920 -0.9576  0.7386
   6123SM   H8G 7842   3.164   3.872  16.131  0.3092 -1.5147  0.1565
   6123SM   C9F 7843   3.078   3.995  15.969 -0.4381 -0.3093 -0.4919
   6123SM   H9F 7844   3.178   4.008  15.923 -0.6522  0.5457 -0.7394
   6123SM   H9G 7845   3.063   4.090  16.024 -1.8037  0.1739 -1.6258
   6123SM  C10F 7846   2.975   3.997  15.851 -0.2048 -0.2353  0.0060
   6123SM  H10F 7847   2.971   3.900  15.797  1.1772 -0.6156  0.5500
   6123SM  H10G 7848   3.016   4.076  15.785 -2.1912  1.6174  0.8823
   6123SM  C11F 7849   2.837   4.043  15.895 -0.3372 -0.1317  0.1502
   6123SM  H11F 7850   2.857   4.145  15.935  1.2921 -1.2159  2.2724
   6123SM  H11G 7851   2.795   3.982  15.978 -0.7351  2.2752  1.8392
   6123SM  C12F 7852   2.741   4.071  15.776  0.1041  0.2657 -0.9725
   6123SM  H12F 7853   2.666   4.145  15.813 -1.5959 -1.3338 -1.0711
   6123SM  H12G 7854   2.683   3.978  15.759 -0.0251  0.5151 -1.9688
   6123SM  C13F 7855   2.809   4.115  15.648 -0.0444 -0.0324  0.1094
   6123SM  H13F 7856   2.875   4.038  15.604 -1.5921 -0.2180 -1.9999
   6123SM  H13G 7857   2.850   4.218  15.660  2.8186 -1.0343 -0.3388
   6123SM  C14F 7858   2.703   4.139  15.537  0.0212  0.2496 -0.4179
   6123SM  H14F 7859   2.622   4.203  15.577  0.4763  0.9762 -0.6237
   6123SM  H14G 7860   2.659   4.039  15.515  0.4854 -0.2285  0.7467
   6123SM  C15F 7861   2.743   4.226  15.421  0.3323  0.5724  0.4223
   6123SM  H15F 7862   2.759   4.328  15.461  1.2616  1.5714 -2.2803
   6123SM  H15G 7863   2.653   4.246  15.359 -0.9956  0.1834  2.1401
   6123SM  C16F 7864   2.863   4.183  15.336  0.6284 -0.1743  0.2069
   6123SM  H16F 7865   2.862   4.072  15.331  1.6833 -0.1581 -1.1225
   6123SM  H16G 7866   2.959   4.205  15.388  1.5070  2.2172 -2.1418
   6123SM  C17F 7867   2.868   4.243  15.198  0.4121 -0.9210 -0.6113
   6123SM  H17F 7868   2.835   4.348  15.209 -2.4325 -1.6528 -1.2999
   6123SM  H17G 7869   2.781   4.203  15.142 -0.8523 -0.8956  1.2341
   6123SM  C18F 7870   3.012   4.229  15.143 -0.4227  0.1074  0.2902
   6123SM  H18F 7871   3.034   4.121  15.127 -0.9772 -0.0273  0.4188
   6123SM  H18G 7872   3.078   4.260  15.228  1.1462 -1.1180 -0.4191
   6123SM  C19F 7873   3.050   4.311  15.014 -0.0393  0.4403 -0.5744
   6123SM  H19F 7874   3.158   4.307  14.991  0.3348  0.9059  1.0131
   6123SM  H19G 7875   3.032   4.420  15.024  0.4599  0.5333 -0.6960
   6123SM  C20F 7876   2.976   4.257  14.895 -0.0786 -0.6239  0.7607
   6123SM  H20F 7877   2.867   4.277  14.896  0.0254  0.0291  0.1571
   6123SM  H20G 7878   2.981   4.148  14.878  0.4139 -0.9752  2.9698
   6123SM  C21F 7879   3.005   4.336  14.758  0.0523  0.4979  1.2357
   6123SM  H21F 7880   3.115   4.324  14.745 -0.2200  0.5292 -1.6060
   6123SM  H21G 7881   2.982   4.444  14.752 -0.8265  0.3017  0.8277
   6123SM  C22F 7882   2.923   4.265  14.643 -1.0247 -0.5746 -0.7458
   6123SM  H22F 7883   2.817   4.269  14.678 -0.7013 -0.4006  0.2535
   6123SM  H22G 7884   2.960   4.161  14.644  4.2764  1.0244  0.9132
   6123SM  C23F 7885   2.953   4.327  14.511  0.1923 -0.1731 -0.0873
   6123SM  H23F 7886   3.063   4.344  14.503  0.1736  0.2545  0.5008
   6123SM  H23G 7887   2.898   4.423  14.506 -1.3612 -1.0607 -0.4116
   6123SM  H23H 7888   2.915   4.269  14.425  1.7066  0.0958 -0.9874
   6223SM     N 7889   3.105   2.866  17.822 -0.1236 -0.5427  0.0642
   6223SM   C15 7890   3.071   3.005  17.784 -0.7440 -0.0215 -0.8022
   6223SM  H15A 7891   2.964   3.006  17.770 -1.0262 -0.0826  1.0952
   6223SM  H15B 7892   3.118   3.031  17.691 -0.5314  2.3181 -0.0963
   6223SM  H15C 7893   3.103   3.081  17.854  0.5776 -0.7548 -0.5813
   6223SM   C14 7894   3.250   2.861  17.817 -0.3976  0.1445 -0.0874
   6223SM  H14A 7895   3.303   2.775  17.855  0.3191 -0.1607 -1.6593
   6223SM  H14B 7896   3.297   2.941  17.873 -0.7654  0.1435  0.2263
   6223SM  H14C 7897   3.285   2.853  17.715 -1.9934  0.3456 -0.6870
   6223SM   C13 7898   3.070   2.832  17.959  0.0983  0.6919  0.6081
   6223SM  H13A 7899   2.974   2.784  17.965 -0.2186  0.8183 -2.2483
   6223SM  H13B 7900   3.086   2.913  18.029  0.3915  0.7911  0.4278
   6223SM  H13C 7901   3.136   2.756  17.999  1.5627 -0.3253 -3.2765
   6223SM   C12 7902   3.040   2.761  17.729 -0.1550  0.0046  0.4164
   6223SM  H12A 7903   2.934   2.773  17.739 -0.2894  0.1181 -0.8843
   6223SM  H12B 7904   3.068   2.664  17.769 -1.2676 -0.5940 -0.1877
   6223SM   C11 7905   3.079   2.756  17.581  0.0509 -0.5953 -0.8431
   6223SM  H11A 7906   3.054   2.655  17.541 -1.0777 -0.4006 -0.6804
   6223SM  H11B 7907   3.189   2.757  17.595 -0.1045  0.0397  0.4563
   6223SM     P 7908   2.907   2.870  17.433  0.0584  0.7456  0.2701
   6223SM   O13 7909   2.798   2.806  17.510  0.0137 -0.5384  0.5425
   6223SM   O14 7910   2.875   3.006  17.384  0.7145  0.1655 -0.0037
   6223SM   O11 7911   2.939   2.777  17.302  0.0445  0.1072 -0.0707
   6223SM   O12 7912   3.038   2.870  17.513  0.4783  0.1493 -0.2041
   6223SM   C1S 7913   3.076   2.759  17.253  0.5099 -0.1694 -0.1036
   6223SM   H1S 7914   3.119   2.667  17.297 -1.9637 -0.9837  0.7999
   6223SM   H1T 7915   3.144   2.839  17.289  0.4215  0.2067 -0.7611
   6223SM    NF 7916   3.230   2.721  17.068  1.0577 -0.4589  0.2738
   6223SM   HNF 7917   3.293   2.787  17.028 -0.0260  2.4742  3.0486
   6223SM   C2S 7918   3.095   2.761  17.099 -0.3926  0.3390 -0.2690
   6223SM   H2S 7919   3.028   2.687  17.051 -0.3112 -0.7797  1.2809
   6223SM   C3S 7920   3.043   2.897  17.041  0.8945 -0.2656 -0.9916
   6223SM   H3S 7921   3.093   2.984  17.089 -2.7847  1.0503  0.8243
   6223SM    O3 7922   2.913   2.923  17.089  0.0321 -0.4396 -0.5243
   6223SM   HO3 7923   2.903   2.862  17.163  0.8501 -0.8773 -0.7613
   6223SM   C4S 7924   3.053   2.896  16.891  0.3527  0.3724 -0.4793
   6223SM   H4S 7925   3.153   2.933  16.863  0.2705  0.9863  0.0074
   6223SM   C5S 7926   2.968   2.857  16.796 -0.3118  0.5292 -0.0251
   6223SM   H5S 7927   2.879   2.802  16.831  1.3245 -2.9047 -0.7689
   6223SM   C6S 7928   3.004   2.823  16.656  0.5911  1.5103  0.2306
   6223SM   H6S 7929   3.107   2.783  16.642  0.7878  1.9692  0.3443
   6223SM   H6T 7930   2.984   2.910  16.591 -0.7157  1.5033  0.5932
   6223SM   C7S 7931   2.913   2.707  16.596  0.1684 -0.3942  0.5840
   6223SM   H7S 7932   2.810   2.746  16.602 -0.6500 -2.0237 -1.6872
   6223SM   H7T 7933   2.930   2.618  16.661  2.2228 -2.0969 -2.0481
   6223SM   C8S 7934   2.943   2.675  16.446  0.0381 -0.5748  0.2564
   6223SM   H8S 7935   2.896   2.576  16.431 -1.8352  0.3528 -0.2381
   6223SM   H8T 7936   3.053   2.663  16.434 -0.1121 -2.4033  0.4840
   6223SM   C9S 7937   2.892   2.778  16.338  0.4083 -0.1689 -0.2573
   6223SM   H9S 7938   2.954   2.870  16.341 -0.7241  0.6080  0.0036
   6223SM   H9T 7939   2.785   2.805  16.350  0.6433  1.1040 -0.8931
   6223SM  C10S 7940   2.904   2.708  16.200  0.8425 -0.4082  0.3788
   6223SM  H10S 7941   2.825   2.757  16.138 -0.6091  0.1063  2.5365
   6223SM  H10T 7942   2.882   2.600  16.213 -2.3812 -0.0087 -0.7349
   6223SM  C11S 7943   3.046   2.711  16.140  0.0573 -0.6824  0.2195
   6223SM  H11S 7944   3.121   2.647  16.189  1.7597  0.4478 -0.7976
   6223SM  H11T 7945   3.086   2.815  16.132  1.9217 -1.4886 -1.7540
   6223SM  C12S 7946   3.062   2.654  15.997  0.1513  0.6746  0.1041
   6223SM  H12S 7947   2.986   2.696  15.928  0.4205  0.4331 -0.3462
   6223SM  H12T 7948   3.060   2.543  15.990 -2.0384  0.5897  1.3185
   6223SM  C13S 7949   3.200   2.694  15.925  0.6290  0.8773 -0.1634
   6223SM  H13S 7950   3.262   2.724  16.013  0.3784 -0.3335  0.4447
   6223SM  H13T 7951   3.187   2.787  15.866  0.4545  0.9857  0.0490
   6223SM  C14S 7952   3.272   2.583  15.846 -0.4721 -0.1084  0.0914
   6223SM  H14S 7953   3.209   2.539  15.765 -1.7912 -0.6004  1.3409
   6223SM  H14T 7954   3.286   2.501  15.919 -1.5605  0.6393  1.1822
   6223SM  C15S 7955   3.404   2.628  15.790 -0.2681 -0.3294  0.3111
   6223SM  H15S 7956   3.463   2.537  15.767  1.7454  0.8180  0.7476
   6223SM  H15T 7957   3.470   2.687  15.857 -0.3721  0.1388  0.0038
   6223SM  C16S 7958   3.388   2.711  15.659 -0.3026  0.0197  0.3171
   6223SM  H16S 7959   3.337   2.804  15.691 -4.4015 -0.5026 -3.6565
   6223SM  H16T 7960   3.323   2.659  15.585  1.5403 -0.7605 -0.8197
   6223SM  C17S 7961   3.520   2.740  15.574 -0.3949  0.1261 -0.5031
   6223SM  H17S 7962   3.567   2.649  15.531  2.1625  0.7945  0.7080
   6223SM  H17T 7963   3.594   2.779  15.647 -0.1002  1.0976 -1.3011
   6223SM  C18S 7964   3.508   2.826  15.456 -0.4069 -0.0100 -0.3073
   6223SM  H18S 7965   3.603   2.833  15.399 -0.6552 -0.3691 -0.7785
   6223SM  H18T 7966   3.488   2.929  15.492  0.0930 -1.3766  4.4690
   6223SM  H18U 7967   3.419   2.795  15.397 -0.0596 -0.8129 -0.4185
   6223SM   C1F 7968   3.293   2.607  17.099  0.7110 -0.5302  0.4279
   6223SM    OF 7969   3.233   2.522  17.166 -0.0390 -0.1162  0.8158
   6223SM   C2F 7970   3.434   2.589  17.044  1.1734  0.6043 -0.8992
   6223SM   H2F 7971   3.498   2.548  17.125  2.2797  1.0863 -1.4919
   6223SM   H2G 7972   3.488   2.684  17.020  1.6930  0.4954 -0.1845
   6223SM   C3F 7973   3.436   2.493  16.919 -0.1591  0.4142  0.5753
   6223SM   H3F 7974   3.408   2.387  16.940 -1.0597  0.8218  1.5593
   6223SM   H3G 7975   3.542   2.492  16.889  0.0768 -3.2826  1.0562
   6223SM   C4F 7976   3.362   2.549  16.798  0.4113 -0.3707  0.6727
   6223SM   H4F 7977   3.398   2.652  16.774 -0.1986 -0.6668 -1.8060
   6223SM   H4G 7978   3.252   2.564  16.805  0.3738  1.8840 -2.5483
   6223SM   C5F 7979   3.385   2.472  16.661  0.6811  0.5402 -0.5771
   6223SM   H5F 7980   3.335   2.373  16.658  1.1374  0.3122 -0.6813
   6223SM   H5G 7981   3.495   2.465  16.647  0.9406  0.3780  1.3001
   6223SM   C6F 7982   3.332   2.545  16.538  0.1388  0.4616  0.4375
   6223SM   H6F 7983   3.342   2.656  16.537 -1.0878  0.5800 -0.0318
   6223SM   H6G 7984   3.223   2.528  16.527 -0.0440  0.1187  2.4613
   6223SM   C7F 7985   3.375   2.494  16.394 -0.2624  0.0938  0.3008
   6223SM   H7F 7986   3.301   2.534  16.321 -0.2767 -3.0886 -1.6727
   6223SM   H7G 7987   3.364   2.383  16.396  3.1201 -0.4146 -1.6723
   6223SM   C8F 7988   3.518   2.526  16.355  0.3670 -0.0984 -0.1450
   6223SM   H8F 7989   3.581   2.460  16.418 -2.6995  0.2194  3.5794
   6223SM   H8G 7990   3.557   2.625  16.387  0.4202  0.3421 -1.5190
   6223SM   C9F 7991   3.550   2.510  16.208 -0.5385  0.7882 -0.1559
   6223SM   H9F 7992   3.511   2.600  16.156  1.1192  0.1147 -2.7691
   6223SM   H9G 7993   3.489   2.425  16.170 -0.7576  0.2594  1.3255
   6223SM  C10F 7994   3.695   2.493  16.175 -0.1429 -0.1804 -0.0618
   6223SM  H10F 7995   3.747   2.413  16.234  0.4050 -0.0313 -0.3318
   6223SM  H10G 7996   3.755   2.581  16.205  0.3614 -1.1149  1.8628
   6223SM  C11F 7997   3.701   2.467  16.024 -0.0203 -0.5929 -0.1046
   6223SM  H11F 7998   3.673   2.561  15.973 -0.4068 -0.6753 -0.0457
   6223SM  H11G 7999   3.634   2.385  15.991 -2.3547  0.7779  0.9719
   6223SM  C12F 8000   3.843   2.434  15.983 -0.2959 -0.0164 -0.4471
   6223SM  H12F 8001   3.887   2.380  16.070 -0.3159 -0.1453 -0.5168
   6223SM  H12G 8002   3.889   2.534  15.965 -1.5691  0.3205 -1.9561
   6223SM  C13F 8003   3.846   2.337  15.861  0.2219  0.3910 -0.2129
   6223SM  H13F 8004   3.780   2.248  15.870  2.0174 -1.1340 -1.4442
   6223SM  H13G 8005   3.947   2.301  15.833 -1.0130 -1.4909 -2.6205
   6223SM  C14F 8006   3.802   2.400  15.722  0.1851  0.0701 -0.3860
   6223SM  H14F 8007   3.877   2.477  15.694  1.6893 -0.3745  2.0808
   6223SM  H14G 8008   3.701   2.442  15.735  0.6135  0.7225  0.9811
   6223SM  C15F 8009   3.791   2.287  15.620 -0.3044  0.0051 -0.1829
   6223SM  H15F 8010   3.739   2.198  15.660 -1.7782  1.4373  1.2534
   6223SM  H15G 8011   3.893   2.252  15.595 -0.3016  0.4337 -0.8262
   6223SM  C16F 8012   3.737   2.327  15.491  0.0691 -0.3559  0.2837
   6223SM  H16F 8013   3.776   2.429  15.473  1.9833 -1.0586  0.2090
   6223SM  H16G 8014   3.626   2.333  15.491 -0.0600 -1.5608 -2.1155
   6223SM  C17F 8015   3.785   2.227  15.392 -0.2357 -0.2831 -0.3256
   6223SM  H17F 8016   3.760   2.127  15.434  1.9510  0.1113  2.2454
   6223SM  H17G 8017   3.895   2.216  15.403 -0.5600 -2.0537  2.0865
   6223SM  C18F 8018   3.743   2.261  15.250 -0.5204 -0.0746  0.0677
   6223SM  H18F 8019   3.795   2.351  15.211 -0.5046  0.9533  2.3581
   6223SM  H18G 8020   3.633   2.272  15.245 -0.5386 -0.5985 -1.6538
   6223SM  C19F 8021   3.776   2.148  15.147 -0.2667  0.2267 -0.3993
   6223SM  H19F 8022   3.886   2.135  15.135 -0.3083 -1.3196  0.6384
   6223SM  H19G 8023   3.739   2.185  15.049  0.2599 -0.6594 -0.9435
   6223SM  C20F 8024   3.702   2.020  15.176  0.2123 -0.1949  0.5253
   6223SM  H20F 8025   3.593   2.043  15.182 -0.0071 -1.2609  0.8166
   6223SM  H20G 8026   3.736   1.982  15.274 -1.0550 -1.4258  0.5331
   6223SM  C21F 8027   3.727   1.922  15.055 -0.3835 -0.4995 -0.3571
   6223SM  H21F 8028   3.838   1.913  15.046 -0.4261 -0.2488 -1.2561
   6223SM  H21G 8029   3.670   1.959  14.967 -2.0374  2.4073  1.7756
   6223SM  C22F 8030   3.670   1.783  15.093 -0.1384 -0.4100  0.2306
   6223SM  H22F 8031   3.563   1.779  15.124 -0.5559 -0.4132 -1.1642
   6223SM  H22G 8032   3.722   1.735  15.179  0.4345 -2.6447 -1.2652
   6223SM  C23F 8033   3.695   1.684  14.975  0.1137 -0.2406  0.8953
   6223SM  H23F 8034   3.647   1.723  14.883  0.9174  1.1417  1.0446
   6223SM  H23G 8035   3.632   1.593  14.992 -0.3805 -0.0429  0.1575
   6223SM  H23H 8036   3.803   1.665  14.957 -0.3223  0.6546 -3.6960
   6323SM     N 8037   3.157   4.328  16.945 -0.1182  0.2368 -0.4448
   6323SM   C15 8038   3.048   4.244  16.993 -0.7302 -0.4833  0.1269
   6323SM  H15A 8039   3.072   4.210  17.092 -1.7617 -1.7531 -0.0200
   6323SM  H15B 8040   3.042   4.158  16.927 -0.2706  1.6495 -2.9449
   6323SM  H15C 8041   2.957   4.299  16.975 -1.1694 -1.5875 -1.1995
   6323SM   C14 8042   3.279   4.245  16.936 -0.0845 -0.1750 -0.2704
   6323SM  H14A 8043   3.264   4.180  16.851 -3.7245  2.5147 -1.9877
   6323SM  H14B 8044   3.295   4.191  17.028  1.2943  0.0124 -0.3820
   6323SM  H14C 8045   3.358   4.313  16.912  0.9053 -1.5559 -1.0372
   6323SM   C13 8046   3.110   4.380  16.808 -0.3353  0.2549 -0.2579
   6323SM  H13A 8047   3.029   4.450  16.823 -0.0659  0.4477  0.2971
   6323SM  H13B 8048   3.070   4.296  16.753 -0.1193 -0.2981  0.4161
   6323SM  H13C 8049   3.193   4.431  16.762 -0.1831 -1.3766 -1.9456
   6323SM   C12 8050   3.171   4.443  17.041 -0.3309  0.3442 -0.0833
   6323SM  H12A 8051   3.202   4.410  17.138  1.3334  0.8579 -0.4110
   6323SM  H12B 8052   3.070   4.483  17.047 -1.0452 -1.3070 -0.4774
   6323SM   C11 8053   3.264   4.564  16.997  0.2954 -1.3766 -0.1434
   6323SM  H11A 8054   3.271   4.645  17.073 -0.4889 -1.5380  0.1154
   6323SM  H11B 8055   3.227   4.607  16.902  1.0039 -0.7331 -0.1362
   6323SM     P 8056   3.495   4.582  16.877 -0.3883  0.4417 -0.1190
   6323SM   O13 8057   3.471   4.725  16.876 -0.4263  0.0072  0.0031
   6323SM   O14 8058   3.628   4.539  16.923 -0.1920  0.4765  0.4493
   6323SM   O11 8059   3.466   4.528  16.738 -0.4466 -0.0960 -0.0754
   6323SM   O12 8060   3.395   4.506  16.967  0.7087  0.1664 -0.2348
   6323SM   C1S 8061   3.554   4.560  16.627  0.3652  0.0914 -0.2434
   6323SM   H1S 8062   3.651   4.508  16.641  1.0859  1.7213  1.2887
   6323SM   H1T 8063   3.577   4.668  16.612  0.3823  0.0194 -0.7565
   6323SM    NF 8064   3.580   4.531  16.385  0.5186 -0.4095  0.0792
   6323SM   HNF 8065   3.572   4.609  16.325  0.9117 -0.2826  0.1866
   6323SM   C2S 8066   3.492   4.512  16.495 -0.3572 -0.7671  0.4797
   6323SM   H2S 8067   3.471   4.403  16.505  0.2870 -1.0427 -0.8683
   6323SM   C3S 8068   3.349   4.567  16.475  0.1704 -0.5566 -0.0973
   6323SM   H3S 8069   3.352   4.677  16.492  1.0950 -0.7355  0.9978
   6323SM    O3 8070   3.260   4.519  16.570 -0.0732  0.2194  0.0286
   6323SM   HO3 8071   3.320   4.485  16.637 -0.4338  1.2117  0.8840
   6323SM   C4S 8072   3.285   4.535  16.339  0.5391 -0.1263 -0.0867
   6323SM   H4S 8073   3.292   4.429  16.311  0.4755 -0.2956  0.5277
   6323SM   C5S 8074   3.243   4.632  16.256  0.7575  0.1523  0.0113
   6323SM   H5S 8075   3.230   4.731  16.302 -0.9760 -0.3119  0.6003
   6323SM   C6S 8076   3.193   4.603  16.114  0.1196 -0.3251 -0.4519
   6323SM   H6S 8077   3.265   4.656  16.048  0.4423 -0.0056  0.1468
   6323SM   H6T 8078   3.094   4.649  16.094 -0.4083 -1.4183 -0.4627
   6323SM   C7S 8079   3.182   4.447  16.080 -1.2775 -0.1757  0.0729
   6323SM   H7S 8080   3.094   4.402  16.130 -0.6682  0.1646  1.5178
   6323SM   H7T 8081   3.282   4.408  16.109 -0.7236  1.8020  1.0070
   6323SM   C8S 8082   3.161   4.427  15.924  0.4878  0.5326 -0.1249
   6323SM   H8S 8083   3.171   4.317  15.912 -2.0198  0.1735  0.5345
   6323SM   H8T 8084   3.247   4.475  15.871  1.8937  0.0288  1.6138
   6323SM   C9S 8085   3.021   4.476  15.881 -0.7397 -0.3747 -0.2732
   6323SM   H9S 8086   3.021   4.585  15.904  0.0190 -0.3810 -0.2346
   6323SM   H9T 8087   2.936   4.419  15.926 -0.4380 -0.2307  0.5101
   6323SM  C10S 8088   2.996   4.454  15.729 -0.0163  0.1075  0.6365
   6323SM  H10S 8089   2.888   4.440  15.705 -0.4130  1.9993  1.1569
   6323SM  H10T 8090   3.045   4.362  15.690 -0.7218 -0.6927  1.5824
   6323SM  C11S 8091   3.036   4.575  15.643 -0.5122 -0.2097  0.4221
   6323SM  H11S 8092   3.146   4.585  15.649 -0.3814 -0.1551 -1.4767
   6323SM  H11T 8093   2.985   4.670  15.667  0.0772  0.4273 -0.7503
   6323SM  C12S 8094   2.999   4.547  15.496 -0.1315  0.5757  0.9984
   6323SM  H12S 8095   2.890   4.525  15.486  0.1138 -1.4891  2.2555
   6323SM  H12T 8096   3.055   4.457  15.463  1.4236  1.8592 -0.0666
   6323SM  C13S 8097   3.028   4.663  15.407 -0.2544 -0.3689  0.3373
   6323SM  H13S 8098   3.137   4.683  15.402 -0.1013 -0.9381  1.2215
   6323SM  H13T 8099   2.978   4.750  15.455 -1.0774 -1.3004  1.2312
   6323SM  C14S 8100   2.980   4.654  15.264 -0.1934  0.0725 -0.0051
   6323SM  H14S 8101   2.871   4.637  15.264  0.0310 -1.5937  1.2651
   6323SM  H14T 8102   3.032   4.575  15.207  0.8928  1.5479 -1.1461
   6323SM  C15S 8103   3.007   4.783  15.190 -0.3197 -0.4378  0.2218
   6323SM  H15S 8104   3.101   4.827  15.229 -0.2234 -0.0694 -0.4180
   6323SM  H15T 8105   2.930   4.858  15.220 -0.4417 -1.5184  2.8376
   6323SM  C16S 8106   3.030   4.769  15.035 -0.0331  0.2524 -0.1232
   6323SM  H16S 8107   2.940   4.728  14.985 -1.3103  1.9021  0.7568
   6323SM  H16T 8108   3.116   4.703  15.008  0.9987  0.8379  1.5495
   6323SM  C17S 8109   3.055   4.905  14.971 -0.3899 -0.1328 -0.5063
   6323SM  H17S 8110   3.105   4.898  14.872  2.0457  0.5492  0.5888
   6323SM  H17T 8111   3.133   4.961  15.028 -1.7360  2.1318 -0.7818
   6323SM  C18S 8112   2.934   4.994  14.961  0.5566 -0.2315 -0.4927
   6323SM  H18S 8113   2.886   4.998  15.061  2.1071  2.2906  0.2366
   6323SM  H18T 8114   2.849   4.964  14.896  0.0848  1.0900 -0.5102
   6323SM  H18U 8115   2.962   5.097  14.930  1.2013  0.2682  1.5814
   6323SM   C1F 8116   3.695   4.457  16.374 -0.1137 -0.3134 -0.0023
   6323SM    OF 8117   3.721   4.369  16.449 -0.1781 -0.2304 -0.0818
   6323SM   C2F 8118   3.782   4.495  16.260  0.1855  0.3446 -0.1319
   6323SM   H2F 8119   3.761   4.594  16.213  1.5195 -0.0216 -1.6059
   6323SM   H2G 8120   3.759   4.419  16.182 -0.4268  0.1761  0.2104
   6323SM   C3F 8121   3.932   4.479  16.287  0.0633 -0.0019  0.5050
   6323SM   H3F 8122   3.964   4.377  16.315 -0.9795 -1.4177 -2.9017
   6323SM   H3G 8123   3.957   4.537  16.378 -1.0606 -2.6943  2.6956
   6323SM   C4F 8124   4.019   4.514  16.170  0.1693 -0.4469  0.6514
   6323SM   H4F 8125   4.007   4.623  16.152  0.8749 -0.1625  1.8049
   6323SM   H4G 8126   3.966   4.467  16.085 -3.9674  1.2832  2.0075
   6323SM   C5F 8127   4.168   4.473  16.180  0.3624 -0.3569  0.2436
   6323SM   H5F 8128   4.170   4.363  16.199 -1.9822 -0.8126 -1.7280
   6323SM   H5G 8129   4.209   4.530  16.266 -0.5711  3.0357 -1.4176
   6323SM   C6F 8130   4.245   4.508  16.052 -0.2640 -0.5446  0.0431
   6323SM   H6F 8131   4.210   4.443  15.970  2.5762  0.8712 -2.5007
   6323SM   H6G 8132   4.355   4.495  16.065  0.0804  0.7112 -1.3916
   6323SM   C7F 8133   4.237   4.659  16.010  0.8881 -0.5546  0.0881
   6323SM   H7F 8134   4.132   4.686  15.986  1.0809 -1.2154 -1.5865
   6323SM   H7G 8135   4.281   4.668  15.909 -2.5008 -4.3351 -1.9787
   6323SM   C8F 8136   4.279   4.762  16.118 -0.9551  0.4400  0.3983
   6323SM   H8F 8137   4.230   4.724  16.211 -1.2876 -0.9492 -0.3111
   6323SM   H8G 8138   4.238   4.861  16.090  1.0963  0.8935 -1.2417
   6323SM   C9F 8139   4.429   4.774  16.143 -0.3529 -0.5437  0.5541
   6323SM   H9F 8140   4.479   4.782  16.044  0.1469 -0.6800  0.7900
   6323SM   H9G 8141   4.460   4.677  16.187 -3.4883 -1.7936  0.2684
   6323SM  C10F 8142   4.473   4.891  16.239 -0.6324  0.0425 -0.3466
   6323SM  H10F 8143   4.582   4.874  16.254 -0.7993  1.2335  3.0177
   6323SM  H10G 8144   4.421   4.876  16.337  0.2840 -2.0470 -0.1196
   6323SM  C11F 8145   4.455   5.027  16.172  0.0083 -0.5190 -1.3763
   6323SM  H11F 8146   4.480   5.107  16.245  1.4856 -0.6323 -1.7252
   6323SM  H11G 8147   4.348   5.050  16.150  0.0711  0.2515 -0.9171
   6323SM  C12F 8148   4.545   5.047  16.050 -0.0176  0.6507 -0.3945
   6323SM  H12F 8149   4.514   4.989  15.961 -0.9323  1.2415 -0.4693
   6323SM  H12G 8150   4.646   5.015  16.084 -1.0613  0.9129  3.4320
   6323SM  C13F 8151   4.555   5.192  16.004 -0.2414  0.4266 -0.0049
   6323SM  H13F 8152   4.597   5.240  16.095 -1.4492  2.1608 -0.3124
   6323SM  H13G 8153   4.453   5.231  15.985  0.8825  2.4396 -2.3806
   6323SM  C14F 8154   4.637   5.205  15.873  0.2675 -0.1770 -0.6501
   6323SM  H14F 8155   4.583   5.140  15.801  0.3837 -2.2950  1.0704
   6323SM  H14G 8156   4.742   5.168  15.881  0.4750  0.6808  1.1874
   6323SM  C15F 8157   4.639   5.350  15.828 -0.4560 -0.7326 -0.0610
   6323SM  H15F 8158   4.674   5.410  15.915 -1.5889  1.4853 -1.0440
   6323SM  H15G 8159   4.536   5.378  15.798 -0.1931  0.9091  0.4380
   6323SM  C16F 8160   4.725   5.371  15.701 -0.1483  0.2717 -0.2561
   6323SM  H16F 8161   4.676   5.310  15.622 -0.5128  0.6401 -0.3212
   6323SM  H16G 8162   4.826   5.338  15.733 -0.6502 -1.8938 -0.7202
   6323SM  C17F 8163   4.727   5.506  15.644  0.0334 -0.3053 -0.6944
   6323SM  H17F 8164   4.769   5.575  15.719 -2.0084  1.1878 -0.8418
   6323SM  H17G 8165   4.619   5.532  15.640 -0.3173 -1.4707  0.4490
   6323SM  C18F 8166   4.804   5.519  15.515  0.1654  0.4910  0.2826
   6323SM  H18F 8167   4.771   5.432  15.456 -0.6286  0.2936  1.0006
   6323SM  H18G 8168   4.914   5.510  15.530  0.5971  1.0243 -2.1881
   6323SM  C19F 8169   4.767   5.651  15.442  0.4198  0.3549 -0.2046
   6323SM  H19F 8170   4.792   5.733  15.512  0.3612  0.8401 -0.7516
   6323SM  H19G 8171   4.656   5.652  15.433  0.2348  2.6893  1.3569
   6323SM  C20F 8172   4.846   5.688  15.314 -0.1308  0.0509 -0.1524
   6323SM  H20F 8173   4.948   5.722  15.343 -0.9265  1.2946  1.3400
   6323SM  H20G 8174   4.802   5.775  15.260 -0.6030  0.7339  1.2842
   6323SM  C21F 8175   4.844   5.575  15.210 -0.2282 -0.7097  0.4362
   6323SM  H21F 8176   4.738   5.542  15.208 -0.8113  1.0267 -1.8262
   6323SM  H21G 8177   4.898   5.485  15.246  1.9074  0.4087  0.1831
   6323SM  C22F 8178   4.894   5.616  15.071  0.5916  0.9842 -0.2374
   6323SM  H22F 8179   4.837   5.705  15.036  3.5267  2.7004 -0.9990
   6323SM  H22G 8180   4.876   5.528  15.006 -0.7776  1.4169 -0.4762
   6323SM  C23F 8181   5.043   5.653  15.048 -0.6966  0.4091  0.4317
   6323SM  H23F 8182   5.057   5.747  15.105 -0.9518  1.5403 -1.2916
   6323SM  H23G 8183   5.057   5.681  14.941 -1.4473 -1.6844 -0.2645
   6323SM  H23H 8184   5.107   5.567  15.078 -0.5459 -0.1630 -1.3717
   6423SM     N 8185   4.852   3.469  16.748 -0.3923 -0.0907 -0.4603
   6423SM   C15 8186   4.892   3.544  16.867  0.1300 -0.3795  0.0547
   6423SM  H15A 8187   4.983   3.602  16.869  1.0576 -1.7861  1.0400
   6423SM  H15B 8188   4.897   3.477  16.952  1.0928 -1.1250 -0.5613
   6423SM  H15C 8189   4.815   3.616  16.891  0.7158 -0.3124  1.8784
   6423SM   C14 8190   4.887   3.549  16.630  0.4104 -0.4014 -0.2707
   6423SM  H14A 8191   4.866   3.498  16.536 -1.2349  0.0409 -0.1828
   6423SM  H14B 8192   4.993   3.568  16.630  0.8831 -2.5256  2.1217
   6423SM  H14C 8193   4.815   3.630  16.626  1.2390  0.3121 -1.5952
   6423SM   C13 8194   4.924   3.339  16.728 -0.3570  0.6188 -0.2147
   6423SM  H13A 8195   4.879   3.295  16.640 -1.6322  1.6170 -0.1000
   6423SM  H13B 8196   4.918   3.261  16.803  1.4426  1.5798  1.0043
   6423SM  H13C 8197   5.029   3.356  16.709 -0.4577 -0.2797 -1.7327
   6423SM   C12 8198   4.704   3.445  16.752  0.6822  0.1116  0.2736
   6423SM  H12A 8199   4.688   3.352  16.804  0.7044 -0.2160 -0.3006
   6423SM  H12B 8200   4.670   3.428  16.651  0.8998  2.2938 -0.2188
   6423SM   C11 8201   4.613   3.556  16.806  0.6172 -0.4489  0.1873
   6423SM  H11A 8202   4.513   3.527  16.769  1.4671 -2.7744 -0.4344
   6423SM  H11B 8203   4.642   3.651  16.756 -1.6674  1.3118  1.9259
   6423SM     P 8204   4.527   3.514  17.050  0.0585 -0.3629 -0.4689
   6423SM   O13 8205   4.495   3.374  17.001  0.4084 -0.1816 -0.4976
   6423SM   O14 8206   4.585   3.527  17.183  0.6841 -0.0858  0.7964
   6423SM   O11 8207   4.399   3.598  17.048 -0.2655  0.2079 -0.1266
   6423SM   O12 8208   4.619   3.580  16.945 -0.3206  0.4226  0.0610
   6423SM   C1S 8209   4.411   3.741  17.064  0.6799 -0.7900 -0.8730
   6423SM   H1S 8210   4.498   3.780  17.121 -1.3651  1.1392  1.1579
   6423SM   H1T 8211   4.322   3.773  17.123  0.7136 -2.3550  0.0973
   6423SM    NF 8212   4.428   3.970  16.943 -0.2524 -0.6649  0.1749
   6423SM   HNF 8213   4.368   4.040  16.904  0.9075  0.0199 -0.4302
   6423SM   C2S 8214   4.405   3.829  16.924 -0.0211  0.0081  0.5002
   6423SM   H2S 8215   4.494   3.795  16.867 -0.0041 -0.3117  0.7147
   6423SM   C3S 8216   4.276   3.791  16.835  0.1486 -0.4615  0.5222
   6423SM   H3S 8217   4.189   3.821  16.896 -0.1506 -0.0703 -0.0824
   6423SM    O3 8218   4.260   3.651  16.832 -0.3176 -0.0481 -0.0694
   6423SM   HO3 8219   4.301   3.618  16.912 -0.7668 -0.3792  0.0294
   6423SM   C4S 8220   4.264   3.864  16.705 -0.3379  0.2552  0.3703
   6423SM   H4S 8221   4.227   3.966  16.719 -1.9732  0.0272 -1.8480
   6423SM   C5S 8222   4.293   3.818  16.582 -0.4642 -0.0224 -0.2816
   6423SM   H5S 8223   4.334   3.717  16.571  1.1994  0.1941  2.8523
   6423SM   C6S 8224   4.255   3.901  16.465 -0.1880  0.4962 -0.4085
   6423SM   H6S 8225   4.347   3.909  16.403 -0.2628  0.2134 -0.5580
   6423SM   H6T 8226   4.218   4.001  16.494  0.3330  0.2735  1.1355
   6423SM   C7S 8227   4.150   3.834  16.383 -0.7093  1.1557 -0.3077
   6423SM   H7S 8228   4.061   3.817  16.447 -1.2077 -1.4900 -1.5590
   6423SM   H7T 8229   4.184   3.732  16.354 -1.8158  1.1595 -1.7160
   6423SM   C8S 8230   4.121   3.907  16.259  0.6197 -0.3467  0.1058
   6423SM   H8S 8231   4.040   3.841  16.223  1.3551 -0.8997 -0.5650
   6423SM   H8T 8232   4.197   3.901  16.179 -0.2797  2.8618 -1.1547
   6423SM   C9S 8233   4.073   4.052  16.260 -0.1215 -0.2296  0.3256
   6423SM   H9S 8234   4.165   4.111  16.279 -0.4743 -0.3233  2.6255
   6423SM   H9T 8235   4.001   4.061  16.345 -0.6701 -2.3334  0.1544
   6423SM  C10S 8236   4.007   4.101  16.128 -0.2105  0.2683  0.3394
   6423SM  H10S 8237   3.967   4.205  16.137 -1.9597  0.0677 -3.4700
   6423SM  H10T 8238   3.922   4.032  16.109 -0.8923  0.9835  0.7233
   6423SM  C11S 8239   4.104   4.100  16.005 -0.1026  0.0262  0.7894
   6423SM  H11S 8240   4.160   4.005  15.991 -1.6503 -0.8783  0.5291
   6423SM  H11T 8241   4.176   4.184  16.016  1.3522 -0.7469 -1.7962
   6423SM  C12S 8242   4.033   4.132  15.873 -0.5656  0.1621  0.4180
   6423SM  H12S 8243   4.104   4.183  15.804  1.8041  0.2661  2.7665
   6423SM  H12T 8244   3.962   4.215  15.893 -0.6236  0.2470 -0.1212
   6423SM  C13S 8245   3.973   4.019  15.806  0.4312 -0.0812 -0.2036
   6423SM  H13S 8246   3.906   3.962  15.874  1.1694 -0.5778  0.1145
   6423SM  H13T 8247   4.036   3.935  15.770 -1.5873 -1.8397  0.1643
   6423SM  C14S 8248   3.877   4.065  15.689  0.3460  0.6317 -0.5384
   6423SM  H14S 8249   3.929   4.121  15.608 -0.5503  1.6285 -0.4424
   6423SM  H14T 8250   3.803   4.143  15.717 -1.2405 -0.1088 -2.3886
   6423SM  C15S 8251   3.791   3.951  15.630  0.2535 -0.5915  0.3610
   6423SM  H15S 8252   3.706   3.996  15.575  1.1766 -0.8159 -1.3458
   6423SM  H15T 8253   3.755   3.881  15.709 -2.9270  0.5729  0.0707
   6423SM  C16S 8254   3.881   3.865  15.541 -0.0649  0.6407  0.1889
   6423SM  H16S 8255   3.963   3.815  15.597 -0.8148 -1.1994 -0.2513
   6423SM  H16T 8256   3.937   3.931  15.472  0.9744 -1.4051 -1.0331
   6423SM  C17S 8257   3.787   3.761  15.475 -0.9724 -0.5869  0.1444
   6423SM  H17S 8258   3.709   3.813  15.417 -2.0071 -0.7048  1.3899
   6423SM  H17T 8259   3.734   3.697  15.549  1.8297 -0.0800  2.7937
   6423SM  C18S 8260   3.877   3.662  15.391 -0.0879  0.2177  0.6357
   6423SM  H18S 8261   3.929   3.594  15.461  0.0496  1.6205  1.9434
   6423SM  H18T 8262   3.956   3.714  15.331  0.1122  0.1615  0.8479
   6423SM  H18U 8263   3.823   3.593  15.323 -0.1407  0.2151  0.6815
   6423SM   C1F 8264   4.537   4.020  16.996  0.2023  0.0668 -0.1392
   6423SM    OF 8265   4.617   3.947  17.055  0.2935 -0.6366  0.5380
   6423SM   C2F 8266   4.543   4.170  16.982 -0.1450 -1.1031  0.5705
   6423SM   H2F 8267   4.533   4.208  17.085  0.3071 -2.4831  1.1424
   6423SM   H2G 8268   4.452   4.193  16.923  0.3240 -1.6062 -0.3844
   6423SM   C3F 8269   4.673   4.207  16.906 -0.1136  0.4480  0.5704
   6423SM   H3F 8270   4.765   4.171  16.957 -1.1070 -2.2095  0.6440
   6423SM   H3G 8271   4.682   4.317  16.893  3.2107  0.3829  1.4041
   6423SM   C4F 8272   4.680   4.141  16.762  0.1666  0.6916 -0.0256
   6423SM   H4F 8273   4.734   4.206  16.690 -0.1612  0.8770 -0.1068
   6423SM   H4G 8274   4.576   4.119  16.730  0.0219 -0.4179  1.1131
   6423SM   C5F 8275   4.756   4.007  16.765 -0.1450  0.3727  0.4019
   6423SM   H5F 8276   4.693   3.923  16.803  0.4136  0.5461  1.7841
   6423SM   H5G 8277   4.836   4.011  16.842 -1.1448 -0.7873  1.5544
   6423SM   C6F 8278   4.820   3.963  16.637  0.2975  0.7930  0.4896
   6423SM   H6F 8279   4.902   3.889  16.645  0.1232  0.5978  0.4818
   6423SM   H6G 8280   4.865   4.060  16.608  1.9598  0.4307  1.7377
   6423SM   C7F 8281   4.721   3.902  16.536 -0.9213 -0.3847 -0.4378
   6423SM   H7F 8282   4.648   3.978  16.503 -0.0286  0.0589 -1.4571
   6423SM   H7G 8283   4.662   3.821  16.585 -0.4275 -1.1649 -1.1133
   6423SM   C8F 8284   4.810   3.849  16.422 -0.0040 -0.2399 -0.6483
   6423SM   H8F 8285   4.886   3.778  16.461 -0.4275  0.5406  1.7453
   6423SM   H8G 8286   4.879   3.926  16.383 -0.5796  0.1484 -0.9169
   6423SM   C9F 8287   4.726   3.798  16.305  0.2912 -0.4612  0.7140
   6423SM   H9F 8288   4.668   3.887  16.273  1.1778 -0.3788 -0.7288
   6423SM   H9G 8289   4.656   3.714  16.325 -0.9175 -0.5070 -2.8524
   6423SM  C10F 8290   4.809   3.758  16.179 -0.8172 -0.3128 -0.2322
   6423SM  H10F 8291   4.903   3.713  16.218 -0.2582  1.6236  0.7881
   6423SM  H10G 8292   4.836   3.857  16.136 -0.6437  0.2887  1.2141
   6423SM  C11F 8293   4.735   3.659  16.086  0.8315  0.3914  0.1625
   6423SM  H11F 8294   4.624   3.659  16.099  0.8029 -0.3038 -0.0684
   6423SM  H11G 8295   4.769   3.559  16.118  2.6049  1.0052  0.3231
   6423SM  C12F 8296   4.768   3.664  15.935 -0.0650 -0.3324 -0.8028
   6423SM  H12F 8297   4.873   3.634  15.916  0.7167  3.0275 -2.6362
   6423SM  H12G 8298   4.745   3.761  15.886  0.1410 -0.9567 -2.1749
   6423SM  C13F 8299   4.677   3.562  15.855 -0.4269 -0.5214 -0.5204
   6423SM  H13F 8300   4.574   3.594  15.880 -0.3527 -0.8384  0.2295
   6423SM  H13G 8301   4.694   3.468  15.912 -0.5507  0.0254  0.4393
   6423SM  C14F 8302   4.716   3.525  15.715  0.3341  0.3958 -0.1540
   6423SM  H14F 8303   4.827   3.514  15.721  0.1265 -3.6774 -0.9652
   6423SM  H14G 8304   4.691   3.605  15.642 -2.7029  1.3106  1.7415
   6423SM  C15F 8305   4.645   3.395  15.666 -0.0752  0.4320 -1.1706
   6423SM  H15F 8306   4.650   3.317  15.745  0.8888  1.2444 -0.4066
   6423SM  H15G 8307   4.717   3.349  15.594  2.0538 -0.2140  1.2182
   6423SM  C16F 8308   4.503   3.401  15.617 -0.5053  0.8003 -0.2041
   6423SM  H16F 8309   4.491   3.359  15.515  1.2480  2.2728 -1.0717
   6423SM  H16G 8310   4.469   3.506  15.630 -0.9194  0.7224 -0.6516
   6423SM  C17F 8311   4.412   3.307  15.696 -0.2865  0.1878 -0.6393
   6423SM  H17F 8312   4.422   3.328  15.805  1.5860 -0.5481 -0.6379
   6423SM  H17G 8313   4.437   3.200  15.678  2.4899  1.0242 -2.3566
   6423SM  C18F 8314   4.261   3.309  15.654  0.0089  0.5082 -0.1371
   6423SM  H18F 8315   4.224   3.414  15.654 -0.6802  0.3346  2.5427
   6423SM  H18G 8316   4.199   3.263  15.733  0.7430 -0.2651  0.0049
   6423SM  C19F 8317   4.226   3.242  15.514  0.2746  0.4473 -0.0761
   6423SM  H19F 8318   4.261   3.137  15.519  0.7555  0.4218 -2.5400
   6423SM  H19G 8319   4.289   3.298  15.441 -1.7091  3.3477  0.2476
   6423SM  C20F 8320   4.083   3.248  15.470  0.2709 -0.1039  0.0148
   6423SM  H20F 8321   4.084   3.196  15.372 -0.4358 -0.1353  0.0200
   6423SM  H20G 8322   4.053   3.353  15.449  1.5199  0.1173 -0.7776
   6423SM  C21F 8323   3.982   3.186  15.566  0.7904  0.1052  0.9724
   6423SM  H21F 8324   3.983   3.251  15.656  0.7008  1.4776  0.0030
   6423SM  H21G 8325   4.021   3.086  15.596 -0.4745 -1.0537 -1.0459
   6423SM  C22F 8326   3.855   3.154  15.495 -0.0118 -0.1881  0.4911
   6423SM  H22F 8327   3.820   3.244  15.441  0.5113 -1.5095 -2.2451
   6423SM  H22G 8328   3.777   3.137  15.572 -0.7449 -0.7421 -0.3509
   6423SM  C23F 8329   3.850   3.032  15.400  0.7659  0.2535 -0.1049
   6423SM  H23F 8330   3.890   2.944  15.455 -3.0795 -0.3298  2.1452
   6423SM  H23G 8331   3.917   3.041  15.312  0.2316  1.4358 -0.4047
   6423SM  H23H 8332   3.746   3.011  15.367  0.9051 -0.5319 -0.0631
   6523SM     N 8333   4.977   5.069  17.152  0.2157 -0.1872  0.1351
   6523SM   C15 8334   4.978   5.165  17.038  0.0302 -0.2771 -0.5865
   6523SM  H15A 8335   5.051   5.244  17.046 -0.4744  0.1691 -0.2282
   6523SM  H15B 8336   4.881   5.208  17.016 -0.1341 -1.1193 -1.5583
   6523SM  H15C 8337   5.000   5.109  16.949 -1.8282 -0.8192 -0.7534
   6523SM   C14 8338   5.121   5.039  17.183  1.0309  0.0656  0.6369
   6523SM  H14A 8339   5.135   4.987  17.276 -1.4972 -0.1902  0.9657
   6523SM  H14B 8340   5.174   5.132  17.184 -1.8945  2.0054 -2.1622
   6523SM  H14C 8341   5.154   4.978  17.100 -2.1019 -0.1267 -0.6018
   6523SM   C13 8342   4.913   5.134  17.274 -0.0339 -0.2252 -0.4974
   6523SM  H13A 8343   4.921   5.076  17.365  2.8369 -1.6078 -1.5083
   6523SM  H13B 8344   4.806   5.134  17.259 -0.4537 -2.3398  1.8341
   6523SM  H13C 8345   4.956   5.228  17.302  0.2911 -1.0780  2.0932
   6523SM   C12 8346   4.897   4.948  17.122  0.4249 -0.4529 -0.8596
   6523SM  H12A 8347   4.891   4.899  17.218  0.3706 -0.1865 -0.7253
   6523SM  H12B 8348   4.947   4.884  17.052 -0.0826  0.5402 -2.1596
   6523SM   C11 8349   4.751   4.966  17.077 -0.4426 -0.4956  0.5114
   6523SM  H11A 8350   4.718   4.868  17.038 -0.6038 -2.0149  4.0801
   6523SM  H11B 8351   4.760   5.030  16.987 -0.7281  0.1205  0.9065
   6523SM     P 8352   4.572   4.918  17.258 -0.1500 -0.2461  0.5875
   6523SM   O13 8353   4.666   4.817  17.317  0.6408 -0.6087 -0.0187
   6523SM   O14 8354   4.480   4.993  17.345  0.2375  0.1768 -0.2436
   6523SM   O11 8355   4.500   4.847  17.133 -0.1705  0.8535 -0.3278
   6523SM   O12 8356   4.650   5.024  17.168  0.2386 -0.2676  0.1830
   6523SM   C1S 8357   4.413   4.901  17.041 -0.2726  0.3704  0.0080
   6523SM   H1S 8358   4.440   5.007  17.018 -2.3135  0.4681 -2.2962
   6523SM   H1T 8359   4.308   4.905  17.077 -0.6096  0.3398 -0.9472
   6523SM    NF 8360   4.340   4.915  16.812 -0.2372  0.3159 -0.1533
   6523SM   HNF 8361   4.244   4.906  16.791 -0.0422 -0.2319 -0.8244
   6523SM   C2S 8362   4.402   4.822  16.911 -0.2056 -0.2119  0.0612
   6523SM   H2S 8363   4.501   4.806  16.863 -0.4006  1.6337 -1.0425
   6523SM   C3S 8364   4.328   4.689  16.929 -0.8771 -0.2724 -0.9905
   6523SM   H3S 8365   4.226   4.708  16.969 -0.5169 -0.2368 -0.0575
   6523SM    O3 8366   4.372   4.618  17.041  0.1652  0.6299  0.1696
   6523SM   HO3 8367   4.438   4.667  17.090 -2.3829  1.2471  3.3028
   6523SM   C4S 8368   4.310   4.593  16.812  0.1252  0.1624 -0.1459
   6523SM   H4S 8369   4.213   4.630  16.775  0.0278  3.4450  2.8282
   6523SM   C5S 8370   4.387   4.491  16.772  0.3101  0.6973 -0.1656
   6523SM   H5S 8371   4.477   4.458  16.825 -0.6605 -2.9217 -0.5494
   6523SM   C6S 8372   4.338   4.399  16.663  0.4816 -0.7000 -0.3001
   6523SM   H6S 8373   4.254   4.449  16.610  1.0066  1.0635  0.4773
   6523SM   H6T 8374   4.311   4.301  16.709 -0.0459 -0.3344  0.1914
   6523SM   C7S 8375   4.449   4.382  16.557  0.6590 -0.0281 -0.3314
   6523SM   H7S 8376   4.525   4.325  16.613  0.0907  0.9323  1.5391
   6523SM   H7T 8377   4.485   4.482  16.523 -0.5872  0.2332 -0.9735
   6523SM   C8S 8378   4.409   4.303  16.435 -0.5856  0.3801 -0.9122
   6523SM   H8S 8379   4.340   4.365  16.374 -0.7965  0.4315 -0.6198
   6523SM   H8T 8380   4.361   4.209  16.468  0.3844 -0.7810 -2.6339
   6523SM   C9S 8381   4.528   4.255  16.360 -0.1079  0.5203  0.1152
   6523SM   H9S 8382   4.582   4.179  16.420 -2.3523  0.1496  1.7705
   6523SM   H9T 8383   4.598   4.334  16.324 -0.7656  0.3205 -1.7303
   6523SM  C10S 8384   4.482   4.187  16.229 -0.0906  0.1229  0.4863
   6523SM  H10S 8385   4.424   4.265  16.175 -0.0092  0.7817  1.3264
   6523SM  H10T 8386   4.407   4.108  16.255 -1.0256  1.5703  2.4864
   6523SM  C11S 8387   4.602   4.135  16.142  0.0947  0.1571  0.1809
   6523SM  H11S 8388   4.678   4.090  16.210 -1.1597 -1.9842  0.2579
   6523SM  H11T 8389   4.655   4.229  16.113 -0.4789  0.6357  0.6426
   6523SM  C12S 8390   4.566   4.049  16.020 -0.5041  1.0030  0.1550
   6523SM  H12S 8391   4.517   3.959  16.064  0.3210  0.3275 -0.2769
   6523SM  H12T 8392   4.657   4.019  15.964 -0.5484  0.2331  0.4795
   6523SM  C13S 8393   4.482   4.114  15.911 -0.1987  0.5242 -0.4040
   6523SM  H13S 8394   4.526   4.210  15.876 -1.6899  0.8671 -1.4731
   6523SM  H13T 8395   4.378   4.139  15.942 -0.2035  0.5311 -0.4262
   6523SM  C14S 8396   4.467   4.021  15.798 -0.2560  0.9066 -0.0163
   6523SM  H14S 8397   4.424   3.924  15.831  1.4915  0.7405  2.0478
   6523SM  H14T 8398   4.570   4.004  15.760 -0.7944 -0.8978 -0.7851
   6523SM  C15S 8399   4.388   4.067  15.667  0.2145  0.3436  0.3516
   6523SM  H15S 8400   4.440   4.160  15.636 -0.2686  1.7327  3.2995
   6523SM  H15T 8401   4.283   4.087  15.699  0.2520 -0.6811  1.1718
   6523SM  C16S 8402   4.396   3.953  15.567 -0.4629 -0.4995 -0.5891
   6523SM  H16S 8403   4.494   3.901  15.559 -0.3979 -0.4371 -0.2050
   6523SM  H16T 8404   4.370   3.999  15.470  0.1542  0.6413 -0.2388
   6523SM  C17S 8405   4.294   3.839  15.589 -0.2691  0.3878  0.0866
   6523SM  H17S 8406   4.190   3.877  15.585 -0.7975 -1.0001  0.0802
   6523SM  H17T 8407   4.311   3.793  15.688 -0.6705 -1.9259 -0.8437
   6523SM  C18S 8408   4.305   3.739  15.471  0.3496 -0.3905  0.1593
   6523SM  H18S 8409   4.403   3.686  15.482  0.1453 -0.8635 -0.2315
   6523SM  H18T 8410   4.297   3.794  15.375  0.6164  0.6532  0.7158
   6523SM  H18U 8411   4.214   3.675  15.467 -1.8664  2.3728  2.4840
   6523SM   C1F 8412   4.406   5.020  16.760 -0.1823  0.8487  0.3167
   6523SM    OF 8413   4.519   5.045  16.786 -0.0744 -0.3710 -0.0554
   6523SM   C2F 8414   4.322   5.110  16.674 -0.3300  0.1879  0.5128
   6523SM   H2F 8415   4.216   5.091  16.701 -0.7364 -3.2441 -2.7042
   6523SM   H2G 8416   4.334   5.081  16.568 -1.3684  0.4938  0.3110
   6523SM   C3F 8417   4.362   5.262  16.683  0.5226  0.0053 -0.1115
   6523SM   H3F 8418   4.471   5.271  16.659  0.2951  0.4323 -1.0373
   6523SM   H3G 8419   4.346   5.298  16.786 -1.2025 -0.7105 -0.0910
   6523SM   C4F 8420   4.289   5.362  16.595  0.2310 -0.2338 -0.1589
   6523SM   H4F 8421   4.303   5.466  16.631  0.3537 -0.4439  0.4079
   6523SM   H4G 8422   4.179   5.355  16.601  0.3157 -0.2588  2.7394
   6523SM   C5F 8423   4.332   5.353  16.448  0.1083  0.2079  0.1421
   6523SM   H5F 8424   4.292   5.258  16.408  1.0021 -0.3709  0.6032
   6523SM   H5G 8425   4.440   5.330  16.447 -0.1082 -0.9332  1.1157
   6523SM   C6F 8426   4.289   5.478  16.361 -0.3597  0.0653 -0.0654
   6523SM   H6F 8427   4.330   5.568  16.412 -0.7021 -1.6907  3.5807
   6523SM   H6G 8428   4.179   5.490  16.370 -0.2564 -0.0526  1.6959
   6523SM   C7F 8429   4.338   5.475  16.213  0.1126 -0.5742 -1.0410
   6523SM   H7F 8430   4.304   5.379  16.170 -0.6405 -1.4577  1.3613
   6523SM   H7G 8431   4.448   5.491  16.215 -0.0781  0.8142 -0.4005
   6523SM   C8F 8432   4.275   5.599  16.145 -0.3703 -0.8764  0.2659
   6523SM   H8F 8433   4.336   5.682  16.186  1.1567 -1.4429 -0.7788
   6523SM   H8G 8434   4.167   5.604  16.169  0.0066  0.9406  1.9038
   6523SM   C9F 8435   4.276   5.579  15.981 -0.4178 -0.4979 -0.1249
   6523SM   H9F 8436   4.378   5.571  15.938  0.0655 -0.1925  0.9197
   6523SM   H9G 8437   4.226   5.671  15.944 -0.0749  0.7982  2.3736
   6523SM  C10F 8438   4.198   5.453  15.936 -0.3958 -0.5182  0.9741
   6523SM  H10F 8439   4.107   5.429  15.995 -1.4895 -1.4892 -0.9995
   6523SM  H10G 8440   4.273   5.373  15.955  1.4190  0.3591 -1.7887
   6523SM  C11F 8441   4.170   5.460  15.784  0.6693  0.8090 -0.3362
   6523SM  H11F 8442   4.113   5.554  15.769  0.9559  1.3939  1.8370
   6523SM  H11G 8443   4.100   5.376  15.764  0.4914 -0.3720  4.2104
   6523SM  C12F 8444   4.292   5.441  15.697  0.0968 -0.1404  0.0015
   6523SM  H12F 8445   4.339   5.342  15.716 -2.9040 -1.7293 -0.3676
   6523SM  H12G 8446   4.375   5.514  15.709 -1.6068  2.1345 -1.4146
   6523SM  C13F 8447   4.259   5.434  15.542 -0.2241  0.7804 -0.5443
   6523SM  H13F 8448   4.197   5.519  15.507 -0.5528  0.4576 -0.7582
   6523SM  H13G 8449   4.194   5.343  15.537  0.2228  0.3866  0.4806
   6523SM  C14F 8450   4.384   5.421  15.453  0.0126  0.0221  0.1822
   6523SM  H14F 8451   4.459   5.345  15.484 -0.0214 -1.0233 -2.0836
   6523SM  H14G 8452   4.446   5.508  15.484 -1.6589 -0.0729  4.4570
   6523SM  C15F 8453   4.355   5.427  15.305 -0.2715  0.4340  0.2031
   6523SM  H15F 8454   4.286   5.511  15.281 -1.3418 -0.6651 -0.7166
   6523SM  H15G 8455   4.295   5.337  15.277 -0.9594  1.7396 -2.9463
   6523SM  C16F 8456   4.476   5.422  15.210 -0.5240  0.4948  0.2312
   6523SM  H16F 8457   4.547   5.340  15.236  1.4510  1.8035 -0.8264
   6523SM  H16G 8458   4.527   5.519  15.227  0.7805 -0.0595 -0.3840
   6523SM  C17F 8459   4.428   5.418  15.069  0.4772 -0.3342  0.0770
   6523SM  H17F 8460   4.341   5.487  15.060  0.3438 -0.5983 -0.7096
   6523SM  H17G 8461   4.383   5.318  15.052 -0.3529 -0.2950  1.7985
   6523SM  C18F 8462   4.526   5.444  14.959  0.0889 -0.1542 -0.0402
   6523SM  H18F 8463   4.596   5.359  14.943 -0.4776 -0.0935 -3.7838
   6523SM  H18G 8464   4.591   5.520  15.007 -0.5992  1.5357 -1.6493
   6523SM  C19F 8465   4.478   5.509  14.829  0.3906 -0.8288 -0.6261
   6523SM  H19F 8466   4.368   5.517  14.816  0.4265  0.2333 -0.3322
   6523SM  H19G 8467   4.513   5.450  14.741  0.5123 -2.0187  0.2097
   6523SM  C20F 8468   4.533   5.653  14.805  0.3785  0.2838 -0.9198
   6523SM  H20F 8469   4.639   5.652  14.837 -0.3089 -0.0378  1.5268
   6523SM  H20G 8470   4.483   5.723  14.875 -1.9357 -1.1707 -1.0201
   6523SM  C21F 8471   4.517   5.699  14.658 -0.1820  0.5800 -0.4349
   6523SM  H21F 8472   4.413   5.696  14.619 -0.0521  2.4135 -1.0327
   6523SM  H21G 8473   4.578   5.645  14.583 -0.3627 -1.0108  0.5208
   6523SM  C22F 8474   4.557   5.847  14.649 -0.2303  0.1499 -0.1021
   6523SM  H22F 8475   4.663   5.859  14.680  1.3120 -2.8048 -3.5307
   6523SM  H22G 8476   4.487   5.896  14.721  0.0036  2.1840 -1.1892
   6523SM  C23F 8477   4.538   5.903  14.516  0.1645 -0.2778 -0.5327
   6523SM  H23F 8478   4.429   5.919  14.506  0.5702  2.1011 -1.7245
   6523SM  H23G 8479   4.561   5.838  14.428 -0.9821 -0.5073 -0.6718
   6523SM  H23H 8480   4.590   6.000  14.502  0.0144 -0.0147  0.6543
   6623SM     N 8481   2.730   2.089  16.985  0.2569 -0.1376  0.0094
   6623SM   C15 8482   2.828   2.170  16.909  0.6273 -0.1785 -0.8446
   6623SM  H15A 8483   2.841   2.142  16.806  0.2695  1.4991 -1.3847
   6623SM  H15B 8484   2.927   2.163  16.950 -0.3174 -2.4975  1.3382
   6623SM  H15C 8485   2.806   2.276  16.908 -1.0668 -0.4953 -0.3466
   6623SM   C14 8486   2.727   2.150  17.118 -0.3837  0.6036 -0.1257
   6623SM  H14A 8487   2.826   2.170  17.157 -0.0875  0.3708 -0.7409
   6623SM  H14B 8488   2.672   2.080  17.179 -2.1674  1.6906 -0.4277
   6623SM  H14C 8489   2.673   2.243  17.117  0.1031  0.8855 -0.7548
   6623SM   C13 8490   2.596   2.114  16.926 -0.4066  0.0315  0.0644
   6623SM  H13A 8491   2.523   2.044  16.964  1.9347 -2.1154  0.8797
   6623SM  H13B 8492   2.599   2.103  16.818  2.2041  1.1438 -0.0410
   6623SM  H13C 8493   2.566   2.214  16.952  0.1391 -0.3028  2.1743
   6623SM   C12 8494   2.769   1.942  16.967  0.1038  0.1569 -0.7223
   6623SM  H12A 8495   2.764   1.930  16.860  0.6962  1.9597 -0.9856
   6623SM  H12B 8496   2.700   1.878  17.020 -1.2016  0.6851 -1.7287
   6623SM   C11 8497   2.915   1.910  17.002 -0.1574  0.1768  0.0797
   6623SM  H11A 8498   2.937   1.936  17.108 -2.7964 -0.4766  0.8624
   6623SM  H11B 8499   2.991   1.977  16.956  1.9220 -2.0566  0.0199
   6623SM     P 8500   3.057   1.702  16.920 -0.0488  0.0238  0.1818
   6623SM   O13 8501   3.148   1.670  17.035 -0.0511 -0.1197 -0.4077
   6623SM   O14 8502   3.023   1.583  16.837  0.0899  0.5947  0.0268
   6623SM   O11 8503   3.122   1.818  16.840 -0.1804 -0.2373 -0.0562
   6623SM   O12 8504   2.928   1.766  16.981  0.0264  0.1272 -0.2422
   6623SM   C1S 8505   3.213   1.792  16.725  0.6604 -0.5673  0.0793
   6623SM   H1S 8506   3.224   1.683  16.707  4.2983 -0.8032  2.5794
   6623SM   H1T 8507   3.317   1.817  16.757  0.1249  3.5646 -0.8486
   6623SM    NF 8508   3.252   1.812  16.483 -0.3341  0.1802  0.4238
   6623SM   HNF 8509   3.316   1.872  16.435  0.0346 -1.2195 -0.9270
   6623SM   C2S 8510   3.170   1.860  16.592  0.1188  1.0188  0.7850
   6623SM   H2S 8511   3.072   1.810  16.574 -0.3000  2.3780 -0.9729
   6623SM   C3S 8512   3.148   2.016  16.615 -0.3952  0.1455 -0.3277
   6623SM   H3S 8513   3.246   2.056  16.648  0.5665 -0.9785 -1.7132
   6623SM    O3 8514   3.052   2.057  16.708 -0.1790 -0.7193 -0.4003
   6623SM   HO3 8515   3.020   1.969  16.730  0.2389 -1.1483 -1.4502
   6623SM   C4S 8516   3.108   2.086  16.485 -0.2172  0.5416 -0.3754
   6623SM   H4S 8517   2.999   2.084  16.472 -0.4210 -0.8352  1.1479
   6623SM   C5S 8518   3.185   2.156  16.406 -0.4378  0.1344  0.6308
   6623SM   H5S 8519   3.293   2.159  16.427 -0.4947  2.0565  0.9166
   6623SM   C6S 8520   3.144   2.231  16.283 -1.3840  0.6767  0.9802
   6623SM   H6S 8521   3.173   2.338  16.282  0.2501  0.2606  0.4167
   6623SM   H6T 8522   3.036   2.225  16.255 -1.2368  0.6407  0.4129
   6623SM   C7S 8523   3.209   2.154  16.164 -0.1806 -0.0879 -0.0180
   6623SM   H7S 8524   3.214   2.043  16.165  0.1415 -0.0839 -0.7890
   6623SM   H7T 8525   3.316   2.182  16.161 -0.3298  0.6325  0.8497
   6623SM   C8S 8526   3.157   2.192  16.028 -0.2849 -0.2258 -0.1592
   6623SM   H8S 8527   3.146   2.301  16.010 -0.3350 -0.1987  0.0355
   6623SM   H8T 8528   3.057   2.144  16.024 -0.0968 -0.7243  0.8864
   6623SM   C9S 8529   3.244   2.134  15.911 -0.2279  0.1427  0.0027
   6623SM   H9S 8530   3.238   2.024  15.903 -0.7896  0.2533 -1.5359
   6623SM   H9T 8531   3.348   2.161  15.939  0.1218 -0.5110 -0.6312
   6623SM  C10S 8532   3.214   2.198  15.773  0.3204  0.6052  0.3684
   6623SM  H10S 8533   3.193   2.305  15.791 -0.3425  0.3671  1.0378
   6623SM  H10T 8534   3.117   2.162  15.732  1.0212  0.7222 -1.4848
   6623SM  C11S 8535   3.318   2.172  15.667  0.8584 -0.1444  0.1035
   6623SM  H11S 8536   3.330   2.064  15.641 -1.2539 -0.1835 -0.9061
   6623SM  H11T 8537   3.415   2.213  15.702  1.1469 -0.0323 -0.7940
   6623SM  C12S 8538   3.279   2.232  15.527  0.0353 -0.1077  0.3613
   6623SM  H12S 8539   3.175   2.201  15.504 -1.3088  3.7665  0.5608
   6623SM  H12T 8540   3.341   2.179  15.451  0.5812  1.2501 -0.1691
   6623SM  C13S 8541   3.290   2.377  15.507 -0.2137 -0.2234  0.2342
   6623SM  H13S 8542   3.392   2.413  15.534 -1.2843  3.0615  0.3875
   6623SM  H13T 8543   3.209   2.428  15.564  0.7402  3.4676 -1.4128
   6623SM  C14S 8544   3.277   2.418  15.357 -0.0784 -0.2535  0.1984
   6623SM  H14S 8545   3.277   2.529  15.351  0.7789 -0.2237  0.5933
   6623SM  H14T 8546   3.177   2.384  15.323 -0.0266  3.0676 -4.2365
   6623SM  C15S 8547   3.393   2.367  15.260 -0.0776  0.2670 -0.0663
   6623SM  H15S 8548   3.371   2.259  15.246  1.1171  0.2143 -1.8553
   6623SM  H15T 8549   3.489   2.380  15.314  0.0591  0.2689 -0.3093
   6623SM  C16S 8550   3.395   2.447  15.124  0.6433 -0.5450 -0.5184
   6623SM  H16S 8551   3.484   2.405  15.070  1.9818 -1.3338  2.1237
   6623SM  H16T 8552   3.423   2.554  15.123 -3.6302  0.7369  0.0212
   6623SM  C17S 8553   3.276   2.426  15.034  0.0298  0.0945 -0.8823
   6623SM  H17S 8554   3.190   2.480  15.079  1.2971  1.1350  0.3854
   6623SM  H17T 8555   3.251   2.318  15.041  1.1402 -0.2701 -2.0446
   6623SM  C18S 8556   3.309   2.468  14.893  0.4296 -0.5240  0.5043
   6623SM  H18S 8557   3.218   2.479  14.830  0.1949 -0.7960  0.7939
   6623SM  H18T 8558   3.377   2.394  14.845  0.8990 -0.1321  0.5584
   6623SM  H18U 8559   3.360   2.566  14.881 -0.1819 -0.3364 -0.6551
   6623SM   C1F 8560   3.251   1.686  16.434 -0.6426 -0.1513  0.7136
   6623SM    OF 8561   3.172   1.603  16.470  0.5701 -0.0251 -0.5033
   6623SM   C2F 8562   3.358   1.657  16.328  0.0348 -0.1344 -0.1012
   6623SM   H2F 8563   3.458   1.676  16.374 -1.1540 -0.6098  2.9165
   6623SM   H2G 8564   3.342   1.722  16.239  1.4162  0.5979  0.1510
   6623SM   C3F 8565   3.345   1.516  16.280 -0.1518 -0.4480  0.1066
   6623SM   H3F 8566   3.243   1.501  16.238 -0.7261  1.6710  0.6298
   6623SM   H3G 8567   3.365   1.454  16.370 -0.6976 -0.6988  0.0647
   6623SM   C4F 8568   3.448   1.489  16.163 -0.4872  0.4965 -0.6536
   6623SM   H4F 8569   3.546   1.494  16.215  0.7656  2.3208 -2.9725
   6623SM   H4G 8570   3.449   1.582  16.102 -1.0294  0.8809 -0.0981
   6623SM   C5F 8571   3.438   1.353  16.095 -0.0976  0.0158  0.9283
   6623SM   H5F 8572   3.407   1.275  16.168  0.8159 -1.4846 -0.2410
   6623SM   H5G 8573   3.540   1.328  16.060  0.3647  1.0687  1.4810
   6623SM   C6F 8574   3.334   1.350  15.983  0.2604  0.4350 -0.1473
   6623SM   H6F 8575   3.355   1.433  15.912 -0.7588 -1.4147 -2.7694
   6623SM   H6G 8576   3.234   1.369  16.026  0.9120  0.5772  1.4050
   6623SM   C7F 8577   3.329   1.208  15.916 -0.4110  0.1140  0.1373
   6623SM   H7F 8578   3.301   1.146  16.004 -0.2312  0.7067  0.6207
   6623SM   H7G 8579   3.435   1.193  15.888 -0.8347  0.2345 -1.7010
   6623SM   C8F 8580   3.233   1.189  15.805 -0.2498  0.0764  0.1591
   6623SM   H8F 8581   3.259   1.213  15.700  0.0240  0.5702  0.3358
   6623SM   H8G 8582   3.144   1.251  15.830 -0.4099 -1.0923  2.8580
   6623SM   C9F 8583   3.205   1.037  15.789  0.0623 -0.5328 -0.2614
   6623SM   H9F 8584   3.148   0.999  15.876 -0.9822  1.0363 -0.2099
   6623SM   H9G 8585   3.299   0.980  15.773  0.8850  0.6022  0.3304
   6623SM  C10F 8586   3.112   1.007  15.670  0.5270 -0.6997 -0.0360
   6623SM  H10F 8587   3.016   1.062  15.682 -0.5245 -2.4591  0.0034
   6623SM  H10G 8588   3.076   0.902  15.679 -0.4138 -0.3612  0.2374
   6623SM  C11F 8589   3.178   1.020  15.536 -0.4081  0.2088  0.3895
   6623SM  H11F 8590   3.274   0.968  15.519  1.4621  3.2173  1.0608
   6623SM  H11G 8591   3.191   1.129  15.518  3.6061 -0.0475  1.0341
   6623SM  C12F 8592   3.078   0.976  15.425 -0.1301  0.4729  0.9058
   6623SM  H12F 8593   3.137   0.996  15.332 -0.6555 -1.2356  0.1718
   6623SM  H12G 8594   2.991   1.044  15.423 -0.8525 -0.4368  0.7784
   6623SM  C13F 8595   3.030   0.827  15.424 -0.2270  0.1233 -0.4491
   6623SM  H13F 8596   2.975   0.824  15.520  0.2326 -1.0006 -0.2100
   6623SM  H13G 8597   3.113   0.754  15.426  0.0901  0.4976  0.2687
   6623SM  C14F 8598   2.938   0.792  15.304  0.5018 -0.4913 -0.0209
   6623SM  H14F 8599   2.864   0.871  15.280  1.3262 -0.3406 -2.3134
   6623SM  H14G 8600   2.874   0.704  15.328 -1.6645  0.8081 -0.8285
   6623SM  C15F 8601   3.019   0.755  15.176  0.4117 -0.8159  0.3225
   6623SM  H15F 8602   3.092   0.675  15.201  1.2556  0.2231  1.2801
   6623SM  H15G 8603   3.074   0.847  15.147 -0.4871 -0.1810  0.6036
   6623SM  C16F 8604   2.924   0.726  15.061  0.6879  0.1116 -0.4760
   6623SM  H16F 8605   2.979   0.718  14.965  2.2922  0.8950  0.3307
   6623SM  H16G 8606   2.871   0.822  15.041 -0.4772 -0.0823  1.4334
   6623SM  C17F 8607   2.825   0.611  15.087 -0.0530  0.3058 -1.0403
   6623SM  H17F 8608   2.756   0.634  15.171  0.2312  0.7800 -0.9294
   6623SM  H17G 8609   2.887   0.523  15.115 -1.3449 -0.8657 -1.7325
   6623SM  C18F 8610   2.749   0.581  14.960  0.0891 -0.5137  0.0156
   6623SM  H18F 8611   2.822   0.595  14.877  1.7082 -2.8169  0.9700
   6623SM  H18G 8612   2.674   0.662  14.940  0.4524 -0.4200 -1.0448
   6623SM  C19F 8613   2.691   0.435  14.955 -0.5268 -0.3392 -0.0096
   6623SM  H19F 8614   2.772   0.359  14.949  0.5621  0.8881 -2.5463
   6623SM  H19G 8615   2.636   0.420  14.860 -2.0599  2.3314  0.3380
   6623SM  C20F 8616   2.609   0.392  15.075  0.7202 -0.1338 -0.4376
   6623SM  H20F 8617   2.519   0.454  15.095 -1.6250 -3.7859  1.2306
   6623SM  H20G 8618   2.669   0.405  15.168 -0.3009  0.3621  0.1691
   6623SM  C21F 8619   2.569   0.247  15.061 -0.2631 -0.1248 -0.0559
   6623SM  H21F 8620   2.654   0.176  15.053  0.4353  0.7797 -0.9309
   6623SM  H21G 8621   2.515   0.231  14.966 -0.6908  0.6076  0.0550
   6623SM  C22F 8622   2.473   0.207  15.176  0.0805  0.2335 -0.1116
   6623SM  H22F 8623   2.414   0.290  15.220 -1.2005 -1.3130  1.2155
   6623SM  H22G 8624   2.528   0.158  15.259 -0.7236 -1.8489 -0.7542
   6623SM  C23F 8625   2.371   0.095  15.130 -0.3237 -0.3921 -0.3294
   6623SM  H23F 8626   2.298   0.087  15.213 -2.3469  0.0117 -1.9553
   6623SM  H23G 8627   2.427   0.000  15.116 -1.2403 -1.2262  1.3462
   6623SM  H23H 8628   2.314   0.123  15.038 -1.0391  0.5931  0.3912
   6723SM     N 8629   3.249   5.463  17.143  0.5733 -0.5180  0.4397
   6723SM   C15 8630   3.169   5.361  17.215  0.2511  0.2777 -0.0384
   6723SM  H15A 8631   3.174   5.373  17.322 -0.9312  0.4151  0.0149
   6723SM  H15B 8632   3.210   5.262  17.197 -0.5781 -0.2071  0.6732
   6723SM  H15C 8633   3.065   5.371  17.186  0.1841  1.6404  0.5918
   6723SM   C14 8634   3.256   5.587  17.222  0.5815  0.0808 -0.7901
   6723SM  H14A 8635   3.159   5.622  17.253  0.0505 -2.5863  0.8723
   6723SM  H14B 8636   3.302   5.666  17.164  0.5779  1.8394  1.4330
   6723SM  H14C 8637   3.314   5.579  17.313  0.0894  1.6769 -0.3003
   6723SM   C13 8638   3.381   5.409  17.121 -0.0271 -0.8285 -0.2491
   6723SM  H13A 8639   3.377   5.323  17.056 -2.2915 -1.7289  0.9396
   6723SM  H13B 8640   3.429   5.374  17.212  0.8574  1.6751  0.3205
   6723SM  H13C 8641   3.453   5.479  17.084  1.6570 -2.0810  0.5316
   6723SM   C12 8642   3.177   5.484  17.011 -0.3225 -0.5016  0.2348
   6723SM  H12A 8643   3.168   5.395  16.950  0.9720 -0.5381  0.0717
   6723SM  H12B 8644   3.230   5.555  16.949 -1.4999 -0.2674 -0.5312
   6723SM   C11 8645   3.023   5.518  17.012  0.2708 -0.3249 -0.0295
   6723SM  H11A 8646   2.958   5.445  17.063 -0.8593  0.8606  0.2650
   6723SM  H11B 8647   2.991   5.513  16.905 -1.8871  1.8270  0.4317
   6723SM     P 8648   3.022   5.776  16.986  0.7008 -0.3185 -0.0540
   6723SM   O13 8649   2.903   5.816  16.914 -0.5723 -0.5461 -0.3117
   6723SM   O14 8650   3.083   5.870  17.074  0.4417 -0.0860  0.1207
   6723SM   O11 8651   3.128   5.726  16.878  0.1588 -0.6752  0.3904
   6723SM   O12 8652   2.994   5.644  17.069 -0.4322  0.2295  0.0876
   6723SM   C1S 8653   3.088   5.696  16.743 -0.0082  0.4676 -0.2875
   6723SM   H1S 8654   2.985   5.723  16.712 -0.6315  1.0317  2.0783
   6723SM   H1T 8655   3.104   5.586  16.739  0.6388  0.4879  1.1600
   6723SM    NF 8656   3.168   5.763  16.517 -0.2849 -0.0611  0.3736
   6723SM   HNF 8657   3.181   5.682  16.460  0.0631  1.2542 -1.5401
   6723SM   C2S 8658   3.208   5.752  16.661 -0.3175  0.6252  0.5369
   6723SM   H2S 8659   3.221   5.856  16.697 -1.8398  1.0541 -0.0904
   6723SM   C3S 8660   3.344   5.673  16.691 -0.1012 -0.0162 -0.2279
   6723SM   H3S 8661   3.326   5.567  16.665 -1.1867  0.3215 -0.9608
   6723SM    O3 8662   3.385   5.669  16.828 -0.0648 -0.1804  0.7551
   6723SM   HO3 8663   3.312   5.708  16.875 -0.1074 -0.1287  0.6474
   6723SM   C4S 8664   3.451   5.730  16.604  0.4919  0.1289  0.5847
   6723SM   H4S 8665   3.473   5.668  16.516  1.9384 -0.4494  1.3290
   6723SM   C5S 8666   3.512   5.852  16.611 -0.2096  0.1008 -0.1474
   6723SM   H5S 8667   3.488   5.922  16.693 -1.3922 -1.9096  1.3238
   6723SM   C6S 8668   3.583   5.924  16.499 -0.5569 -0.4709 -0.2998
   6723SM   H6S 8669   3.690   5.893  16.493 -0.2313  0.3135  1.0524
   6723SM   H6T 8670   3.591   6.034  16.513 -0.0550 -0.2896 -1.7393
   6723SM   C7S 8671   3.523   5.901  16.365  0.6172  0.0390 -0.5670
   6723SM   H7S 8672   3.413   5.917  16.370  0.7195  0.8085 -0.5784
   6723SM   H7T 8673   3.539   5.798  16.327  0.3039  0.0430 -0.7168
   6723SM   C8S 8674   3.586   6.004  16.264  0.2114 -0.3518 -1.0308
   6723SM   H8S 8675   3.696   5.985  16.262  0.1919 -0.4839 -0.8842
   6723SM   H8T 8676   3.572   6.105  16.307  1.2107 -0.7455  0.2965
   6723SM   C9S 8677   3.532   5.996  16.125 -0.8352  0.3761  0.5309
   6723SM   H9S 8678   3.434   6.047  16.123 -0.1771  1.6601  0.3516
   6723SM   H9T 8679   3.513   5.888  16.108  1.0211 -0.2019  1.7473
   6723SM  C10S 8680   3.610   6.078  16.023 -0.5734 -0.5143 -0.0677
   6723SM  H10S 8681   3.710   6.032  16.007 -1.2978 -1.4517 -2.4815
   6723SM  H10T 8682   3.625   6.184  16.052  0.9056 -0.2836 -1.5033
   6723SM  C11S 8683   3.541   6.080  15.887  0.3963 -0.0716 -0.2093
   6723SM  H11S 8684   3.436   6.111  15.902  1.0113  1.8866  0.3116
   6723SM  H11T 8685   3.536   5.975  15.852  1.6369  0.9047 -3.6936
   6723SM  C12S 8686   3.584   6.165  15.769 -0.5121 -0.7246  0.0115
   6723SM  H12S 8687   3.691   6.144  15.746 -0.7971 -1.2125 -0.8972
   6723SM  H12T 8688   3.580   6.265  15.818  3.6301 -0.3152 -0.1279
   6723SM  C13S 8689   3.501   6.154  15.644  0.0415  0.3214  0.7122
   6723SM  H13S 8690   3.393   6.176  15.654 -0.7689 -1.7018 -2.1304
   6723SM  H13T 8691   3.498   6.046  15.615 -0.2867 -0.2943  2.8704
   6723SM  C14S 8692   3.546   6.225  15.515 -0.1039  0.3794 -0.0936
   6723SM  H14S 8693   3.652   6.193  15.501 -0.7318 -3.1122  1.9939
   6723SM  H14T 8694   3.557   6.336  15.522  0.1771  0.2868  1.6946
   6723SM  C15S 8695   3.464   6.176  15.391  0.0978 -0.1516 -0.1896
   6723SM  H15S 8696   3.368   6.230  15.378  0.8553  0.9987 -1.2738
   6723SM  H15T 8697   3.447   6.067  15.396  0.2093 -0.2242 -1.1580
   6723SM  C16S 8698   3.537   6.226  15.262 -0.5389 -0.3432 -0.1368
   6723SM  H16S 8699   3.636   6.177  15.269  0.2781  1.4342  1.8755
   6723SM  H16T 8700   3.559   6.335  15.268  0.4657 -0.5931  0.9118
   6723SM  C17S 8701   3.462   6.216  15.132 -0.2637  0.2674  0.1332
   6723SM  H17S 8702   3.524   6.253  15.047 -1.1664 -1.7499 -1.5224
   6723SM  H17T 8703   3.367   6.272  15.139 -0.5026 -0.0419 -0.4731
   6723SM  C18S 8704   3.426   6.074  15.089 -0.2248  0.9985 -0.6460
   6723SM  H18S 8705   3.369   6.007  15.157 -0.1121  0.7752 -0.7748
   6723SM  H18T 8706   3.517   6.015  15.066 -1.5609 -0.8918 -1.2796
   6723SM  H18U 8707   3.376   6.056  14.992 -0.3572 -2.6824 -0.0485
   6723SM   C1F 8708   3.075   5.854  16.476  0.3317 -0.0814 -0.3699
   6723SM    OF 8709   3.053   5.951  16.553  0.0879  0.6222 -0.3552
   6723SM   C2F 8710   3.003   5.838  16.340 -0.3765 -0.0193 -0.1446
   6723SM   H2F 8711   2.976   5.730  16.335  1.2384 -0.5475  1.4223
   6723SM   H2G 8712   3.077   5.867  16.263  1.7159  0.8730  2.0861
   6723SM   C3F 8713   2.869   5.919  16.327  0.4409 -0.9393  0.0196
   6723SM   H3F 8714   2.887   6.026  16.353 -0.9039 -0.6374 -0.2438
   6723SM   H3G 8715   2.800   5.883  16.406  0.5978  1.2647  1.2492
   6723SM   C4F 8716   2.818   5.912  16.188  0.4144  0.2787 -0.3720
   6723SM   H4F 8717   2.896   5.961  16.127  1.4921 -0.1212  0.6584
   6723SM   H4G 8718   2.726   5.974  16.185 -0.9141 -1.4589  1.6164
   6723SM   C5F 8719   2.777   5.776  16.138  0.0647  0.0435 -0.2133
   6723SM   H5F 8720   2.708   5.730  16.212 -0.1265 -1.9417 -1.5330
   6723SM   H5G 8721   2.860   5.702  16.134 -1.7258 -2.0252 -0.7812
   6723SM   C6F 8722   2.732   5.779  15.988  0.2546 -0.4405 -0.7978
   6723SM   H6F 8723   2.797   5.840  15.922 -0.8602  3.0158  1.0314
   6723SM   H6G 8724   2.636   5.835  15.987 -0.4172 -1.4720  1.0841
   6723SM   C7F 8725   2.699   5.640  15.929 -1.3985  0.0927  0.1350
   6723SM   H7F 8726   2.612   5.605  15.989 -1.7552  1.1238  0.2455
   6723SM   H7G 8727   2.790   5.582  15.953  0.7170  3.7677  1.9248
   6723SM   C8F 8728   2.676   5.619  15.780 -0.4660 -0.2503  0.0824
   6723SM   H8F 8729   2.666   5.517  15.737 -2.5295  0.6896 -1.8612
   6723SM   H8G 8730   2.769   5.653  15.730  0.4798 -1.4281  0.9677
   6723SM   C9F 8731   2.554   5.698  15.734 -0.2056  0.3127  0.0979
   6723SM   H9F 8732   2.566   5.808  15.740  1.9883  0.0675  1.8824
   6723SM   H9G 8733   2.467   5.677  15.800 -0.3191 -1.0219 -0.4467
   6723SM  C10F 8734   2.512   5.654  15.594  0.1753  0.4978  0.4007
   6723SM  H10F 8735   2.404   5.675  15.577  0.0842  2.3089  2.6822
   6723SM  H10G 8736   2.523   5.544  15.586  2.0971  0.5132  1.9091
   6723SM  C11F 8737   2.607   5.703  15.483 -0.0135  0.5641 -0.4949
   6723SM  H11F 8738   2.710   5.665  15.502 -0.0114  0.3232 -0.9704
   6723SM  H11G 8739   2.610   5.814  15.474 -3.4583  0.8720  0.8329
   6723SM  C12F 8740   2.552   5.646  15.353 -0.5361  0.7579 -0.8558
   6723SM  H12F 8741   2.562   5.536  15.367 -1.1289  0.7862 -0.0951
   6723SM  H12G 8742   2.631   5.665  15.278 -0.4557  0.8373 -0.7517
   6723SM  C13F 8743   2.419   5.693  15.302  0.6892 -0.1617  0.4151
   6723SM  H13F 8744   2.334   5.692  15.374  0.2194 -1.6138 -0.1264
   6723SM  H13G 8745   2.391   5.608  15.236 -0.7151  0.3806  0.2596
   6723SM  C14F 8746   2.417   5.823  15.221  0.5434 -0.5854 -0.2348
   6723SM  H14F 8747   2.451   5.912  15.278  2.6041  0.0419 -2.2838
   6723SM  H14G 8748   2.315   5.861  15.196  0.8218 -0.6352 -1.4862
   6723SM  C15F 8749   2.487   5.813  15.086 -0.3667 -0.0141 -0.9080
   6723SM  H15F 8750   2.430   5.745  15.019  4.7706 -6.2854  0.0856
   6723SM  H15G 8751   2.584   5.761  15.099 -0.0211  1.1283  1.7879
   6723SM  C16F 8752   2.513   5.946  15.010 -0.5003  0.0306  0.1081
   6723SM  H16F 8753   2.619   5.971  14.990 -1.9635  5.7072 -2.7222
   6723SM  H16G 8754   2.471   6.028  15.072  0.5298  1.7576 -1.3868
   6723SM  C17F 8755   2.457   5.942  14.871  0.7612 -0.1806 -0.0948
   6723SM  H17F 8756   2.449   6.042  14.825  1.6213  0.2082  0.5826
   6723SM  H17G 8757   2.355   5.898  14.866 -0.0062  1.6796 -1.5919
   6723SM  C18F 8758   2.537   5.853  14.776  0.1639 -0.2320 -0.3856
   6723SM  H18F 8759   2.514   5.751  14.814  1.8497  0.0292  1.5275
   6723SM  H18G 8760   2.646   5.865  14.795  0.3009 -0.9817 -0.6449
   6723SM  C19F 8761   2.520   5.861  14.628  0.3299 -0.3910 -0.2477
   6723SM  H19F 8762   2.578   5.780  14.580  1.7325  0.4486 -0.0188
   6723SM  H19G 8763   2.562   5.958  14.595 -0.2654  0.0138  0.1638
   6723SM  C20F 8764   2.382   5.832  14.577 -0.0514  0.1777 -0.5516
   6723SM  H20F 8765   2.311   5.895  14.634  1.4800  1.0846  0.4197
   6723SM  H20G 8766   2.348   5.729  14.604  0.5142 -0.4186 -2.0093
   6723SM  C21F 8767   2.362   5.843  14.423 -0.0074  0.2459 -0.6586
   6723SM  H21F 8768   2.281   5.776  14.388 -0.6975 -0.6404  2.3094
   6723SM  H21G 8769   2.448   5.819  14.356 -0.3373 -3.1600 -0.0160
   6723SM  C22F 8770   2.322   5.987  14.384  0.1641 -0.0858 -0.9679
   6723SM  H22F 8771   2.397   6.060  14.421  0.0606 -1.1808  1.6246
   6723SM  H22G 8772   2.230   6.013  14.442  1.2662 -1.9312  1.8325
   6723SM  C23F 8773   2.300   6.007  14.235 -0.0709  0.1414 -0.7294
   6723SM  H23F 8774   2.228   6.088  14.208  0.5711  1.4476  1.2660
   6723SM  H23G 8775   2.252   5.916  14.194  0.1500 -0.2502 -0.1322
   6723SM  H23H 8776   2.392   6.029  14.177 -0.5593  0.5835 -1.3598
   6823SM     N 8777   2.790   1.438  17.096 -0.5777 -0.4586  0.0619
   6823SM   C15 8778   2.937   1.409  17.114 -0.4335  0.0416  0.0591
   6823SM  H15A 8779   2.967   1.404  17.218  2.2867 -3.5713 -0.6912
   6823SM  H15B 8780   2.995   1.491  17.074 -1.0070  1.8025  2.5601
   6823SM  H15C 8781   2.969   1.328  17.051  1.4564  1.4270 -0.8730
   6823SM   C14 8782   2.757   1.468  16.953 -0.2836 -0.0591  0.3149
   6823SM  H14A 8783   2.823   1.539  16.904 -0.0578 -1.3112 -1.3135
   6823SM  H14B 8784   2.651   1.486  16.942 -0.6042 -2.7337 -2.3315
   6823SM  H14C 8785   2.767   1.379  16.891  1.0578  0.2100  0.1053
   6823SM   C13 8786   2.712   1.317  17.137  0.5470 -0.4224 -0.4307
   6823SM  H13A 8787   2.701   1.310  17.245 -1.2882 -0.4663 -0.5853
   6823SM  H13B 8788   2.762   1.224  17.116  1.1619  0.2258 -1.9483
   6823SM  H13C 8789   2.617   1.320  17.087  2.0243  0.0906 -3.3850
   6823SM   C12 8790   2.743   1.555  17.185  0.3851 -0.5375  1.2470
   6823SM  H12A 8791   2.804   1.642  17.166 -2.3038  1.4215  0.9138
   6823SM  H12B 8792   2.750   1.523  17.288  0.5737  0.1272  1.4457
   6823SM   C11 8793   2.593   1.621  17.161 -0.7474 -0.1658 -0.5805
   6823SM  H11A 8794   2.596   1.699  17.240 -1.3675 -0.5351 -0.1819
   6823SM  H11B 8795   2.511   1.550  17.186 -0.7305 -0.7235 -1.9881
   6823SM     P 8796   2.446   1.746  16.987 -0.2879  0.1739  0.0940
   6823SM   O13 8797   2.328   1.659  17.011  0.2800 -0.5804 -0.4649
   6823SM   O14 8798   2.436   1.882  17.048 -0.6205  0.4830  0.1472
   6823SM   O11 8799   2.462   1.774  16.830  0.5854  0.3363  0.0386
   6823SM   O12 8800   2.583   1.674  17.026  0.5561  0.1259 -0.2699
   6823SM   C1S 8801   2.458   1.668  16.739 -0.4200  0.6229  0.4525
   6823SM   H1S 8802   2.360   1.617  16.745  0.7923 -1.6663  2.3646
   6823SM   H1T 8803   2.539   1.594  16.758  1.7131  2.1574 -1.8906
   6823SM    NF 8804   2.454   1.601  16.507 -0.1656 -0.0148  0.4903
   6823SM   HNF 8805   2.513   1.521  16.505 -1.1148 -0.7167 -0.1364
   6823SM   C2S 8806   2.494   1.714  16.592  0.0447 -0.0285 -0.1922
   6823SM   H2S 8807   2.418   1.794  16.578 -1.7720 -2.0116 -2.6355
   6823SM   C3S 8808   2.642   1.765  16.587 -0.0352  0.1658 -0.3624
   6823SM   H3S 8809   2.719   1.697  16.629 -0.5876  0.5192  1.2682
   6823SM    O3 8810   2.658   1.881  16.668  0.2973  0.4513 -0.3014
   6823SM   HO3 8811   2.572   1.904  16.702  1.2774  2.1405  1.2265
   6823SM   C4S 8812   2.683   1.813  16.448  0.0521 -0.0165  1.0081
   6823SM   H4S 8813   2.656   1.918  16.429  0.0877  0.0221  1.1689
   6823SM   C5S 8814   2.763   1.748  16.362 -0.6926  0.0600  0.4803
   6823SM   H5S 8815   2.814   1.654  16.387  1.1413  0.4644 -1.4254
   6823SM   C6S 8816   2.807   1.791  16.228  0.0962  0.6470  0.2323
   6823SM   H6S 8817   2.762   1.886  16.194 -2.0538 -1.0208 -1.9594
   6823SM   H6T 8818   2.766   1.724  16.149 -0.8331  1.8725 -0.3591
   6823SM   C7S 8819   2.957   1.792  16.212 -0.1375  0.5631  0.2005
   6823SM   H7S 8820   3.003   1.706  16.265  0.2828  0.0120 -1.0123
   6823SM   H7T 8821   3.001   1.881  16.260  0.7776  1.0942 -1.5337
   6823SM   C8S 8822   3.024   1.791  16.075 -0.1621 -0.0422  0.4392
   6823SM   H8S 8823   3.133   1.806  16.095  0.4577 -3.3768  0.2557
   6823SM   H8T 8824   2.983   1.863  16.002 -1.5625  0.8184  2.0055
   6823SM   C9S 8825   3.013   1.656  16.004  0.4006  1.5541 -0.5072
   6823SM   H9S 8826   2.906   1.637  15.978  0.3063  0.0710  0.8273
   6823SM   H9T 8827   3.041   1.567  16.064 -1.1036  0.6476 -1.0955
   6823SM  C10S 8828   3.094   1.668  15.875  0.1357 -0.2209  0.7007
   6823SM  H10S 8829   3.201   1.681  15.903  1.4765 -0.8458 -3.4961
   6823SM  H10T 8830   3.060   1.761  15.825  0.7573 -0.1664  0.3728
   6823SM  C11S 8831   3.065   1.552  15.786  0.7765 -0.4154  0.3601
   6823SM  H11S 8832   2.957   1.551  15.760 -0.1963  2.1896  3.5127
   6823SM  H11T 8833   3.094   1.455  15.831  0.1202 -0.9477 -0.3463
   6823SM  C12S 8834   3.154   1.562  15.665  0.4296 -0.5076 -0.4312
   6823SM  H12S 8835   3.262   1.563  15.690  0.6353 -0.1612 -1.2977
   6823SM  H12T 8836   3.130   1.655  15.609  0.0480 -1.8262 -2.5657
   6823SM  C13S 8837   3.121   1.454  15.551 -0.0093 -0.4028 -0.4121
   6823SM  H13S 8838   3.148   1.358  15.599  2.7233  0.2754 -0.4276
   6823SM  H13T 8839   3.175   1.477  15.457 -0.8388  1.4863 -0.4828
   6823SM  C14S 8840   2.972   1.424  15.517  0.4854 -0.1052  0.1260
   6823SM  H14S 8841   2.910   1.370  15.592 -0.1881 -0.3992 -0.6269
   6823SM  H14T 8842   2.964   1.364  15.423 -0.3476  1.0453 -0.5618
   6823SM  C15S 8843   2.895   1.553  15.475  0.0285  0.1681 -0.4393
   6823SM  H15S 8844   2.917   1.587  15.372 -1.3055 -0.8297 -1.0743
   6823SM  H15T 8845   2.927   1.631  15.548  1.2538  0.3656 -1.1561
   6823SM  C16S 8846   2.740   1.532  15.475  0.1030  0.0633 -0.8240
   6823SM  H16S 8847   2.701   1.524  15.579 -0.2207 -2.0491 -1.0676
   6823SM  H16T 8848   2.725   1.438  15.417 -0.0338  0.1053 -0.8548
   6823SM  C17S 8849   2.676   1.637  15.391  0.0982  0.2241 -0.1533
   6823SM  H17S 8850   2.726   1.650  15.292 -1.7845  1.4115 -1.0221
   6823SM  H17T 8851   2.693   1.737  15.437 -0.9410  0.3022  0.0892
   6823SM  C18S 8852   2.527   1.619  15.369 -0.2681 -0.1082  0.2119
   6823SM  H18S 8853   2.508   1.516  15.332  0.5926 -1.5988  3.5335
   6823SM  H18T 8854   2.493   1.688  15.289 -0.6727  0.0062  0.4798
   6823SM  H18U 8855   2.469   1.643  15.461  0.2486 -0.7173  0.7015
   6823SM   C1F 8856   2.327   1.578  16.468 -0.3771  0.2116 -0.3614
   6823SM    OF 8857   2.247   1.673  16.473  0.2471  0.0966  0.1562
   6823SM   C2F 8858   2.292   1.438  16.445 -0.3543  0.2644  0.0309
   6823SM   H2F 8859   2.229   1.399  16.528  0.4372 -1.1849 -0.0180
   6823SM   H2G 8860   2.380   1.371  16.438 -0.0491  0.1848  3.1126
   6823SM   C3F 8861   2.203   1.421  16.313 -0.8375  0.6813  0.3457
   6823SM   H3F 8862   2.186   1.312  16.301 -0.7173  0.7122 -0.1151
   6823SM   H3G 8863   2.274   1.447  16.231  3.0602  0.6873  3.4519
   6823SM   C4F 8864   2.068   1.491  16.317 -0.2387  0.1749 -0.4138
   6823SM   H4F 8865   2.083   1.597  16.350 -0.3524  0.3832 -1.0219
   6823SM   H4G 8866   2.013   1.445  16.401  1.5939 -3.2418 -0.9136
   6823SM   C5F 8867   1.987   1.479  16.192 -0.2494 -0.1744  0.0402
   6823SM   H5F 8868   1.878   1.492  16.207  0.1610  3.3326  1.1121
   6823SM   H5G 8869   2.007   1.380  16.147 -1.7008 -0.7412  0.5994
   6823SM   C6F 8870   2.026   1.582  16.089  0.7068 -0.2669  0.6339
   6823SM   H6F 8871   2.135   1.584  16.068  0.6055 -0.8085  0.0017
   6823SM   H6G 8872   2.000   1.677  16.139  1.0171 -0.6773  1.5941
   6823SM   C7F 8873   1.945   1.552  15.958  0.2191  0.1099  0.1810
   6823SM   H7F 8874   1.838   1.572  15.977  0.2773  0.3720  0.2298
   6823SM   H7G 8875   1.960   1.444  15.934 -3.0515 -0.0906 -1.6280
   6823SM   C8F 8876   1.984   1.653  15.850 -0.0356  0.1781 -0.2487
   6823SM   H8F 8877   2.065   1.616  15.783 -1.0112  2.3887 -2.8066
   6823SM   H8G 8878   2.014   1.748  15.900  0.9611 -0.9531  1.4227
   6823SM   C9F 8879   1.861   1.688  15.767  0.0326 -0.1361 -0.1242
   6823SM   H9F 8880   1.791   1.722  15.846  0.5587 -0.9097  0.6830
   6823SM   H9G 8881   1.817   1.603  15.711  0.1717  0.9412 -1.9577
   6823SM  C10F 8882   1.885   1.809  15.670  0.4608 -0.2517  0.2397
   6823SM  H10F 8883   1.994   1.819  15.652  0.4957 -3.1047 -1.8161
   6823SM  H10G 8884   1.854   1.905  15.717  0.7142  0.4946 -1.0921
   6823SM  C11F 8885   1.805   1.786  15.543  0.8598  0.0968 -0.8585
   6823SM  H11F 8886   1.821   1.686  15.497 -0.1061 -0.1485 -0.6785
   6823SM  H11G 8887   1.843   1.862  15.471 -1.1965  1.5606 -0.4786
   6823SM  C12F 8888   1.657   1.814  15.559  0.0759  0.6106  1.1949
   6823SM  H12F 8889   1.649   1.881  15.647 -1.0636  0.1255  1.4786
   6823SM  H12G 8890   1.585   1.734  15.586  0.5810  0.5664  2.4822
   6823SM  C13F 8891   1.597   1.865  15.423 -0.4359  0.6790  0.7783
   6823SM  H13F 8892   1.626   1.794  15.342 -0.8175 -0.6398  1.7504
   6823SM  H13G 8893   1.636   1.967  15.403  0.9805  0.4054  1.9487
   6823SM  C14F 8894   1.440   1.872  15.422 -0.0199  0.2818  0.6528
   6823SM  H14F 8895   1.397   1.770  15.425 -1.7841  0.9804  0.2235
   6823SM  H14G 8896   1.426   1.910  15.319  0.7829  0.3638  0.5666
   6823SM  C15F 8897   1.365   1.953  15.522 -0.4964 -0.2855 -0.1131
   6823SM  H15F 8898   1.389   2.058  15.496  0.8469 -0.2676  1.0573
   6823SM  H15G 8899   1.404   1.934  15.624  0.0604  0.3783 -0.1986
   6823SM  C16F 8900   1.216   1.927  15.512  0.5139  0.5261 -0.1546
   6823SM  H16F 8901   1.186   1.826  15.547  1.5996 -0.2855 -1.4403
   6823SM  H16G 8902   1.171   1.939  15.411  0.4833 -1.7332 -0.4685
   6823SM  C17F 8903   1.136   2.015  15.618  0.2682 -0.1473  0.5875
   6823SM  H17F 8904   1.162   2.121  15.597 -1.7945  0.1101 -0.9626
   6823SM  H17G 8905   1.170   1.986  15.720  1.1561  0.9427  0.6253
   6823SM  C18F 8906   0.984   1.992  15.608  0.1225 -0.4777  0.7488
   6823SM  H18F 8907   0.933   2.017  15.703 -0.6440 -2.4507  0.9063
   6823SM  H18G 8908   0.974   1.882  15.590 -0.1754 -0.3191 -0.0874
   6823SM  C19F 8909   0.916   2.078  15.508 -0.0583  0.1949  0.4932
   6823SM  H19F 8910   0.958   2.058  15.407  1.4373 -0.8576  1.2896
   6823SM  H19G 8911   0.939   2.185  15.524 -0.9536  0.7863 -1.7387
   6823SM  C20F 8912   0.766   2.049  15.504  0.1590 -0.4474  0.2869
   6823SM  H20F 8913   0.727   2.069  15.606 -1.1536 -1.8597  0.0974
   6823SM  H20G 8914   0.739   1.944  15.480  0.0141 -0.7614  1.7472
   6823SM  C21F 8915   0.690   2.134  15.401  0.1620 -0.0729 -0.4815
   6823SM  H21F 8916   0.698   2.075  15.307 -1.9782 -1.1715 -0.0197
   6823SM  H21G 8917   0.733   2.230  15.364  0.8413 -0.4726 -0.7514
   6823SM  C22F 8918   0.542   2.154  15.427  0.4931 -0.5910 -0.0595
   6823SM  H22F 8919   0.541   2.227  15.511 -0.2433 -1.5530  0.7989
   6823SM  H22G 8920   0.488   2.064  15.461  3.6866 -2.6495 -0.0178
   6823SM  C23F 8921   0.461   2.215  15.306  0.6079 -0.2891 -0.4023
   6823SM  H23F 8922   0.498   2.316  15.276  0.5712 -0.1627 -0.0168
   6823SM  H23G 8923   0.351   2.216  15.322  0.7768 -0.6083  0.8860
   6823SM  H23H 8924   0.474   2.151  15.216  0.9937 -0.4523 -0.2318
   6923SM     N 8925   4.290   0.839  17.473 -0.1049  0.3126  0.1894
   6923SM   C15 8926   4.338   0.828  17.332  0.1281 -0.2695  0.6817
   6923SM  H15A 8927   4.387   0.732  17.318 -0.4329 -0.4233 -0.3528
   6923SM  H15B 8928   4.400   0.911  17.302  0.6091 -1.9362 -3.7846
   6923SM  H15C 8929   4.250   0.839  17.271 -0.1854 -0.1793  1.1543
   6923SM   C14 8930   4.204   0.713  17.502 -0.2629 -0.1423 -0.2519
   6923SM  H14A 8931   4.113   0.707  17.445 -1.1390  0.1596  1.0552
   6923SM  H14B 8932   4.170   0.701  17.604  0.0782 -2.9802 -0.4084
   6923SM  H14C 8933   4.265   0.628  17.475 -2.3521 -1.9240  0.3922
   6923SM   C13 8934   4.404   0.848  17.570  0.6521 -0.1329  0.2624
   6923SM  H13A 8935   4.468   0.761  17.565 -0.7332 -1.1675 -0.1794
   6923SM  H13B 8936   4.368   0.849  17.671 -0.3163 -1.7934 -0.0342
   6923SM  H13C 8937   4.463   0.938  17.555 -0.1737  0.3635 -0.1170
   6923SM   C12 8938   4.208   0.968  17.489  0.3821  0.1640  0.4971
   6923SM  H12A 8939   4.268   1.055  17.468  0.1609  0.5575  1.4319
   6923SM  H12B 8940   4.182   0.983  17.592  0.9627  3.3214  0.2993
   6923SM   C11 8941   4.067   0.978  17.414 -0.0465  0.0480  0.1931
   6923SM  H11A 8942   4.007   1.060  17.459 -2.1482 -0.9349 -0.6709
   6923SM  H11B 8943   4.019   0.884  17.449  0.0160 -0.9347 -2.2009
   6923SM     P 8944   4.127   1.137  17.212 -0.6408  0.0566  0.0475
   6923SM   O13 8945   4.044   1.257  17.241  0.1594  0.0338  0.5267
   6923SM   O14 8946   4.272   1.150  17.238 -0.3153  1.1895  0.0723
   6923SM   O11 8947   4.114   1.124  17.052 -0.0819  0.5629  0.4033
   6923SM   O12 8948   4.064   1.005  17.278  0.1079 -0.1815  0.4683
   6923SM   C1S 8949   3.995   1.056  17.000  0.0547  0.5631  0.1209
   6923SM   H1S 8950   3.899   1.105  17.025 -1.8052 -2.0078 -1.4236
   6923SM   H1T 8951   3.975   0.961  17.055  1.5993 -0.0791 -0.3517
   6923SM    NF 8952   3.896   1.007  16.773 -0.1337 -0.1933 -0.4911
   6923SM   HNF 8953   3.902   0.924  16.718 -0.4838  0.4332 -1.4843
   6923SM   C2S 8954   4.019   1.039  16.847  0.0707 -0.3202  0.1955
   6923SM   H2S 8955   4.055   1.136  16.806 -0.3857  0.0853  0.7417
   6923SM   C3S 8956   4.137   0.935  16.833 -0.5652 -0.6789  0.2096
   6923SM   H3S 8957   4.102   0.833  16.858 -0.5137 -0.7871 -0.1506
   6923SM    O3 8958   4.258   0.946  16.915  0.2008 -0.1536 -0.2886
   6923SM   HO3 8959   4.234   1.016  16.976 -1.4230 -1.3598  0.5465
   6923SM   C4S 8960   4.179   0.927  16.685 -0.3287 -0.0601 -0.3609
   6923SM   H4S 8961   4.144   0.839  16.628  0.9809 -0.8690  0.0286
   6923SM   C5S 8962   4.265   1.014  16.622  0.2491  0.6528  0.2626
   6923SM   H5S 8963   4.288   1.104  16.682  0.0464  1.7054 -1.1683
   6923SM   C6S 8964   4.318   1.006  16.482  0.1649  0.0170 -0.4002
   6923SM   H6S 8965   4.411   0.947  16.471  0.4696  0.3859  0.1343
   6923SM   H6T 8966   4.335   1.111  16.448  0.2547 -0.2243 -1.1071
   6923SM   C7S 8967   4.229   0.932  16.382  1.0387 -0.2570  0.6146
   6923SM   H7S 8968   4.121   0.942  16.408  1.1600 -1.1195  1.5147
   6923SM   H7T 8969   4.236   0.821  16.379  0.5123 -0.2645 -1.1974
   6923SM   C8S 8970   4.244   0.990  16.242  0.6709 -0.6629  0.7191
   6923SM   H8S 8971   4.199   0.920  16.169  1.4084 -0.0627 -0.3444
   6923SM   H8T 8972   4.351   0.993  16.215  0.6655  1.5520  0.7113
   6923SM   C9S 8973   4.200   1.137  16.223 -0.4654 -0.6687  0.1354
   6923SM   H9S 8974   4.229   1.198  16.311  0.0521 -1.5316  0.5815
   6923SM   H9T 8975   4.088   1.136  16.224 -0.4843 -2.1257  1.0350
   6923SM  C10S 8976   4.240   1.199  16.090 -0.1556  0.1781  0.5650
   6923SM  H10S 8977   4.350   1.201  16.075 -0.1610 -0.6009  0.3724
   6923SM  H10T 8978   4.212   1.307  16.089  1.6097  0.6550  0.4020
   6923SM  C11S 8979   4.171   1.141  15.963  0.2459 -0.5495  0.8198
   6923SM  H11S 8980   4.065   1.175  15.963  0.2415 -0.5508  0.3438
   6923SM  H11T 8981   4.171   1.031  15.981  1.5138 -0.6189  0.4878
   6923SM  C12S 8982   4.240   1.175  15.828  0.6494 -0.0084  0.1711
   6923SM  H12S 8983   4.337   1.123  15.844  0.4278  0.2324  2.8954
   6923SM  H12T 8984   4.260   1.283  15.814 -1.2500 -0.0741 -4.6836
   6923SM  C13S 8985   4.156   1.122  15.710  0.4915  0.3033 -0.7108
   6923SM  H13S 8986   4.055   1.156  15.740  1.3630  4.0380 -1.5001
   6923SM  H13T 8987   4.165   1.011  15.719  1.5024  0.4412  0.3984
   6923SM  C14S 8988   4.203   1.174  15.576 -1.2236 -0.3151  0.9524
   6923SM  H14S 8989   4.313   1.159  15.579 -0.9926  1.3303  2.1438
   6923SM  H14T 8990   4.188   1.284  15.569  1.3746  0.0446  0.0479
   6923SM  C15S 8991   4.159   1.091  15.453  0.1059 -0.3104 -0.1714
   6923SM  H15S 8992   4.049   1.101  15.456  0.0065 -0.6980 -1.6666
   6923SM  H15T 8993   4.167   0.982  15.474 -1.0444 -0.1201  1.3743
   6923SM  C16S 8994   4.222   1.123  15.316 -0.2673 -0.5701 -0.1128
   6923SM  H16S 8995   4.333   1.117  15.322 -0.1681 -0.8828 -1.6712
   6923SM  H16T 8996   4.202   1.233  15.319  0.0786 -0.5096  3.0472
   6923SM  C17S 8997   4.168   1.038  15.209 -0.0176 -0.4056 -0.1183
   6923SM  H17S 8998   4.182   1.073  15.104 -3.7150 -0.5637 -0.7937
   6923SM  H17T 8999   4.058   1.047  15.224  0.1379  0.7270  0.4326
   6923SM  C18S 9000   4.218   0.894  15.216 -0.3125  0.1631 -0.5178
   6923SM  H18S 9001   4.313   0.870  15.164  0.5467  2.5376 -0.1276
   6923SM  H18T 9002   4.132   0.835  15.176 -0.6825 -1.1224  1.9896
   6923SM  H18U 9003   4.222   0.863  15.323  1.7424  3.7021  0.5769
   6923SM   C1F 9004   3.786   1.084  16.762  0.3350  0.0169 -0.1744
   6923SM    OF 9005   3.795   1.201  16.805  1.0549 -0.2189 -0.4473
   6923SM   C2F 9006   3.664   1.035  16.686 -0.1456  0.0739  0.4116
   6923SM   H2F 9007   3.616   0.987  16.774 -1.7352 -0.5200 -0.7272
   6923SM   H2G 9008   3.693   0.955  16.615  1.8599  1.0084  0.1121
   6923SM   C3F 9009   3.580   1.141  16.620 -0.0377  0.2501  0.6680
   6923SM   H3F 9010   3.571   1.228  16.688 -2.2122  0.0141  0.7386
   6923SM   H3G 9011   3.478   1.102  16.601  0.5327  0.6164 -4.9198
   6923SM   C4F 9012   3.631   1.187  16.476  0.1268 -0.2576 -0.2549
   6923SM   H4F 9013   3.720   1.251  16.491  1.9900 -3.0729  1.5793
   6923SM   H4G 9014   3.560   1.256  16.425  1.9197  1.4754 -0.5255
   6923SM   C5F 9015   3.659   1.076  16.374 -0.3905  0.7080  0.1865
   6923SM   H5F 9016   3.643   1.112  16.270  2.2482  2.8346  0.4123
   6923SM   H5G 9017   3.605   0.980  16.385  0.5478 -0.4107 -3.4000
   6923SM   C6F 9018   3.809   1.027  16.373 -0.8166  0.3595  0.1622
   6923SM   H6F 9019   3.846   0.990  16.471  3.7101 -0.0696 -1.4635
   6923SM   H6G 9020   3.875   1.112  16.346 -0.2757 -0.2542 -0.4881
   6923SM   C7F 9021   3.854   0.923  16.263  0.5214 -0.1614 -0.0712
   6923SM   H7F 9022   3.821   0.822  16.297  0.5102  0.1173  0.7663
   6923SM   H7G 9023   3.964   0.922  16.273  0.3284 -0.8507  2.7749
   6923SM   C8F 9024   3.797   0.959  16.125 -0.1184 -0.0264  0.7109
   6923SM   H8F 9025   3.817   1.066  16.106 -1.6964 -0.0049 -1.0740
   6923SM   H8G 9026   3.688   0.938  16.123 -0.6216  2.2931  0.9761
   6923SM   C9F 9027   3.863   0.892  15.998 -1.6677  0.1074 -0.3645
   6923SM   H9F 9028   3.852   0.782  15.990  2.0483 -0.5010  1.0772
   6923SM   H9G 9029   3.971   0.914  16.006 -1.5489 -0.4841 -0.3421
   6923SM  C10F 9030   3.807   0.948  15.866  0.2952  0.2330  0.0641
   6923SM  H10F 9031   3.848   1.050  15.856 -1.1606  1.0230  1.6437
   6923SM  H10G 9032   3.697   0.950  15.882  0.2870  0.6812 -0.0465
   6923SM  C11F 9033   3.828   0.862  15.745  0.5276 -1.1757  0.3742
   6923SM  H11F 9034   3.782   0.762  15.760  0.0195 -1.0905 -0.5485
   6923SM  H11G 9035   3.937   0.853  15.726  0.6277  2.3398 -1.6549
   6923SM  C12F 9036   3.780   0.939  15.616  0.5174  0.1500  0.0537
   6923SM  H12F 9037   3.825   1.040  15.601  1.9980 -0.5623 -0.4999
   6923SM  H12G 9038   3.670   0.951  15.630  0.2182  0.2023 -1.9947
   6923SM  C13F 9039   3.799   0.853  15.491  0.5180  0.2304  0.0523
   6923SM  H13F 9040   3.747   0.756  15.508 -2.2221  1.5024 -0.5958
   6923SM  H13G 9041   3.904   0.817  15.480 -0.0726 -0.9384 -2.3970
   6923SM  C14F 9042   3.749   0.913  15.367 -0.1245 -0.4690 -0.2647
   6923SM  H14F 9043   3.798   1.011  15.346 -1.6256  0.1512 -1.0125
   6923SM  H14G 9044   3.642   0.941  15.368 -0.0228  0.1126 -1.7695
   6923SM  C15F 9045   3.757   0.826  15.240 -0.3411  0.6719  0.8912
   6923SM  H15F 9046   3.690   0.740  15.260  0.5839 -0.1864  0.3932
   6923SM  H15G 9047   3.852   0.769  15.246 -1.7693 -1.7224  1.9907
   6923SM  C16F 9048   3.735   0.895  15.101  0.0040  0.1001  0.0970
   6923SM  H16F 9049   3.820   0.962  15.076 -0.8641  0.9478 -0.6248
   6923SM  H16G 9050   3.642   0.955  15.111  0.1465  0.4499 -0.6417
   6923SM  C17F 9051   3.722   0.805  14.982  0.6742 -0.0834 -0.3214
   6923SM  H17F 9052   3.615   0.779  14.966  0.1926  1.0793  0.8985
   6923SM  H17G 9053   3.780   0.712  15.001 -0.4062 -0.4597  1.4015
   6923SM  C18F 9054   3.775   0.866  14.848 -0.3531  0.2961 -0.6081
   6923SM  H18F 9055   3.885   0.875  14.849 -0.3633  0.9688 -2.4480
   6923SM  H18G 9056   3.739   0.971  14.848 -0.3265  0.3092 -1.2662
   6923SM  C19F 9057   3.733   0.790  14.716  0.3463  0.4876  0.3492
   6923SM  H19F 9058   3.622   0.787  14.728  0.2840 -0.2402 -0.2800
   6923SM  H19G 9059   3.779   0.689  14.721 -0.4496  0.1503  1.1365
   6923SM  C20F 9060   3.787   0.872  14.602 -0.7854 -0.5552  0.0173
   6923SM  H20F 9061   3.895   0.892  14.615 -1.2943  0.8768  2.6870
   6923SM  H20G 9062   3.742   0.973  14.606 -1.5184 -0.8302 -0.8360
   6923SM  C21F 9063   3.752   0.822  14.457 -0.3198 -0.0803 -0.3947
   6923SM  H21F 9064   3.642   0.805  14.457 -0.6335  1.7310  0.3491
   6923SM  H21G 9065   3.806   0.725  14.454 -0.2202 -0.1487  1.9217
   6923SM  C22F 9066   3.802   0.918  14.338 -0.4627  0.4143 -0.5988
   6923SM  H22F 9067   3.907   0.954  14.346 -0.1646 -0.4681 -0.4329
   6923SM  H22G 9068   3.744   1.013  14.341  0.0454  0.7338 -0.6839
   6923SM  C23F 9069   3.770   0.856  14.203 -0.1561  0.0629 -0.3541
   6923SM  H23F 9070   3.842   0.777  14.173  1.8272  0.4223  2.9797
   6923SM  H23G 9071   3.766   0.929  14.119 -0.8856  1.5413  0.9082
   6923SM  H23H 9072   3.668   0.813  14.198 -0.4465  0.7156 -0.1414
   7023SM     N 9073   3.691   0.747  17.286  0.1807 -0.3325 -0.5875
   7023SM   C15 9074   3.654   0.699  17.426 -0.6034 -0.7077 -0.7663
   7023SM  H15A 9075   3.560   0.648  17.434 -0.7911 -0.5399 -1.7657
   7023SM  H15B 9076   3.654   0.782  17.496 -0.2902 -0.5326 -0.9718
   7023SM  H15C 9077   3.728   0.630  17.464  0.5436  0.8024 -0.1497
   7023SM   C14 9078   3.838   0.754  17.260 -0.1668  0.0883 -0.4086
   7023SM  H14A 9079   3.894   0.662  17.255  1.3108  0.8043  1.7751
   7023SM  H14B 9080   3.880   0.822  17.332  2.4966  1.3455 -2.9432
   7023SM  H14C 9081   3.846   0.796  17.160 -0.2844 -0.2885 -0.5789
   7023SM   C13 9082   3.644   0.630  17.192  0.2650 -0.2597 -0.4876
   7023SM  H13A 9083   3.677   0.531  17.220 -0.4759 -0.7003 -1.1314
   7023SM  H13B 9084   3.689   0.652  17.096 -1.8440 -1.1886 -1.7486
   7023SM  H13C 9085   3.537   0.637  17.180  0.0521  1.5665  1.8596
   7023SM   C12 9086   3.626   0.882  17.256  0.6253 -0.2998 -0.5279
   7023SM  H12A 9087   3.678   0.951  17.321  3.9432 -2.9297 -0.1178
   7023SM  H12B 9088   3.522   0.884  17.286  1.1570  2.0467  1.4685
   7023SM   C11 9089   3.628   0.933  17.106 -0.1550  0.9165 -0.1403
   7023SM  H11A 9090   3.735   0.934  17.076  0.4744 -0.0150  1.9248
   7023SM  H11B 9091   3.591   1.038  17.101  0.2878  1.1587  1.2518
   7023SM     P 9092   3.403   0.850  17.008 -0.1364  0.0426  0.1096
   7023SM   O13 9093   3.346   0.835  17.146  0.1970 -0.7325 -0.2620
   7023SM   O14 9094   3.361   0.963  16.924  0.5648 -0.1077  0.4256
   7023SM   O11 9095   3.377   0.712  16.927  0.0251 -0.5643  0.7495
   7023SM   O12 9096   3.558   0.846  17.014  0.2398 -0.1533  0.1155
   7023SM   C1S 9097   3.364   0.714  16.783 -0.7039 -0.7187 -0.0562
   7023SM   H1S 9098   3.452   0.767  16.740 -1.3940  0.5919  0.0967
   7023SM   H1T 9099   3.275   0.770  16.746  1.7399  2.7844 -1.1824
   7023SM    NF 9100   3.396   0.577  16.580  0.1950 -0.3806 -0.4865
   7023SM   HNF 9101   3.318   0.564  16.519  0.3126 -0.8962 -0.5277
   7023SM   C2S 9102   3.374   0.574  16.722 -0.5214  0.8411 -0.1192
   7023SM   H2S 9103   3.467   0.531  16.766  0.0603  0.0869 -1.9872
   7023SM   C3S 9104   3.250   0.483  16.768 -0.6599  1.1116 -0.0454
   7023SM   H3S 9105   3.153   0.519  16.727 -1.8898 -1.4830  0.3870
   7023SM    O3 9106   3.233   0.480  16.908  0.1246 -0.4989  1.0769
   7023SM   HO3 9107   3.290   0.553  16.932  1.4187 -1.8805  2.4640
   7023SM   C4S 9108   3.277   0.343  16.710  0.0993 -0.0127  0.2688
   7023SM   H4S 9109   3.264   0.346  16.601 -0.2991 -0.4512  0.3053
   7023SM   C5S 9110   3.325   0.228  16.766 -0.9592 -0.5144 -0.6355
   7023SM   H5S 9111   3.357   0.231  16.871  1.7662  1.4762 -1.3992
   7023SM   C6S 9112   3.359   0.090  16.703  0.7234 -0.5311  0.1320
   7023SM   H6S 9113   3.337   0.010  16.777  0.5155 -0.7050 -0.1121
   7023SM   H6T 9114   3.469   0.084  16.694  0.7130  0.9260 -1.4369
   7023SM   C7S 9115   3.300   0.054  16.565 -0.0568  0.0523  0.2015
   7023SM   H7S 9116   3.195   0.089  16.550  0.5620  1.2812 -1.5656
   7023SM   H7T 9117   3.309  -0.056  16.556  0.2560  0.1715 -1.1680
   7023SM   C8S 9118   3.383   0.119  16.457  0.4519 -0.0799 -0.0713
   7023SM   H8S 9119   3.491   0.111  16.481 -0.1467 -0.2849  2.9115
   7023SM   H8T 9120   3.356   0.227  16.455  0.2472 -0.1395 -0.8212
   7023SM   C9S 9121   3.362   0.051  16.317 -0.7186 -0.5606 -0.2197
   7023SM   H9S 9122   3.252   0.036  16.305 -0.9704  0.4246  0.6912
   7023SM   H9T 9123   3.404  -0.052  16.327 -0.4982 -0.3716  1.0627
   7023SM  C10S 9124   3.422   0.143  16.207  0.5130 -0.4112  0.3511
   7023SM  H10S 9125   3.532   0.149  16.215  0.4265  1.6358  0.4091
   7023SM  H10T 9126   3.371   0.242  16.203  0.8135 -0.2325  0.8517
   7023SM  C11S 9127   3.393   0.090  16.067  0.5773  0.0830 -0.1118
   7023SM  H11S 9128   3.288   0.057  16.053  1.5250 -3.2472 -0.1449
   7023SM  H11T 9129   3.457   0.001  16.051  1.2729  0.6586 -0.5764
   7023SM  C12S 9130   3.414   0.185  15.937 -0.7612  0.8638  0.1569
   7023SM  H12S 9131   3.511   0.241  15.939 -0.9743  1.3493 -1.7247
   7023SM  H12T 9132   3.326   0.252  15.942 -1.6605 -0.1417 -1.5068
   7023SM  C13S 9133   3.409   0.109  15.803 -0.0699 -0.0865 -0.8241
   7023SM  H13S 9134   3.313   0.052  15.806  0.0262 -0.2785 -1.3378
   7023SM  H13T 9135   3.493   0.037  15.811 -0.5310 -0.4224  2.2485
   7023SM  C14S 9136   3.425   0.198  15.682 -0.1199 -1.0182  0.1780
   7023SM  H14S 9137   3.517   0.259  15.696  0.3060 -1.9341  1.5844
   7023SM  H14T 9138   3.339   0.269  15.679  0.0707 -0.8173 -2.4014
   7023SM  C15S 9139   3.431   0.125  15.546 -0.0574  0.3094  0.4301
   7023SM  H15S 9140   3.348   0.051  15.546 -0.2590  0.5078  1.4758
   7023SM  H15T 9141   3.529   0.074  15.533 -1.2340 -1.7170 -1.0214
   7023SM  C16S 9142   3.422   0.208  15.421  0.2517  0.1809  0.0071
   7023SM  H16S 9143   3.471   0.307  15.425 -0.0346  0.3479 -0.4748
   7023SM  H16T 9144   3.318   0.240  15.397  0.7043  0.5385 -1.6416
   7023SM  C17S 9145   3.452   0.115  15.300 -0.0025 -0.2456 -0.9316
   7023SM  H17S 9146   3.394   0.022  15.321 -0.1157  0.0198 -0.0068
   7023SM  H17T 9147   3.560   0.089  15.294  0.8167  2.9529 -1.6842
   7023SM  C18S 9148   3.414   0.182  15.168  0.0744  0.8817  0.3161
   7023SM  H18S 9149   3.487   0.262  15.142 -0.3855  1.2292  0.0775
   7023SM  H18T 9150   3.313   0.229  15.167 -1.4335 -2.0145 -2.3913
   7023SM  H18U 9151   3.412   0.100  15.093 -1.3796  1.2574 -0.0892
   7023SM   C1F 9152   3.506   0.622  16.525  0.4824 -0.5217  0.3566
   7023SM    OF 9153   3.611   0.645  16.583 -0.3468  0.2045 -0.5044
   7023SM   C2F 9154   3.503   0.655  16.373  0.1270  0.0334 -0.6259
   7023SM   H2F 9155   3.500   0.563  16.310 -0.4858  0.3765 -1.1030
   7023SM   H2G 9156   3.602   0.698  16.347 -0.4676  0.1752 -2.7974
   7023SM   C3F 9157   3.393   0.768  16.347  0.2978  0.6093  0.4165
   7023SM   H3F 9158   3.403   0.836  16.434 -2.1119  1.2298  0.2734
   7023SM   H3G 9159   3.295   0.715  16.343  0.1489  0.9545 -0.9282
   7023SM   C4F 9160   3.409   0.829  16.214 -0.3671 -0.9688 -0.0564
   7023SM   H4F 9161   3.486   0.909  16.211 -2.4325  1.3421  2.9879
   7023SM   H4G 9162   3.319   0.884  16.180  1.2943  4.2582  2.9468
   7023SM   C5F 9163   3.455   0.728  16.104 -0.7292  0.1964  0.5703
   7023SM   H5F 9164   3.394   0.635  16.109  0.3986 -0.5883  0.1098
   7023SM   H5G 9165   3.562   0.712  16.126 -0.3605  2.4734  0.6178
   7023SM   C6F 9166   3.449   0.792  15.965 -0.3536 -0.0427  0.5582
   7023SM   H6F 9167   3.514   0.882  15.958 -1.3710  0.6619 -0.0280
   7023SM   H6G 9168   3.350   0.833  15.935 -0.1681 -0.2189 -0.3250
   7023SM   C7F 9169   3.492   0.696  15.849  0.2214  0.0181  0.3772
   7023SM   H7F 9170   3.429   0.606  15.863 -0.3709  0.1149 -1.4739
   7023SM   H7G 9171   3.602   0.677  15.852  0.2204  0.1371  2.3548
   7023SM   C8F 9172   3.443   0.745  15.717 -1.0159 -0.5773  0.1465
   7023SM   H8F 9173   3.493   0.840  15.687 -2.0172  0.4774  1.7033
   7023SM   H8G 9174   3.334   0.760  15.707 -0.8902 -0.5824 -1.4787
   7023SM   C9F 9175   3.478   0.646  15.605  0.1580 -0.2898 -0.3239
   7023SM   H9F 9176   3.424   0.551  15.624 -2.4468  1.4347  1.7653
   7023SM   H9G 9177   3.587   0.623  15.611 -0.1724 -1.6096  1.4753
   7023SM  C10F 9178   3.438   0.704  15.469 -0.0956  0.3485 -0.1937
   7023SM  H10F 9179   3.486   0.800  15.443  0.7296 -0.4359 -1.7106
   7023SM  H10G 9180   3.335   0.742  15.483  0.1233  0.2635  1.8814
   7023SM  C11F 9181   3.447   0.599  15.354  0.1405  0.1737  0.1509
   7023SM  H11F 9182   3.426   0.495  15.388  2.0118 -0.1902  0.2581
   7023SM  H11G 9183   3.554   0.600  15.325  0.8211  1.4732  2.4556
   7023SM  C12F 9184   3.351   0.636  15.243  1.0740 -0.2177  0.9815
   7023SM  H12F 9185   3.365   0.734  15.192  0.4015 -1.0154 -0.8377
   7023SM  H12G 9186   3.259   0.636  15.306  0.1123 -0.1283 -0.3687
   7023SM  C13F 9187   3.340   0.527  15.130 -0.1120 -0.2949 -0.5119
   7023SM  H13F 9188   3.250   0.547  15.069 -0.5357 -0.1916  0.1356
   7023SM  H13G 9189   3.331   0.425  15.173 -0.3002 -0.0218  0.1046
   7023SM  C14F 9190   3.464   0.526  15.040 -0.1555  0.1775  0.4565
   7023SM  H14F 9191   3.555   0.491  15.093 -0.4473  0.5778  1.2358
   7023SM  H14G 9192   3.486   0.633  15.018  1.4316 -0.3107 -0.4717
   7023SM  C15F 9193   3.440   0.458  14.908 -0.1984  0.1821 -0.1949
   7023SM  H15F 9194   3.346   0.492  14.858 -0.1293  0.0161 -0.4401
   7023SM  H15G 9195   3.443   0.350  14.933 -0.4622  0.4437  0.9910
   7023SM  C16F 9196   3.545   0.473  14.791 -0.4230  0.0056  0.6183
   7023SM  H16F 9197   3.633   0.412  14.820 -1.0664 -0.8271  0.8803
   7023SM  H16G 9198   3.581   0.578  14.785 -0.6559  0.2470  2.5648
   7023SM  C17F 9199   3.486   0.424  14.653 -0.3000 -0.5537  0.5357
   7023SM  H17F 9200   3.563   0.445  14.575  0.5589 -0.6176  1.3526
   7023SM  H17G 9201   3.408   0.497  14.621  0.0969 -0.8874 -1.3255
   7023SM  C18F 9202   3.429   0.277  14.645  0.0210  0.0394  0.5667
   7023SM  H18F 9203   3.337   0.271  14.708 -0.2834 -1.6879  0.0107
   7023SM  H18G 9204   3.514   0.211  14.674  2.7873  2.9795 -0.2772
   7023SM  C19F 9205   3.395   0.248  14.494 -0.3461  0.4024  0.0344
   7023SM  H19F 9206   3.495   0.274  14.452  0.5285 -0.3014  1.6048
   7023SM  H19G 9207   3.323   0.324  14.458 -1.7645 -0.1917  1.5004
   7023SM  C20F 9208   3.357   0.101  14.462  0.6219 -0.8380  0.0090
   7023SM  H20F 9209   3.324   0.092  14.356 -0.6635 -0.2417  0.3338
   7023SM  H20G 9210   3.261   0.086  14.517 -0.7717  0.0360 -2.0524
   7023SM  C21F 9211   3.458  -0.005  14.496  0.3193  0.2435 -0.2238
   7023SM  H21F 9212   3.482  -0.014  14.604  0.7984  1.5366 -0.2043
   7023SM  H21G 9213   3.560   0.023  14.461  0.9685 -0.6142  0.9285
   7023SM  C22F 9214   3.424  -0.145  14.438 -0.4049  0.3254  0.4691
   7023SM  H22F 9215   3.513  -0.209  14.457 -0.4696  0.4944  1.3708
   7023SM  H22G 9216   3.413  -0.129  14.329  0.1956  1.7799  0.5924
   7023SM  C23F 9217   3.297  -0.186  14.505  0.2990 -0.1990 -0.0754
   7023SM  H23F 9218   3.211  -0.139  14.452  0.7588  1.2067  0.3874
   7023SM  H23G 9219   3.291  -0.163  14.613  0.7191 -1.0439  0.1361
   7023SM  H23H 9220   3.284  -0.296  14.495 -2.0113 -0.1207  1.3198
   7123SM     N 9221   3.556   7.232  17.541  0.3688 -0.8064 -0.1228
   7123SM   C15 9222   3.525   7.350  17.455  0.2790  0.8570  0.4072
   7123SM  H15A 9223   3.586   7.436  17.477 -0.1500  1.4220 -0.5354
   7123SM  H15B 9224   3.421   7.380  17.458 -0.0958 -0.4454  2.1200
   7123SM  H15C 9225   3.538   7.313  17.355 -1.0292 -0.0672  0.5486
   7123SM   C14 9226   3.557   7.284  17.684  0.4003 -0.3578  0.6345
   7123SM  H14A 9227   3.620   7.370  17.697 -2.7856  2.1022  1.1114
   7123SM  H14B 9228   3.579   7.207  17.757  1.2596  0.4719  1.2713
   7123SM  H14C 9229   3.458   7.321  17.705  1.0321  0.8701  1.5206
   7123SM   C13 9230   3.458   7.119  17.528 -0.6113  0.0119 -0.3923
   7123SM  H13A 9231   3.478   7.040  17.598  1.5515 -0.3881 -1.3965
   7123SM  H13B 9232   3.465   7.078  17.429  2.4125  0.5787 -0.4861
   7123SM  H13C 9233   3.356   7.154  17.539 -1.0459 -1.3984  0.2568
   7123SM   C12 9234   3.698   7.177  17.510 -0.4902  0.0737  0.3693
   7123SM  H12A 9235   3.738   7.105  17.580  2.5821  0.5282 -0.7462
   7123SM  H12B 9236   3.773   7.253  17.497  0.2251 -0.8292 -1.0610
   7123SM   C11 9237   3.704   7.092  17.375  0.6142  0.2035  0.5007
   7123SM  H11A 9238   3.806   7.099  17.332 -0.7583  0.8286 -2.9492
   7123SM  H11B 9239   3.633   7.145  17.308  1.8776  2.4267  0.8447
   7123SM     P 9240   3.759   6.837  17.430  0.3825 -0.1726 -0.1514
   7123SM   O13 9241   3.851   6.888  17.526 -0.4491 -0.2376  0.7032
   7123SM   O14 9242   3.686   6.717  17.480 -0.2008  0.2714  0.6291
   7123SM   O11 9243   3.848   6.804  17.302 -0.1435  0.3148 -0.1837
   7123SM   O12 9244   3.656   6.953  17.395  0.4972 -0.1906 -0.1694
   7123SM   C1S 9245   3.786   6.794  17.175  0.3947 -0.3976  0.4622
   7123SM   H1S 9246   3.737   6.893  17.159 -1.1837 -1.1098  0.6665
   7123SM   H1T 9247   3.705   6.718  17.178 -0.6163  0.6690  0.8160
   7123SM    NF 9248   3.830   6.781  16.924 -0.4197 -0.0767  0.2375
   7123SM   HNF 9249   3.829   6.695  16.875  0.5083 -0.8131  1.4579
   7123SM   C2S 9250   3.890   6.791  17.055  0.2919 -0.6837  0.0483
   7123SM   H2S 9251   3.947   6.886  17.063 -0.9071  0.0982 -0.4456
   7123SM   C3S 9252   3.996   6.676  17.086 -0.2370 -0.9778 -0.2498
   7123SM   H3S 9253   3.940   6.580  17.084  0.7512 -1.5540 -2.2385
   7123SM    O3 9254   4.045   6.667  17.223 -0.0382 -0.0934 -0.4730
   7123SM   HO3 9255   3.994   6.734  17.269 -2.9698 -0.6058 -2.6940
   7123SM   C4S 9256   4.102   6.673  16.984  0.1121  0.6624 -0.1611
   7123SM   H4S 9257   4.148   6.769  16.958 -1.6122  1.2031 -1.3841
   7123SM   C5S 9258   4.139   6.566  16.913 -0.2053  0.6083  0.1553
   7123SM   H5S 9259   4.081   6.474  16.928 -0.7698  0.6786 -1.3880
   7123SM   C6S 9260   4.243   6.577  16.805  0.6295 -0.4993 -0.4023
   7123SM   H6S 9261   4.299   6.482  16.804  0.8876 -0.3621 -2.1995
   7123SM   H6T 9262   4.324   6.652  16.816  1.4808 -1.4516 -0.0364
   7123SM   C7S 9263   4.177   6.581  16.660 -0.6743  0.4402 -0.1392
   7123SM   H7S 9264   4.136   6.684  16.661 -1.3716  0.2030 -1.5344
   7123SM   H7T 9265   4.090   6.512  16.661  0.5338 -1.1505  1.2794
   7123SM   C8S 9266   4.276   6.573  16.548 -0.0934 -0.7605 -0.0945
   7123SM   H8S 9267   4.359   6.646  16.560 -0.6242 -0.2862  0.7617
   7123SM   H8T 9268   4.219   6.597  16.455 -1.2732 -0.4584  0.6789
   7123SM   C9S 9269   4.334   6.433  16.517  0.4098 -0.2414  0.9600
   7123SM   H9S 9270   4.248   6.364  16.529  1.8774 -2.5752 -0.9331
   7123SM   H9T 9271   4.411   6.411  16.593 -0.3820 -1.1000  1.5327
   7123SM  C10S 9272   4.408   6.404  16.391 -0.0267 -0.3222 -0.0601
   7123SM  H10S 9273   4.457   6.304  16.396 -1.7945 -1.6371 -4.2365
   7123SM  H10T 9274   4.471   6.492  16.366 -0.2488  0.3645  1.6365
   7123SM  C11S 9275   4.321   6.402  16.267 -0.6124 -0.0268 -0.1601
   7123SM  H11S 9276   4.268   6.497  16.244  1.1724  0.8237 -0.9876
   7123SM  H11T 9277   4.238   6.330  16.282 -0.9226  0.4172  0.2593
   7123SM  C12S 9278   4.405   6.352  16.150 -0.1224  0.2862 -0.5206
   7123SM  H12S 9279   4.444   6.249  16.165 -0.5748  0.1423 -0.2810
   7123SM  H12T 9280   4.499   6.409  16.144  0.6043 -0.8660 -0.3681
   7123SM  C13S 9281   4.340   6.361  16.017  0.0729 -0.7166  0.1093
   7123SM  H13S 9282   4.304   6.466  16.017  1.1060 -0.3491  0.6394
   7123SM  H13T 9283   4.259   6.289  15.991 -1.2858  1.3567 -1.7500
   7123SM  C14S 9284   4.439   6.362  15.895  0.1413  0.0123  0.4507
   7123SM  H14S 9285   4.469   6.257  15.875 -3.2568 -0.8224 -0.9324
   7123SM  H14T 9286   4.528   6.426  15.916 -0.3395  1.6312 -2.0745
   7123SM  C15S 9287   4.372   6.419  15.761  0.6977 -0.2447 -0.2569
   7123SM  H15S 9288   4.448   6.416  15.680  0.7988 -1.7862 -0.1418
   7123SM  H15T 9289   4.331   6.519  15.786 -2.5919 -1.3888 -0.5608
   7123SM  C16S 9290   4.251   6.344  15.718  0.1197  0.5288  0.6436
   7123SM  H16S 9291   4.165   6.348  15.789 -1.5246 -1.2959 -1.1030
   7123SM  H16T 9292   4.273   6.236  15.703 -1.5901 -0.3432  3.5685
   7123SM  C17S 9293   4.190   6.398  15.588 -0.2536 -0.6291 -0.0659
   7123SM  H17S 9294   4.265   6.444  15.519  1.8280  1.4657  3.2845
   7123SM  H17T 9295   4.113   6.476  15.606 -0.2573 -0.4134 -0.9457
   7123SM  C18S 9296   4.129   6.278  15.507  0.1028 -0.3562 -0.8124
   7123SM  H18S 9297   4.200   6.213  15.451 -2.4644 -0.8399 -3.8105
   7123SM  H18T 9298   4.066   6.321  15.427  0.0735  1.3044  0.0468
   7123SM  H18U 9299   4.068   6.213  15.573  0.4417 -0.5634 -0.6973
   7123SM   C1F 9300   3.740   6.872  16.877 -0.4090 -0.6430  0.0231
   7123SM    OF 9301   3.712   6.975  16.931  0.1389 -0.3648 -0.1365
   7123SM   C2F 9302   3.672   6.835  16.747  0.2822  0.0420 -0.0853
   7123SM   H2F 9303   3.590   6.764  16.773  1.3792 -1.5070 -0.6827
   7123SM   H2G 9304   3.750   6.786  16.685 -0.0246 -2.7155  1.5329
   7123SM   C3F 9305   3.614   6.952  16.665 -0.5095 -0.4225 -0.0448
   7123SM   H3F 9306   3.693   7.025  16.641 -0.6477 -0.5918 -1.0652
   7123SM   H3G 9307   3.540   7.010  16.724 -0.7102  1.4273 -2.0087
   7123SM   C4F 9308   3.541   6.907  16.537 -0.6318  0.4173  0.0425
   7123SM   H4F 9309   3.512   6.989  16.468 -1.2094  1.4927  1.5036
   7123SM   H4G 9310   3.448   6.858  16.572 -1.0092  0.3541 -1.0305
   7123SM   C5F 9311   3.615   6.800  16.462  0.2661  0.3572 -1.0233
   7123SM   H5F 9312   3.604   6.705  16.517 -0.4423  1.3147  0.5497
   7123SM   H5G 9313   3.722   6.822  16.442  0.6121 -0.7585 -0.4657
   7123SM   C6F 9314   3.550   6.778  16.327 -0.5358  0.1426  0.2769
   7123SM   H6F 9315   3.440   6.767  16.334 -0.8643 -0.4947 -3.5659
   7123SM   H6G 9316   3.585   6.683  16.282 -2.5859 -1.4070  1.7849
   7123SM   C7F 9317   3.569   6.897  16.223  0.0468 -0.2700  0.0764
   7123SM   H7F 9318   3.671   6.930  16.252  0.9436 -1.4331 -1.6362
   7123SM   H7G 9319   3.504   6.983  16.250  2.5642  1.0224  2.4940
   7123SM   C8F 9320   3.572   6.858  16.082  0.2538  0.0403  0.0551
   7123SM   H8F 9321   3.474   6.826  16.042  0.0236 -0.2626  0.8412
   7123SM   H8G 9322   3.640   6.770  16.083  0.3255 -0.0941 -3.3956
   7123SM   C9F 9323   3.616   6.976  15.992  0.3902 -1.3517 -0.0027
   7123SM   H9F 9324   3.705   7.025  16.037 -1.0374  0.1167  1.3886
   7123SM   H9G 9325   3.532   7.049  15.995  0.5631 -1.1787  1.4142
   7123SM  C10F 9326   3.636   6.940  15.848  0.3032 -0.0056 -0.7715
   7123SM  H10F 9327   3.540   6.929  15.793  0.3565 -0.7909 -0.7149
   7123SM  H10G 9328   3.692   6.844  15.848 -0.7726 -0.6672  0.4462
   7123SM  C11F 9329   3.715   7.054  15.771  0.1729  0.3842 -0.2447
   7123SM  H11F 9330   3.821   7.059  15.806 -0.0930  0.8084  0.5422
   7123SM  H11G 9331   3.685   7.160  15.784  1.5609  0.9533 -1.4215
   7123SM  C12F 9332   3.721   7.026  15.618  0.0607 -0.3710  0.7105
   7123SM  H12F 9333   3.624   7.062  15.577  0.6829 -0.4145 -0.8901
   7123SM  H12G 9334   3.736   6.917  15.600  1.6767  0.1229 -1.2855
   7123SM  C13F 9335   3.834   7.099  15.549 -0.5415  0.0908  0.5028
   7123SM  H13F 9336   3.926   7.051  15.589 -1.2272  0.7289  3.0151
   7123SM  H13G 9337   3.843   7.202  15.589 -1.2525  0.1394  0.5487
   7123SM  C14F 9338   3.827   7.104  15.392 -0.6038 -0.3340  0.1110
   7123SM  H14F 9339   3.728   7.139  15.356  0.2142  1.1367 -0.8128
   7123SM  H14G 9340   3.854   7.007  15.345  0.1660  0.1853 -0.5725
   7123SM  C15F 9341   3.922   7.212  15.336  0.2174  0.0534  0.2763
   7123SM  H15F 9342   3.891   7.309  15.380  0.3799 -0.2043  0.9822
   7123SM  H15G 9343   3.895   7.218  15.228 -0.1621 -1.4706  0.2534
   7123SM  C16F 9344   4.071   7.177  15.359  0.2284  0.6542 -0.3002
   7123SM  H16F 9345   4.092   7.085  15.301 -1.0308  1.8429 -2.7873
   7123SM  H16G 9346   4.099   7.166  15.466 -3.5783 -0.6223  0.7245
   7123SM  C17F 9347   4.157   7.287  15.296  0.1788 -0.6574  0.1725
   7123SM  H17F 9348   4.122   7.383  15.340  0.6404 -0.5162  0.2421
   7123SM  H17G 9349   4.146   7.307  15.188  1.9192  1.4496  0.3238
   7123SM  C18F 9350   4.308   7.269  15.317 -0.1879 -0.5040  1.2312
   7123SM  H18F 9351   4.359   7.348  15.258  0.0582 -1.4458  0.1555
   7123SM  H18G 9352   4.344   7.173  15.275  0.6296  0.3711 -0.1182
   7123SM  C19F 9353   4.360   7.278  15.466  0.3293 -0.1880  0.1864
   7123SM  H19F 9354   4.324   7.189  15.523  1.0309 -1.8106 -1.7867
   7123SM  H19G 9355   4.336   7.375  15.515 -0.3890 -0.3113  0.0992
   7123SM  C20F 9356   4.508   7.255  15.462  0.4235 -0.6553 -0.4044
   7123SM  H20F 9357   4.556   7.331  15.396 -0.4173  0.0987 -0.1595
   7123SM  H20G 9358   4.521   7.149  15.430  0.4638 -1.5379  2.2916
   7123SM  C21F 9359   4.581   7.265  15.599  0.2944  0.7493 -0.1780
   7123SM  H21F 9360   4.558   7.176  15.662  1.5325  0.5311 -0.0036
   7123SM  H21G 9361   4.550   7.361  15.645  1.2511  1.4539 -0.9588
   7123SM  C22F 9362   4.733   7.269  15.584  0.5826 -0.2411  0.2530
   7123SM  H22F 9363   4.758   7.346  15.509 -0.3784 -1.6212 -1.5676
   7123SM  H22G 9364   4.759   7.174  15.533  0.9563  1.7640 -3.6315
   7123SM  C23F 9365   4.821   7.292  15.709 -0.3957 -0.2666 -0.5196
   7123SM  H23F 9366   4.824   7.197  15.767 -0.0686  0.4814  0.7096
   7123SM  H23G 9367   4.782   7.375  15.772  0.5197  0.4025 -0.8173
   7123SM  H23H 9368   4.927   7.314  15.684  0.1345 -0.8630  1.0651
   7223SM     N 9369   5.488   1.978  17.374  0.1684  0.0476  0.3605
   7223SM   C15 9370   5.545   2.009  17.509 -0.3810  0.3614  0.2503
   7223SM  H15A 9371   5.648   1.978  17.499 -0.0815  1.4810 -0.2937
   7223SM  H15B 9372   5.496   1.951  17.586 -0.3319 -1.1695 -0.8105
   7223SM  H15C 9373   5.533   2.114  17.530 -0.8862  0.2530  0.5382
   7223SM   C14 9374   5.534   1.839  17.335 -0.5058 -0.6985 -0.6981
   7223SM  H14A 9375   5.522   1.770  17.418 -2.5059 -1.8315 -1.8600
   7223SM  H14B 9376   5.635   1.835  17.298 -0.8203 -0.5989 -1.5863
   7223SM  H14C 9377   5.470   1.795  17.259 -2.6386 -0.6222  0.9367
   7223SM   C13 9378   5.341   1.975  17.397  0.2204 -0.1844  0.1784
   7223SM  H13A 9379   5.314   2.064  17.453  1.3180  0.7047 -0.6660
   7223SM  H13B 9380   5.312   1.888  17.454 -0.4432 -0.4814 -0.5977
   7223SM  H13C 9381   5.290   1.977  17.302 -0.4376  1.0948  0.5350
   7223SM   C12 9382   5.523   2.086  17.279 -0.5835 -0.4283  0.0525
   7223SM  H12A 9383   5.630   2.101  17.286 -0.1021 -3.7428  1.3183
   7223SM  H12B 9384   5.477   2.179  17.312 -0.7732 -0.5727  0.1966
   7223SM   C11 9385   5.484   2.077  17.128 -0.0037 -0.2434  0.0049
   7223SM  H11A 9386   5.503   1.976  17.087 -1.0051 -0.5707  0.3360
   7223SM  H11B 9387   5.543   2.147  17.065  0.5410 -0.8154 -0.1337
   7223SM     P 9388   5.259   2.060  16.994 -0.0348  0.4101 -0.2370
   7223SM   O13 9389   5.296   1.921  16.953  0.3552 -0.3021 -0.4593
   7223SM   O14 9390   5.115   2.095  17.016  0.6766  0.0188 -0.1668
   7223SM   O11 9391   5.316   2.171  16.895 -0.0537 -0.6148  0.2242
   7223SM   O12 9392   5.342   2.102  17.127 -0.3378  0.0668  0.0743
   7223SM   C1S 9393   5.350   2.135  16.761  0.2922  0.3242  0.4986
   7223SM   H1S 9394   5.254   2.109  16.711 -0.4038  1.5682  1.1207
   7223SM   H1T 9395   5.414   2.044  16.760  2.1736  1.6051 -0.4588
   7223SM    NF 9396   5.457   2.196  16.541  0.5715 -0.4094 -0.0144
   7223SM   HNF 9397   5.555   2.194  16.522  1.2971 -2.3029  3.2514
   7223SM   C2S 9398   5.418   2.248  16.675  0.2569  0.3149  0.2399
   7223SM   H2S 9399   5.342   2.326  16.655  0.7200  0.5218 -0.8115
   7223SM   C3S 9400   5.531   2.329  16.751  0.2615 -0.4845 -0.4184
   7223SM   H3S 9401   5.612   2.257  16.777 -1.1052 -1.7621  0.4927
   7223SM    O3 9402   5.494   2.383  16.879  0.0493 -0.2244  0.0395
   7223SM   HO3 9403   5.422   2.331  16.915 -1.1139  2.1347  1.3751
   7223SM   C4S 9404   5.580   2.443  16.674 -0.6977 -0.2582 -0.5977
   7223SM   H4S 9405   5.680   2.414  16.638 -1.6161 -3.0462 -1.1576
   7223SM   C5S 9406   5.529   2.565  16.660  0.3051 -0.1935 -0.1042
   7223SM   H5S 9407   5.432   2.580  16.709  0.5876 -0.2675  0.4844
   7223SM   C6S 9408   5.563   2.662  16.548 -0.2509 -0.4397  0.5924
   7223SM   H6S 9409   5.603   2.756  16.592  0.8498 -0.4975 -0.2552
   7223SM   H6T 9410   5.473   2.691  16.490  1.1261  0.6767 -1.0784
   7223SM   C7S 9411   5.675   2.628  16.447  0.5582 -0.2507 -0.2143
   7223SM   H7S 9412   5.748   2.563  16.501 -0.2586 -0.5443  0.5442
   7223SM   H7T 9413   5.717   2.719  16.400 -1.7654  0.2262 -1.5084
   7223SM   C8S 9414   5.633   2.545  16.327  0.2052 -0.9315  0.6182
   7223SM   H8S 9415   5.561   2.600  16.263  0.4619 -0.6740  0.5545
   7223SM   H8T 9416   5.585   2.449  16.359  0.2479 -0.8828  0.8347
   7223SM   C9S 9417   5.750   2.515  16.230 -0.7801  0.1595  0.3879
   7223SM   H9S 9418   5.831   2.502  16.305 -0.4641 -0.0008  0.0204
   7223SM   H9T 9419   5.782   2.595  16.161 -0.7273  1.7182  2.1295
   7223SM  C10S 9420   5.736   2.384  16.143 -0.0283  0.2109  0.0548
   7223SM  H10S 9421   5.689   2.424  16.051 -0.3106  0.0191  0.1153
   7223SM  H10T 9422   5.670   2.308  16.189  1.1963 -0.8564  0.0938
   7223SM  C11S 9423   5.868   2.321  16.116  0.1283 -0.3551 -0.4838
   7223SM  H11S 9424   5.923   2.293  16.209  0.5054 -2.7878 -1.3563
   7223SM  H11T 9425   5.929   2.388  16.053 -2.1856 -0.2481 -2.7734
   7223SM  C12S 9426   5.838   2.200  16.033 -0.4008 -0.0681  0.2848
   7223SM  H12S 9427   5.771   2.218  15.947 -2.2393 -1.2795  1.3826
   7223SM  H12T 9428   5.771   2.135  16.094  0.9522 -1.2887  0.5307
   7223SM  C13S 9429   5.960   2.126  15.984  0.7638 -0.1025 -0.7317
   7223SM  H13S 9430   5.992   2.068  16.073 -0.9437 -2.0713 -1.3067
   7223SM  H13T 9431   6.035   2.203  15.957  2.3387 -0.7364  1.5697
   7223SM  C14S 9432   5.926   2.020  15.876  0.0811  0.2702 -0.2075
   7223SM  H14S 9433   5.852   1.947  15.915 -1.2221  1.4706 -0.3456
   7223SM  H14T 9434   6.014   1.953  15.867  0.7965  1.3704 -1.6915
   7223SM  C15S 9435   5.875   2.050  15.736 -0.3366 -0.6930  0.1525
   7223SM  H15S 9436   5.954   2.103  15.678 -0.2516 -0.6916  0.2708
   7223SM  H15T 9437   5.791   2.122  15.736  0.0414 -0.2411 -0.1529
   7223SM  C16S 9438   5.851   1.920  15.655 -0.4818 -0.4736  0.5414
   7223SM  H16S 9439   5.755   1.875  15.686 -0.8715 -0.0533 -0.0357
   7223SM  H16T 9440   5.936   1.851  15.673  0.3237  0.6454  1.2404
   7223SM  C17S 9441   5.843   1.951  15.506  0.6884  0.2002 -0.2807
   7223SM  H17S 9442   5.936   1.990  15.462  0.8269 -0.1386 -0.2890
   7223SM  H17T 9443   5.764   2.029  15.493  0.3061 -0.2571 -0.7782
   7223SM  C18S 9444   5.791   1.828  15.423 -0.1377 -1.0985  0.2554
   7223SM  H18S 9445   5.683   1.815  15.445 -0.3053  0.2133  0.2827
   7223SM  H18T 9446   5.861   1.745  15.444 -0.8818 -1.4314  1.5181
   7223SM  H18U 9447   5.811   1.847  15.315  1.9658  1.9222  1.0481
   7223SM   C1F 9448   5.370   2.163  16.449  0.0288 -0.6621  0.3004
   7223SM    OF 9449   5.255   2.165  16.474 -0.1146  0.7933 -0.4260
   7223SM   C2F 9450   5.423   2.122  16.312  0.1462  0.5141 -0.5819
   7223SM   H2F 9451   5.501   2.044  16.325 -0.9037 -0.1159  3.0162
   7223SM   H2G 9452   5.478   2.205  16.263  1.4588  0.3648  0.5586
   7223SM   C3F 9453   5.311   2.069  16.219  0.3754  0.4361  0.5997
   7223SM   H3F 9454   5.223   2.137  16.219  0.1237  0.1140  0.6118
   7223SM   H3G 9455   5.272   1.981  16.275 -1.0680  1.4953  1.3358
   7223SM   C4F 9456   5.347   2.050  16.068 -0.3148  0.0431 -1.0341
   7223SM   H4F 9457   5.258   2.014  16.010  1.2426 -2.2060 -2.1917
   7223SM   H4G 9458   5.422   1.970  16.050  0.0928  0.2614 -0.3226
   7223SM   C5F 9459   5.401   2.170  15.983  0.3856  0.0771  0.3696
   7223SM   H5F 9460   5.499   2.212  16.013 -0.3769  1.3072  1.2958
   7223SM   H5G 9461   5.338   2.262  15.995  1.8048  1.1785 -0.3388
   7223SM   C6F 9462   5.418   2.133  15.831 -0.2639 -1.0501 -0.6305
   7223SM   H6F 9463   5.332   2.069  15.798 -0.0480 -2.5565  1.5444
   7223SM   H6G 9464   5.516   2.081  15.820  0.1811  0.2627 -4.0801
   7223SM   C7F 9465   5.443   2.255  15.736 -0.0240  0.3880 -0.2499
   7223SM   H7F 9466   5.526   2.323  15.763 -1.1054  2.0996 -1.0807
   7223SM   H7G 9467   5.354   2.321  15.729  0.6649  1.3855  0.2389
   7223SM   C8F 9468   5.476   2.213  15.587 -0.5050 -0.0051 -0.1901
   7223SM   H8F 9469   5.395   2.146  15.551 -0.3138 -0.5953  0.4615
   7223SM   H8G 9470   5.571   2.157  15.594 -1.5332 -1.8878 -0.5388
   7223SM   C9F 9471   5.506   2.335  15.505 -0.1335 -0.6507  0.5706
   7223SM   H9F 9472   5.588   2.309  15.435 -0.8519  1.0038 -0.9618
   7223SM   H9G 9473   5.536   2.423  15.567  0.8003  0.5312 -1.4506
   7223SM  C10F 9474   5.384   2.382  15.418 -0.0792  0.1205  0.2567
   7223SM  H10F 9475   5.291   2.360  15.473  0.8393 -1.7589  1.1718
   7223SM  H10G 9476   5.377   2.309  15.334 -0.6078  0.2961  0.1491
   7223SM  C11F 9477   5.398   2.527  15.359  0.3614 -0.0822 -0.1637
   7223SM  H11F 9478   5.395   2.607  15.436  1.2026 -0.6575  0.4787
   7223SM  H11G 9479   5.312   2.539  15.289  0.2070  0.2071  0.0745
   7223SM  C12F 9480   5.532   2.554  15.289 -0.4253 -0.2871 -0.1406
   7223SM  H12F 9481   5.554   2.471  15.219 -1.2796  0.6748 -1.6172
   7223SM  H12G 9482   5.622   2.560  15.353 -0.5346 -0.2373  0.0092
   7223SM  C13F 9483   5.525   2.682  15.200 -0.7379  0.8803  0.1912
   7223SM  H13F 9484   5.438   2.661  15.134  1.3831 -1.1857 -2.1665
   7223SM  H13G 9485   5.609   2.699  15.130 -0.9057 -0.2336 -0.3083
   7223SM  C14F 9486   5.489   2.813  15.274  0.3773  0.3484 -0.2211
   7223SM  H14F 9487   5.382   2.823  15.301 -0.0136  2.4719 -2.2090
   7223SM  H14G 9488   5.508   2.887  15.192  2.5046 -2.0559 -2.0772
   7223SM  C15F 9489   5.581   2.838  15.394  0.3022 -0.0571 -0.5946
   7223SM  H15F 9490   5.682   2.802  15.363  0.5440  0.8444 -0.8827
   7223SM  H15G 9491   5.558   2.788  15.491  0.8164  2.9549  1.2041
   7223SM  C16F 9492   5.587   2.986  15.436  0.0242  0.6654  0.2424
   7223SM  H16F 9493   5.495   3.022  15.486  0.1553 -0.1844  1.1287
   7223SM  H16G 9494   5.594   3.043  15.341 -2.6354 -0.3403 -0.6502
   7223SM  C17F 9495   5.703   3.023  15.532  0.5422 -0.3993  0.9261
   7223SM  H17F 9496   5.711   2.956  15.620 -1.5257 -1.0584  0.6655
   7223SM  H17G 9497   5.683   3.126  15.569  0.3846  0.3672 -1.1723
   7223SM  C18F 9498   5.842   3.030  15.464  0.0819 -0.3793 -0.4887
   7223SM  H18F 9499   5.881   3.134  15.454 -0.9522 -0.0829 -1.9153
   7223SM  H18G 9500   5.832   3.004  15.357  2.0803 -1.0133 -0.5582
   7223SM  C19F 9501   5.948   2.937  15.522  0.4755  0.1019 -0.1296
   7223SM  H19F 9502   5.901   2.837  15.528 -1.4197  0.6306 -3.5464
   7223SM  H19G 9503   5.969   2.972  15.625 -0.3598 -1.3914  0.5778
   7223SM  C20F 9504   6.070   2.934  15.432  0.4562  0.7104  0.7458
   7223SM  H20F 9505   6.126   3.030  15.426  1.3850  0.1584  0.2686
   7223SM  H20G 9506   6.043   2.920  15.326 -0.0011  1.4572  0.7603
   7223SM  C21F 9507   6.171   2.827  15.480 -0.2778  0.8223  0.0793
   7223SM  H21F 9508   6.116   2.732  15.470  1.9143 -0.4387 -0.6864
   7223SM  H21G 9509   6.180   2.844  15.589  1.1275  1.3047 -0.0933
   7223SM  C22F 9510   6.301   2.820  15.401 -0.2671 -0.4208  0.8993
   7223SM  H22F 9511   6.347   2.921  15.412  1.2263 -1.1540  1.6130
   7223SM  H22G 9512   6.286   2.791  15.295 -0.7101  0.9412  0.5671
   7223SM  C23F 9513   6.411   2.724  15.459  0.2238 -0.1603  0.1297
   7223SM  H23F 9514   6.392   2.614  15.460  0.7033 -0.2537 -0.3306
   7223SM  H23G 9515   6.445   2.748  15.561 -1.5611  0.7568  0.5507
   7223SM  H23H 9516   6.505   2.715  15.401  0.3685 -2.8165  0.6685
   7323SM     N 9517   4.004   0.122  17.671  0.6443 -0.1702  0.9632
   7323SM   C15 9518   4.027  -0.028  17.676  0.0173 -0.0088 -0.4401
   7323SM  H15A 9519   3.934  -0.079  17.694  0.7295 -1.0910  0.2701
   7323SM  H15B 9520   4.095  -0.050  17.756 -2.5018  0.1343  1.9034
   7323SM  H15C 9521   4.075  -0.071  17.589  3.4522 -0.1162  1.3400
   7323SM   C14 9522   3.943   0.175  17.791  0.3343 -0.6313 -0.0427
   7323SM  H14A 9523   3.952   0.281  17.808 -1.0816 -0.6601  1.1942
   7323SM  H14B 9524   3.991   0.129  17.877 -0.1693 -2.4697 -0.6847
   7323SM  H14C 9525   3.836   0.160  17.795  0.5116 -1.7837  1.5112
   7323SM   C13 9526   4.142   0.187  17.645  0.3704  0.1845  0.0651
   7323SM  H13A 9527   4.197   0.173  17.737  3.4148 -0.7261 -1.7202
   7323SM  H13B 9528   4.136   0.288  17.607  0.2377  0.5180  0.9645
   7323SM  H13C 9529   4.189   0.132  17.564 -1.7111  0.4488 -1.4064
   7323SM   C12 9530   3.918   0.154  17.548 -0.5845  0.6498  0.0989
   7323SM  H12A 9531   3.889   0.258  17.547  0.3655  0.9220 -1.0769
   7323SM  H12B 9532   3.823   0.106  17.568  0.7742 -0.6520  4.9277
   7323SM   C11 9533   3.974   0.119  17.408  0.1142 -0.1261  0.7850
   7323SM  H11A 9534   4.069   0.171  17.383  0.0034  0.2658  1.1648
   7323SM  H11B 9535   3.896   0.148  17.334  0.6288 -3.8172 -1.4586
   7323SM     P 9536   3.880  -0.125  17.365  0.1263  0.3793  0.1907
   7323SM   O13 9537   3.936  -0.266  17.357  0.4433 -0.5542 -0.1060
   7323SM   O14 9538   3.776  -0.099  17.464  0.2611  0.2149  0.3683
   7323SM   O11 9539   3.837  -0.070  17.219  0.5277 -0.2366 -0.6431
   7323SM   O12 9540   3.994  -0.022  17.392 -0.0593  0.2156  0.1304
   7323SM   C1S 9541   3.936  -0.063  17.116  0.0195  0.3118 -0.4674
   7323SM   H1S 9542   3.992  -0.157  17.094  1.1336  1.1832 -1.4769
   7323SM   H1T 9543   4.015   0.008  17.147  0.0571  0.3731 -0.7055
   7323SM    NF 9544   3.978   0.002  16.883  0.2839  0.5511  0.2837
   7323SM   HNF 9545   4.010   0.096  16.868  1.4728 -0.0780 -1.4593
   7323SM   C2S 9546   3.875  -0.015  16.989  0.5193 -0.2155  0.7439
   7323SM   H2S 9547   3.796  -0.090  16.966 -0.4190  0.0120  2.9920
   7323SM   C3S 9548   3.793   0.114  17.010  0.0153 -0.3723  0.3170
   7323SM   H3S 9549   3.859   0.189  17.059  0.0117 -0.2452  0.1292
   7323SM    O3 9550   3.685   0.107  17.104  0.6444 -1.0623 -0.4762
   7323SM   HO3 9551   3.710   0.027  17.150  0.7303 -0.8439 -0.1416
   7323SM   C4S 9552   3.741   0.174  16.881 -0.0085 -0.1237  0.2139
   7323SM   H4S 9553   3.676   0.108  16.822 -1.8648  1.5882  0.2363
   7323SM   C5S 9554   3.781   0.286  16.823 -0.5223  0.3431 -1.2259
   7323SM   H5S 9555   3.847   0.348  16.885  1.6055 -0.6410 -2.3759
   7323SM   C6S 9556   3.739   0.350  16.698  0.4475  0.2129  0.3599
   7323SM   H6S 9557   3.771   0.455  16.685  3.4507 -0.5750  0.4109
   7323SM   H6T 9558   3.629   0.363  16.705  0.5015  1.5019 -0.8338
   7323SM   C7S 9559   3.779   0.273  16.570  0.0704 -0.2063 -0.1287
   7323SM   H7S 9560   3.735   0.171  16.574  0.2732 -0.2957 -0.1531
   7323SM   H7T 9561   3.890   0.269  16.560  0.4831  2.7639  1.8694
   7323SM   C8S 9562   3.719   0.348  16.444 -0.0745  0.1862 -0.2487
   7323SM   H8S 9563   3.749   0.454  16.458  1.5826 -0.2904  0.0895
   7323SM   H8T 9564   3.609   0.342  16.437 -0.0402 -0.1973 -0.4804
   7323SM   C9S 9565   3.791   0.300  16.318 -0.1165 -0.5630 -0.6219
   7323SM   H9S 9566   3.747   0.200  16.295 -1.7799 -0.1754  0.6834
   7323SM   H9T 9567   3.901   0.298  16.331 -0.2011 -2.8406  0.1861
   7323SM  C10S 9568   3.765   0.388  16.189 -0.2923  0.0394 -0.1196
   7323SM  H10S 9569   3.822   0.482  16.186  0.5197 -0.4511 -0.2353
   7323SM  H10T 9570   3.656   0.409  16.199  0.1444  1.8752  1.3103
   7323SM  C11S 9571   3.781   0.304  16.059 -0.0889 -0.0332  0.6639
   7323SM  H11S 9572   3.711   0.217  16.060  0.6783 -0.7189 -1.0643
   7323SM  H11T 9573   3.888   0.276  16.059  0.1144  0.7420  1.0594
   7323SM  C12S 9574   3.748   0.386  15.928  0.5741  0.5792  0.6984
   7323SM  H12S 9575   3.802   0.483  15.941 -1.7826  2.3707 -1.6681
   7323SM  H12T 9576   3.642   0.415  15.913  0.0935 -1.6787 -0.6994
   7323SM  C13S 9577   3.801   0.315  15.799  0.6727 -0.0184  0.6074
   7323SM  H13S 9578   3.743   0.223  15.777  0.5931 -0.0670  1.0095
   7323SM  H13T 9579   3.910   0.295  15.799  0.7195  0.1158 -1.1054
   7323SM  C14S 9580   3.791   0.401  15.673  0.6143 -0.0512 -0.4548
   7323SM  H14S 9581   3.854   0.491  15.689 -0.1584  0.1731  1.7257
   7323SM  H14T 9582   3.687   0.435  15.654 -0.2425 -0.4072  2.9304
   7323SM  C15S 9583   3.847   0.342  15.540 -0.2383  0.2833  0.0034
   7323SM  H15S 9584   3.786   0.254  15.512  0.7023 -0.7063  0.9270
   7323SM  H15T 9585   3.953   0.309  15.555 -0.2047 -0.0062 -0.8467
   7323SM  C16S 9586   3.848   0.437  15.420 -0.5588 -0.5816  0.2530
   7323SM  H16S 9587   3.926   0.514  15.437 -1.0236  0.0799 -0.5468
   7323SM  H16T 9588   3.748   0.482  15.403  0.0708  0.3379 -1.1411
   7323SM  C17S 9589   3.869   0.344  15.300 -0.7129 -0.5782 -0.4581
   7323SM  H17S 9590   3.786   0.271  15.291  0.7673 -2.5570  1.1552
   7323SM  H17T 9591   3.962   0.285  15.313  1.3463  1.8123 -3.0965
   7323SM  C18S 9592   3.886   0.425  15.174 -0.5146 -0.3995 -0.1991
   7323SM  H18S 9593   3.964   0.503  15.183  0.1421 -1.1572  0.8900
   7323SM  H18T 9594   3.784   0.466  15.158  0.5274  2.4911 -0.0613
   7323SM  H18U 9595   3.906   0.358  15.087  1.3952  0.0718 -0.1763
   7323SM   C1F 9596   4.030  -0.101  16.822  0.5544 -0.4183 -0.0170
   7323SM    OF 9597   3.987  -0.218  16.838 -0.5146 -0.5996 -0.4069
   7323SM   C2F 9598   4.149  -0.064  16.735  0.2134 -0.4742  0.2450
   7323SM   H2F 9599   4.202  -0.158  16.708 -0.1525  0.4432 -4.3303
   7323SM   H2G 9600   4.211   0.010  16.790  0.7963 -0.0077 -1.0091
   7323SM   C3F 9601   4.108   0.012  16.605 -0.4349 -0.0598  0.1747
   7323SM   H3F 9602   4.204   0.047  16.562  1.2111 -2.9039  1.2762
   7323SM   H3G 9603   4.041   0.099  16.622  0.3616  0.9309 -1.4667
   7323SM   C4F 9604   4.036  -0.072  16.503 -0.0658 -0.5515  0.2031
   7323SM   H4F 9605   3.945  -0.098  16.560  1.0643  0.2801  2.5027
   7323SM   H4G 9606   4.096  -0.165  16.491 -0.8300 -0.9989 -0.2579
   7323SM   C5F 9607   4.008   0.003  16.365  0.0297 -0.4546 -0.5237
   7323SM   H5F 9608   3.959   0.101  16.385  0.3289 -0.3513 -0.2883
   7323SM   H5G 9609   3.931  -0.052  16.308  0.5609 -0.1523 -1.5571
   7323SM   C6F 9610   4.142   0.025  16.299 -0.3497  0.0113  0.2234
   7323SM   H6F 9611   4.207  -0.063  16.318 -0.3752  0.4035  2.3907
   7323SM   H6G 9612   4.197   0.105  16.352  3.2251 -2.8242  1.2567
   7323SM   C7F 9613   4.139   0.059  16.146 -0.0698  0.5228 -0.1295
   7323SM   H7F 9614   4.045   0.115  16.129  0.0344  0.7142 -0.0744
   7323SM   H7G 9615   4.130  -0.034  16.084  0.5464  0.7980 -0.6502
   7323SM   C8F 9616   4.263   0.141  16.092 -0.0927  0.2386  0.2913
   7323SM   H8F 9617   4.352   0.075  16.106  0.1077  0.5822  0.6278
   7323SM   H8G 9618   4.270   0.235  16.149 -0.8544  0.7748 -0.4748
   7323SM   C9F 9619   4.232   0.195  15.951  0.1139 -0.0753 -0.3559
   7323SM   H9F 9620   4.311   0.270  15.933  1.1593 -0.9350  0.4804
   7323SM   H9G 9621   4.130   0.239  15.953 -0.2479 -0.9222  1.7312
   7323SM  C10F 9622   4.252   0.081  15.846  0.2496  0.2993 -0.0600
   7323SM  H10F 9623   4.195  -0.010  15.872  1.3316 -0.2442  0.4950
   7323SM  H10G 9624   4.360   0.056  15.845 -0.1405 -1.5371 -1.0223
   7323SM  C11F 9625   4.209   0.118  15.709 -0.3879 -0.6467 -0.5347
   7323SM  H11F 9626   4.232   0.222  15.678  0.1519 -1.4522 -3.1155
   7323SM  H11G 9627   4.100   0.105  15.690 -0.7926  0.7263  0.6419
   7323SM  C12F 9628   4.275   0.020  15.611 -0.3969  0.3239 -0.0601
   7323SM  H12F 9629   4.221   0.014  15.514  0.6356 -0.9530 -0.5782
   7323SM  H12G 9630   4.264  -0.081  15.655 -1.8549  1.6589  3.0125
   7323SM  C13F 9631   4.413   0.063  15.565  0.1182 -0.8874 -0.4312
   7323SM  H13F 9632   4.494   0.061  15.642  0.3913  0.0459 -0.6855
   7323SM  H13G 9633   4.408   0.171  15.542 -0.7612 -0.7213  0.4651
   7323SM  C14F 9634   4.463  -0.006  15.434  0.1121 -0.8186  0.3281
   7323SM  H14F 9635   4.391   0.008  15.350  1.1866  0.6268 -0.4098
   7323SM  H14G 9636   4.480  -0.113  15.458  0.0489 -0.4203  2.3247
   7323SM  C15F 9637   4.600   0.052  15.394  0.8643  0.2289 -0.4055
   7323SM  H15F 9638   4.680   0.034  15.470  1.1960 -0.0793 -0.8199
   7323SM  H15G 9639   4.574   0.155  15.362  1.0025  1.2615  2.5302
   7323SM  C16F 9640   4.660  -0.032  15.278  0.0644 -0.1883  0.6525
   7323SM  H16F 9641   4.584  -0.027  15.197  0.3615  2.1310  0.4445
   7323SM  H16G 9642   4.671  -0.138  15.312 -0.8889  0.0427  1.7842
   7323SM  C17F 9643   4.794   0.015  15.239  0.2825  0.1249 -0.1381
   7323SM  H17F 9644   4.865   0.033  15.323  1.7088 -0.1356 -1.2375
   7323SM  H17G 9645   4.788   0.118  15.199 -0.3652  0.8213  1.6413
   7323SM  C18F 9646   4.862  -0.080  15.141 -0.3606 -0.3692  0.1624
   7323SM  H18F 9647   4.794  -0.135  15.073 -0.2147 -0.3384 -0.0079
   7323SM  H18G 9648   4.917  -0.157  15.199  1.5122  0.6449 -0.2048
   7323SM  C19F 9649   4.965  -0.006  15.052  0.5376  0.1914  0.5296
   7323SM  H19F 9650   5.032   0.054  15.116  1.6414  2.1860 -2.2770
   7323SM  H19G 9651   4.903   0.052  14.980  1.6328  1.2310  0.3915
   7323SM  C20F 9652   5.041  -0.106  14.966 -0.8292  0.1636  0.1881
   7323SM  H20F 9653   5.104  -0.048  14.895  0.8488 -1.1620  0.5400
   7323SM  H20G 9654   4.980  -0.161  14.891 -0.6774  0.0197  0.1699
   7323SM  C21F 9655   5.136  -0.192  15.041 -0.9493 -0.6437  0.3147
   7323SM  H21F 9656   5.191  -0.241  14.958  1.0869 -0.2820  1.3960
   7323SM  H21G 9657   5.087  -0.262  15.112 -1.6479 -1.1831 -0.6726
   7323SM  C22F 9658   5.243  -0.110  15.114 -0.0953  1.0223 -0.1822
   7323SM  H22F 9659   5.206  -0.069  15.210 -1.4407 -0.8447  0.1482
   7323SM  H22G 9660   5.291  -0.029  15.055  1.3173  0.2019 -0.1968
   7323SM  C23F 9661   5.361  -0.204  15.149  0.4604 -0.7111 -0.2272
   7323SM  H23F 9662   5.407  -0.238  15.053  5.3214  0.2066  1.4702
   7323SM  H23G 9663   5.329  -0.278  15.226  2.2197 -0.4314  0.8337
   7323SM  H23H 9664   5.446  -0.147  15.191 -1.2901  2.1235 -0.3053
   7423SM     N 9665   6.832   3.295  17.135 -0.7809  0.0394 -0.2288
   7423SM   C15 9666   6.930   3.185  17.134 -0.1924  0.5445 -0.5590
   7423SM  H15A 9667   6.900   3.113  17.060 -2.0519 -0.0304  0.6795
   7423SM  H15B 9668   6.932   3.143  17.234  0.4614  1.4565 -0.1728
   7423SM  H15C 9669   7.030   3.222  17.118 -0.8982  1.8882 -2.0802
   7423SM   C14 9670   6.798   3.326  16.994  0.2221 -0.0974  0.9175
   7423SM  H14A 9671   6.740   3.416  16.978 -0.8410 -0.9412 -0.2276
   7423SM  H14B 9672   6.742   3.256  16.934  1.8354  2.5010 -4.2584
   7423SM  H14C 9673   6.890   3.349  16.941 -0.8156  1.5035 -0.3056
   7423SM   C13 9674   6.702   3.260  17.204 -0.3105  0.2640 -0.0659
   7423SM  H13A 9675   6.650   3.177  17.157 -1.3858  0.8183  0.1144
   7423SM  H13B 9676   6.640   3.347  17.196 -0.4955  0.1817  0.4492
   7423SM  H13C 9677   6.713   3.242  17.310  1.6666 -1.5807 -0.5125
   7423SM   C12 9678   6.890   3.425  17.197 -0.4012  0.5023 -0.2097
   7423SM  H12A 9679   6.897   3.402  17.302  1.2657 -1.9375 -0.7716
   7423SM  H12B 9680   6.830   3.514  17.184 -0.4069  0.6909  1.0119
   7423SM   C11 9681   7.034   3.466  17.151  0.1394 -0.6442 -0.2344
   7423SM  H11A 9682   7.105   3.384  17.127 -1.0537 -1.8909  0.3911
   7423SM  H11B 9683   7.076   3.514  17.242  0.2390  0.7215 -0.9853
   7423SM     P 9684   7.033   3.708  17.056  0.5972  0.2329  0.2722
   7423SM   O13 9685   6.932   3.763  17.144  0.2127 -0.3995 -0.2090
   7423SM   O14 9686   7.173   3.741  17.081  0.3025 -0.5018  0.2070
   7423SM   O11 9687   6.994   3.757  16.906  0.3611  0.0474  0.0007
   7423SM   O12 9688   7.032   3.552  17.045  0.1015  0.0739  0.3279
   7423SM   C1S 9689   6.894   3.677  16.841 -0.2473 -0.1909  0.2919
   7423SM   H1S 9690   6.809   3.649  16.906  0.0779 -1.6264  0.1545
   7423SM   H1T 9691   6.942   3.583  16.805 -1.2032 -0.4763 -0.2476
   7423SM    NF 9692   6.713   3.683  16.678  0.6453 -0.3706  0.4376
   7423SM   HNF 9693   6.707   3.610  16.610 -2.5195  1.8773 -1.9777
   7423SM   C2S 9694   6.840   3.747  16.707 -0.1401  0.3805 -0.1792
   7423SM   H2S 9695   6.822   3.852  16.738 -3.2683  0.1538 -0.9555
   7423SM   C3S 9696   6.951   3.745  16.599  0.9328  0.8007 -0.3550
   7423SM   H3S 9697   6.978   3.641  16.572 -0.3570 -0.0535  1.4338
   7423SM    O3 9698   7.080   3.784  16.645 -0.5263  0.4349 -0.1959
   7423SM   HO3 9699   7.067   3.801  16.739  0.2389 -0.0454  0.0002
   7423SM   C4S 9700   6.912   3.826  16.474 -0.3197 -0.1666 -0.1273
   7423SM   H4S 9701   6.873   3.926  16.498  0.1212 -0.2040  0.7811
   7423SM   C5S 9702   6.906   3.788  16.340  0.4500  1.0104  0.0675
   7423SM   H5S 9703   6.920   3.682  16.313 -1.7215  0.8686 -0.6751
   7423SM   C6S 9704   6.851   3.874  16.227 -0.1293 -0.2451 -0.0322
   7423SM   H6S 9705   6.930   3.886  16.151  1.5389 -1.1875  1.4607
   7423SM   H6T 9706   6.832   3.976  16.267  0.2495 -0.0187 -0.4250
   7423SM   C7S 9707   6.727   3.830  16.156 -0.1113  0.7306  0.0636
   7423SM   H7S 9708   6.643   3.840  16.228 -0.2996  0.8668 -0.1725
   7423SM   H7T 9709   6.742   3.726  16.118  1.9424  0.6123  1.0517
   7423SM   C8S 9710   6.706   3.920  16.031 -0.3116  1.0683 -0.7461
   7423SM   H8S 9711   6.800   3.909  15.973  1.1128  0.1669  1.5984
   7423SM   H8T 9712   6.692   4.024  16.066 -0.3347  0.9944 -0.5372
   7423SM   C9S 9713   6.586   3.877  15.943  0.6267  0.0920 -0.9102
   7423SM   H9S 9714   6.499   3.877  16.011  1.6995  0.6730  0.5179
   7423SM   H9T 9715   6.603   3.777  15.899 -0.0475 -0.6367  0.4514
   7423SM  C10S 9716   6.561   3.981  15.837 -0.0159 -0.0544  0.3910
   7423SM  H10S 9717   6.653   4.041  15.818 -0.9701  0.7255 -2.2609
   7423SM  H10T 9718   6.485   4.054  15.872 -0.3142 -0.9767  1.7376
   7423SM  C11S 9719   6.523   3.918  15.698  0.0203  0.2017 -0.0503
   7423SM  H11S 9720   6.426   3.865  15.703 -1.6933  2.9166 -1.8025
   7423SM  H11T 9721   6.598   3.848  15.656 -0.8533 -0.4263 -0.6005
   7423SM  C12S 9722   6.492   4.023  15.601 -0.1773 -0.2590 -0.1833
   7423SM  H12S 9723   6.580   4.090  15.599 -0.2299  0.1043  3.6424
   7423SM  H12T 9724   6.412   4.092  15.637 -1.4932 -1.7405 -0.1330
   7423SM  C13S 9725   6.474   3.979  15.453 -0.2542 -0.1695  0.4651
   7423SM  H13S 9726   6.371   3.942  15.434 -0.5314  0.9585 -0.3072
   7423SM  H13T 9727   6.546   3.898  15.428  0.8692  0.6021  1.1124
   7423SM  C14S 9728   6.493   4.104  15.368 -0.2498  0.0672  0.3876
   7423SM  H14S 9729   6.601   4.127  15.352 -0.1122 -0.8208 -0.0210
   7423SM  H14T 9730   6.446   4.185  15.428  1.6893  1.0938  0.6168
   7423SM  C15S 9731   6.420   4.093  15.237  0.8403 -0.5798 -0.1097
   7423SM  H15S 9732   6.434   4.190  15.185 -0.7660 -0.5692 -0.5790
   7423SM  H15T 9733   6.315   4.074  15.269  1.4956 -0.4603  2.2670
   7423SM  C16S 9734   6.469   3.976  15.145 -0.3078 -0.0264 -0.2147
   7423SM  H16S 9735   6.436   3.885  15.200  3.6118 -1.8813 -0.5777
   7423SM  H16T 9736   6.580   3.969  15.140 -0.4447 -1.8444 -1.3650
   7423SM  C17S 9737   6.413   3.984  15.001  0.1575 -0.3548  0.0359
   7423SM  H17S 9738   6.304   4.001  14.997  0.3303  1.3040  1.2200
   7423SM  H17T 9739   6.446   3.892  14.947  0.3534  0.1465 -0.7130
   7423SM  C18S 9740   6.459   4.112  14.925 -0.2410  0.0333  0.0637
   7423SM  H18S 9741   6.570   4.120  14.929 -0.0784 -0.4855 -2.2389
   7423SM  H18T 9742   6.405   4.197  14.970 -1.2901 -1.5420  1.9460
   7423SM  H18U 9743   6.432   4.096  14.819 -0.1173 -0.6401  0.1232
   7423SM   C1F 9744   6.609   3.685  16.759  0.5140 -0.1711 -0.5104
   7423SM    OF 9745   6.591   3.767  16.848  0.0204 -0.0405 -0.6548
   7423SM   C2F 9746   6.512   3.570  16.749 -0.3413  0.3309 -0.6756
   7423SM   H2F 9747   6.493   3.534  16.852 -2.0111  1.8571 -0.4120
   7423SM   H2G 9748   6.570   3.487  16.702  1.4421  1.2743 -0.2365
   7423SM   C3F 9749   6.373   3.605  16.679  0.4718 -0.3323  0.5547
   7423SM   H3F 9750   6.308   3.682  16.727  0.1717  0.3907 -0.9580
   7423SM   H3G 9751   6.310   3.514  16.691  0.5455 -0.3812  0.5686
   7423SM   C4F 9752   6.391   3.659  16.535  0.4563  0.0086  0.3717
   7423SM   H4F 9753   6.467   3.591  16.491 -0.4733 -0.1246 -1.0660
   7423SM   H4G 9754   6.429   3.763  16.539 -1.7280  0.9534 -1.5680
   7423SM   C5F 9755   6.260   3.652  16.458 -0.2831 -0.4795 -0.1449
   7423SM   H5F 9756   6.203   3.742  16.490  1.2623  0.2793  0.6060
   7423SM   H5G 9757   6.201   3.559  16.468  0.4160 -0.9446 -0.3114
   7423SM   C6F 9758   6.290   3.672  16.310  0.7086 -0.0958  0.4521
   7423SM   H6F 9759   6.352   3.591  16.267  0.1380 -0.4800  0.3351
   7423SM   H6G 9760   6.359   3.759  16.300 -1.2059  1.5128  0.6477
   7423SM   C7F 9761   6.166   3.713  16.222 -0.4151  0.2443 -0.4383
   7423SM   H7F 9762   6.122   3.803  16.271  1.9928  0.4910  1.4796
   7423SM   H7G 9763   6.093   3.630  16.210  0.1580 -0.1144 -1.6681
   7423SM   C8F 9764   6.208   3.763  16.080 -0.1136 -0.8191 -0.0043
   7423SM   H8F 9765   6.273   3.689  16.028  1.4792 -0.1071  0.9107
   7423SM   H8G 9766   6.267   3.857  16.086 -0.6761 -0.2529 -2.2642
   7423SM   C9F 9767   6.091   3.797  15.986  0.3860  0.8853 -0.9228
   7423SM   H9F 9768   6.054   3.893  16.028  1.7222  1.1418 -0.2739
   7423SM   H9G 9769   6.016   3.717  16.003  3.0950 -1.6547 -0.0492
   7423SM  C10F 9770   6.136   3.811  15.842  0.2574  0.4083  0.4068
   7423SM  H10F 9771   6.136   3.713  15.789  0.8484  1.3682 -1.4609
   7423SM  H10G 9772   6.234   3.864  15.842  0.4118  0.1964  2.2189
   7423SM  C11F 9773   6.051   3.912  15.765 -0.5339 -0.0133 -0.3421
   7423SM  H11F 9774   6.048   4.005  15.826  0.8104 -1.4393  2.0518
   7423SM  H11G 9775   5.950   3.870  15.785  1.1618 -2.7169  4.0732
   7423SM  C12F 9776   6.073   3.924  15.618 -0.0308 -0.1002 -0.1687
   7423SM  H12F 9777   6.101   3.825  15.575 -0.9911 -0.5036  0.1093
   7423SM  H12G 9778   6.165   3.986  15.612 -2.0658  3.0044 -2.2841
   7423SM  C13F 9779   5.958   3.995  15.550  0.6252  0.3014  0.0970
   7423SM  H13F 9780   5.955   4.099  15.589 -3.2887  0.3940 -0.0441
   7423SM  H13G 9781   5.866   3.934  15.565  0.5162  0.6513  0.9336
   7423SM  C14F 9782   5.985   4.015  15.398  0.0781 -0.1374 -0.6672
   7423SM  H14F 9783   6.088   4.055  15.386  0.0625 -0.1763 -0.9439
   7423SM  H14G 9784   5.914   4.083  15.346  1.6141 -0.5790 -3.5741
   7423SM  C15F 9785   5.974   3.883  15.322 -0.0829 -0.4217  0.6655
   7423SM  H15F 9786   5.868   3.851  15.322 -0.6949  1.1260 -2.2803
   7423SM  H15G 9787   6.041   3.812  15.373  1.9007  1.1955  0.4414
   7423SM  C16F 9788   6.031   3.886  15.177  0.8093 -0.1018 -0.9911
   7423SM  H16F 9789   6.038   3.781  15.140 -0.5519 -0.8690  0.8025
   7423SM  H16G 9790   6.140   3.911  15.179  1.4778 -2.7025 -0.5444
   7423SM  C17F 9791   5.952   3.971  15.077  0.4430  0.7993  0.0067
   7423SM  H17F 9792   5.997   3.957  14.977 -1.0053 -2.1505 -0.3307
   7423SM  H17G 9793   5.985   4.075  15.101  0.3858  0.6438  0.7790
   7423SM  C18F 9794   5.794   3.950  15.077 -0.3225  0.3774 -0.1528
   7423SM  H18F 9795   5.748   3.950  15.178 -1.5140 -0.4609 -0.6714
   7423SM  H18G 9796   5.783   3.846  15.040 -0.2004  0.8630 -1.6327
   7423SM  C19F 9797   5.723   4.045  14.986 -0.3137 -0.1776  0.7336
   7423SM  H19F 9798   5.778   4.048  14.889 -2.5129 -0.6738 -0.6258
   7423SM  H19G 9799   5.729   4.145  15.034  0.9245 -0.0247  0.2935
   7423SM  C20F 9800   5.578   3.997  14.948 -0.4259 -0.3680  0.5725
   7423SM  H20F 9801   5.582   3.906  14.885 -2.1046  0.3769 -0.6952
   7423SM  H20G 9802   5.528   4.070  14.881  1.0585  0.4329  0.2993
   7423SM  C21F 9803   5.486   3.961  15.059  0.3335 -0.0049  0.5615
   7423SM  H21F 9804   5.527   3.876  15.117 -1.5005 -1.5805 -0.3286
   7423SM  H21G 9805   5.395   3.926  15.006  2.0786 -1.8754 -1.3863
   7423SM  C22F 9806   5.428   4.072  15.151 -0.0722 -0.1310 -0.5816
   7423SM  H22F 9807   5.399   4.161  15.091 -0.3572  0.1373 -0.0570
   7423SM  H22G 9808   5.510   4.112  15.214 -0.1359  0.9959 -1.1856
   7423SM  C23F 9809   5.310   4.029  15.236 -0.0893  0.5853 -0.6548
   7423SM  H23F 9810   5.338   3.934  15.288  0.6353  1.3268  0.3388
   7423SM  H23G 9811   5.215   4.000  15.184 -0.3481 -2.5534  1.3137
   7423SM  H23H 9812   5.286   4.103  15.314 -0.1142  1.9431 -1.9063
   7523SM     N 9813   5.606   5.078  17.440  0.6740  0.2765  0.5806
   7523SM   C15 9814   5.618   5.219  17.501 -0.2328  0.0245  0.3428
   7523SM  H15A 9815   5.593   5.296  17.429  0.9911 -0.3440 -0.5036
   7523SM  H15B 9816   5.713   5.232  17.550 -0.3706  2.9679  0.0161
   7523SM  H15C 9817   5.545   5.228  17.581  1.0710  0.3614  1.5213
   7523SM   C14 9818   5.680   4.973  17.523 -0.0830  0.4724 -0.0598
   7523SM  H14A 9819   5.656   4.966  17.628 -0.5218  0.0774 -0.1834
   7523SM  H14B 9820   5.785   4.995  17.510 -0.3757  2.0643  0.0229
   7523SM  H14C 9821   5.667   4.878  17.474  0.6838  0.3463 -0.0297
   7523SM   C13 9822   5.464   5.030  17.429 -0.0431 -0.3004  0.0582
   7523SM  H13A 9823   5.425   5.025  17.529 -2.7552  1.9532 -0.7881
   7523SM  H13B 9824   5.463   4.930  17.386  0.7743 -1.4728  2.5673
   7523SM  H13C 9825   5.404   5.090  17.362 -1.3524  2.1123  3.1686
   7523SM   C12 9826   5.673   5.082  17.306 -0.3893  1.0856 -0.0239
   7523SM  H12A 9827   5.760   5.145  17.320  0.3007  0.1099  0.2223
   7523SM  H12B 9828   5.623   5.145  17.234 -0.2352  0.9023 -0.2886
   7523SM   C11 9829   5.715   4.952  17.227  0.3417  0.5739  0.0458
   7523SM  H11A 9830   5.732   4.976  17.119 -0.2009  0.0645 -0.1582
   7523SM  H11B 9831   5.631   4.880  17.234  0.5797  0.2082 -0.6649
   7523SM     P 9832   5.983   4.918  17.238 -0.0115 -0.0073 -0.1593
   7523SM   O13 9833   6.031   5.040  17.292  0.3358  0.0016 -0.4991
   7523SM   O14 9834   6.068   4.804  17.264  0.2562  0.1337 -0.4060
   7523SM   O11 9835   5.984   4.943  17.080  0.0178 -0.2275 -0.1142
   7523SM   O12 9836   5.834   4.890  17.281 -0.5851 -0.9552 -0.8199
   7523SM   C1S 9837   5.958   4.833  16.997  0.0103 -0.4684 -0.3101
   7523SM   H1S 9838   5.871   4.773  17.031 -1.6739  1.9574 -0.1086
   7523SM   H1T 9839   6.046   4.767  16.982 -0.3876 -0.9134 -0.7412
   7523SM    NF 9840   5.845   4.788  16.784  0.3649 -0.5146  0.0489
   7523SM   HNF 9841   5.899   4.763  16.704 -0.0935 -0.8877 -0.1495
   7523SM   C2S 9842   5.909   4.898  16.870 -0.4072  0.3389  0.2778
   7523SM   H2S 9843   5.827   4.964  16.906 -0.0436  0.3802  1.0503
   7523SM   C3S 9844   6.030   4.979  16.805 -0.2540  0.9008 -0.0856
   7523SM   H3S 9845   6.113   4.913  16.773  0.1640  1.2884  0.1882
   7523SM    O3 9846   6.097   5.075  16.887 -0.7532 -0.0083  0.3972
   7523SM   HO3 9847   6.053   5.050  16.968 -0.0492 -0.4447  0.6590
   7523SM   C4S 9848   5.969   5.036  16.678  0.1624 -0.0380 -0.2587
   7523SM   H4S 9849   5.974   4.965  16.594  2.1596 -0.4108  0.1110
   7523SM   C5S 9850   5.903   5.153  16.665  0.1470 -0.4019  0.5519
   7523SM   H5S 9851   5.887   5.226  16.745 -1.8524 -0.5574  0.3474
   7523SM   C6S 9852   5.835   5.204  16.535 -0.4403  0.5211  0.2602
   7523SM   H6S 9853   5.858   5.313  16.525 -0.3721  0.3874 -1.3120
   7523SM   H6T 9854   5.724   5.199  16.539 -0.4950  0.2796 -1.1676
   7523SM   C7S 9855   5.886   5.148  16.398 -0.3568 -0.2073  0.0006
   7523SM   H7S 9856   5.881   5.037  16.396  0.3269 -0.2266 -0.6882
   7523SM   H7T 9857   5.993   5.175  16.390 -0.2882 -0.2964  0.5411
   7523SM   C8S 9858   5.812   5.215  16.274  0.1257  0.5468 -0.3474
   7523SM   H8S 9859   5.846   5.320  16.268 -0.1835  0.7872  1.5149
   7523SM   H8T 9860   5.702   5.230  16.283  0.1511  0.2767  0.4947
   7523SM   C9S 9861   5.847   5.145  16.139  0.2075 -0.2348 -0.0646
   7523SM   H9S 9862   5.835   5.213  16.052 -0.5477 -1.5780 -1.0433
   7523SM   H9T 9863   5.783   5.057  16.116  0.3292 -0.5684  0.8099
   7523SM  C10S 9864   5.993   5.091  16.138  0.0218  0.1246  0.2833
   7523SM  H10S 9865   5.993   5.011  16.215 -0.0734  0.2861  0.4533
   7523SM  H10T 9866   6.062   5.164  16.186 -1.0192  1.7799 -0.6480
   7523SM  C11S 9867   6.038   5.046  16.002  0.4818  0.6761  0.3426
   7523SM  H11S 9868   6.035   5.127  15.926 -0.1092 -1.7452 -2.3926
   7523SM  H11T 9869   5.957   4.973  15.979  0.3491  0.5942  1.0402
   7523SM  C12S 9870   6.179   4.987  16.007  0.4706  0.1904  0.1555
   7523SM  H12S 9871   6.176   4.901  16.078  0.0736 -0.5548 -0.7301
   7523SM  H12T 9872   6.248   5.065  16.044 -0.4021  0.9180  0.2685
   7523SM  C13S 9873   6.221   4.933  15.869 -0.0982 -0.2902  0.1263
   7523SM  H13S 9874   6.208   5.015  15.795  1.2117  1.7569  2.0255
   7523SM  H13T 9875   6.150   4.851  15.846  1.2590 -1.6504  0.6307
   7523SM  C14S 9876   6.360   4.889  15.864 -0.2519 -0.0820 -0.5539
   7523SM  H14S 9877   6.380   4.818  15.948 -0.4990 -1.6858 -1.8124
   7523SM  H14T 9878   6.428   4.974  15.887 -0.7097 -0.0643  0.8124
   7523SM  C15S 9879   6.399   4.830  15.728 -0.0822 -0.7812  0.3568
   7523SM  H15S 9880   6.380   4.906  15.649 -0.3847 -1.7680 -0.5356
   7523SM  H15T 9881   6.335   4.744  15.697  1.8310 -1.3025 -2.5752
   7523SM  C16S 9882   6.541   4.772  15.724  0.4142  0.0430  0.5257
   7523SM  H16S 9883   6.551   4.685  15.793  2.1909 -1.9453 -2.0474
   7523SM  H16T 9884   6.617   4.849  15.752 -0.1648  0.5290  0.7824
   7523SM  C17S 9885   6.576   4.724  15.579 -0.1716  0.2020  0.0024
   7523SM  H17S 9886   6.588   4.803  15.502  2.4372  0.5925  0.7204
   7523SM  H17T 9887   6.496   4.659  15.536  0.1853 -0.5814  0.4925
   7523SM  C18S 9888   6.708   4.650  15.583 -0.5223 -0.4382 -0.1174
   7523SM  H18S 9889   6.760   4.633  15.487 -1.2477  0.3590 -0.6619
   7523SM  H18T 9890   6.680   4.550  15.623 -1.4408  0.2566  1.0534
   7523SM  H18U 9891   6.768   4.693  15.667  0.2493 -1.9939  0.1643
   7523SM   C1F 9892   5.726   4.729  16.802  0.5388 -0.3865  0.0609
   7523SM    OF 9893   5.643   4.772  16.890 -0.1403  1.1195 -0.5638
   7523SM   C2F 9894   5.691   4.613  16.708 -0.0324 -0.8915  0.0272
   7523SM   H2F 9895   5.720   4.521  16.763  1.1588 -0.0277  0.8756
   7523SM   H2G 9896   5.749   4.620  16.613  0.6333 -1.1658  0.4109
   7523SM   C3F 9897   5.542   4.612  16.676  0.5378  0.3377 -0.3527
   7523SM   H3F 9898   5.511   4.710  16.636 -0.4828  0.5035  0.7560
   7523SM   H3G 9899   5.484   4.619  16.771  0.5587 -0.2978 -0.2892
   7523SM   C4F 9900   5.490   4.497  16.598  0.1797 -0.0704  0.3705
   7523SM   H4F 9901   5.382   4.501  16.621  0.0451 -1.3055 -0.0199
   7523SM   H4G 9902   5.528   4.401  16.636 -2.4456 -0.8701  1.1608
   7523SM   C5F 9903   5.536   4.502  16.446  0.5245  0.2588 -0.0951
   7523SM   H5F 9904   5.646   4.520  16.441  0.3143  1.3955 -1.0143
   7523SM   H5G 9905   5.494   4.588  16.389 -0.8513 -0.1967  0.2016
   7523SM   C6F 9906   5.504   4.368  16.377 -0.1069 -0.0502  0.8308
   7523SM   H6F 9907   5.407   4.326  16.412 -1.7726  1.2928 -1.8619
   7523SM   H6G 9908   5.578   4.292  16.411  1.4483 -0.3761 -2.8227
   7523SM   C7F 9909   5.506   4.368  16.222 -0.7634  0.3375 -0.1652
   7523SM   H7F 9910   5.504   4.263  16.188 -2.2848 -0.3502  1.8882
   7523SM   H7G 9911   5.601   4.411  16.184 -1.8101  1.0732 -2.0500
   7523SM   C8F 9912   5.391   4.446  16.164  0.0427 -0.5917 -0.2132
   7523SM   H8F 9913   5.401   4.548  16.208  0.0746 -0.8446  0.3756
   7523SM   H8G 9914   5.295   4.400  16.196 -1.6394  1.7219 -1.5401
   7523SM   C9F 9915   5.385   4.458  16.009  0.6579 -0.1131  0.3404
   7523SM   H9F 9916   5.400   4.361  15.956  0.6068  0.8050 -1.4503
   7523SM   H9G 9917   5.464   4.523  15.966  0.8511 -0.6133 -0.0764
   7523SM  C10F 9918   5.246   4.510  15.967 -0.2704  0.0997  0.0281
   7523SM  H10F 9919   5.219   4.593  16.035  0.7625 -0.4661  1.1748
   7523SM  H10G 9920   5.186   4.420  15.990 -0.1081 -0.3993 -1.3871
   7523SM  C11F 9921   5.242   4.541  15.816 -0.2931 -0.7536 -0.2128
   7523SM  H11F 9922   5.301   4.461  15.765  2.8006  0.8212  0.6274
   7523SM  H11G 9923   5.300   4.636  15.810 -1.2086 -0.2175 -0.8811
   7523SM  C12F 9924   5.098   4.551  15.767 -0.7715 -0.6091 -0.3880
   7523SM  H12F 9925   5.059   4.637  15.824 -0.1421 -0.6506  0.1168
   7523SM  H12G 9926   5.044   4.459  15.798 -0.4473 -0.6216  0.1620
   7523SM  C13F 9927   5.079   4.571  15.612  0.0221  0.5649 -0.1095
   7523SM  H13F 9928   5.098   4.469  15.572 -1.4917  0.6842 -1.2159
   7523SM  H13G 9929   5.150   4.647  15.573 -1.7852  1.9905 -0.8037
   7523SM  C14F 9930   4.937   4.601  15.567  0.7888 -0.7595 -0.4447
   7523SM  H14F 9931   4.911   4.703  15.602 -0.2136 -1.0206 -0.4176
   7523SM  H14G 9932   4.869   4.522  15.604 -1.6625  1.6275  0.4666
   7523SM  C15F 9933   4.917   4.594  15.414 -0.5293  0.0196 -0.4395
   7523SM  H15F 9934   4.942   4.489  15.388  0.2003  0.1662 -0.3482
   7523SM  H15G 9935   4.990   4.670  15.378  1.6829 -0.1087  3.2257
   7523SM  C16F 9936   4.781   4.616  15.364 -0.2208 -0.0319  0.8061
   7523SM  H16F 9937   4.794   4.655  15.261  0.2510 -2.2658 -0.0443
   7523SM  H16G 9938   4.710   4.685  15.415 -0.8194  1.5471 -1.9156
   7523SM  C17F 9939   4.694   4.483  15.358  0.2512 -0.0434  0.6051
   7523SM  H17F 9940   4.665   4.431  15.452 -0.2365 -1.1015 -0.1082
   7523SM  H17G 9941   4.747   4.404  15.300 -0.5449  1.5962 -2.5792
   7523SM  C18F 9942   4.560   4.507  15.272 -0.3078  0.6914 -0.2882
   7523SM  H18F 9943   4.535   4.410  15.224 -0.2098 -0.0696  1.1570
   7523SM  H18G 9944   4.582   4.581  15.193 -2.3608  2.6695  0.9015
   7523SM  C19F 9945   4.430   4.551  15.349 -0.2880 -0.4837 -0.4496
   7523SM  H19F 9946   4.358   4.576  15.268 -0.6155 -0.2928 -0.1021
   7523SM  H19G 9947   4.456   4.642  15.407  0.0230 -2.0371  2.0336
   7523SM  C20F 9948   4.365   4.457  15.451  0.1625 -0.0663  0.2991
   7523SM  H20F 9949   4.434   4.450  15.538  0.4959  1.1166  0.1546
   7523SM  H20G 9950   4.359   4.356  15.406  0.6198 -0.1429  0.4069
   7523SM  C21F 9951   4.221   4.499  15.508 -0.2178  0.4130 -0.9180
   7523SM  H21F 9952   4.145   4.480  15.429  0.7441 -1.4716 -1.4593
   7523SM  H21G 9953   4.233   4.608  15.526 -0.9777  0.2436  0.8482
   7523SM  C22F 9954   4.168   4.420  15.631 -0.4086 -0.2981 -0.0468
   7523SM  H22F 9955   4.225   4.455  15.719 -0.5950  0.7978 -0.3470
   7523SM  H22G 9956   4.185   4.313  15.608  0.1237 -0.1165 -0.5131
   7523SM  C23F 9957   4.025   4.444  15.663 -0.7853  0.4634 -0.5247
   7523SM  H23F 9958   4.008   4.401  15.764 -0.1029 -1.8424 -1.3247
   7523SM  H23G 9959   3.962   4.391  15.589 -0.8727  0.8348 -0.7164
   7523SM  H23H 9960   3.998   4.551  15.648 -2.8026  0.1454  0.4705
   7623SM     N 9961   0.290   5.393  17.421 -0.7624 -0.3456 -0.0702
   7623SM   C15 9962   0.358   5.488  17.324  0.5846  0.0944 -0.3226
   7623SM  H15A 9963   0.434   5.438  17.266  1.2880  0.7645  0.0112
   7623SM  H15B 9964   0.410   5.560  17.385  1.3237  1.4272 -2.3880
   7623SM  H15C 9965   0.281   5.523  17.256 -0.0974 -3.4562 -1.5958
   7623SM   C14 9966   0.221   5.282  17.343  0.0519 -0.1984  0.0073
   7623SM  H14A 9967   0.126   5.313  17.304 -0.3466 -1.5926 -0.1607
   7623SM  H14B 9968   0.206   5.202  17.414  1.8472  1.4506  2.4246
   7623SM  H14C 9969   0.268   5.246  17.253 -0.8673  0.3641 -0.7132
   7623SM   C13 9970   0.397   5.329  17.505  0.5412  0.4422 -0.3890
   7623SM  H13A 9971   0.463   5.403  17.548 -2.1017  2.0698  1.1446
   7623SM  H13B 9972   0.455   5.261  17.446 -2.1378 -0.5788 -2.0366
   7623SM  H13C 9973   0.363   5.272  17.591  0.7205 -0.0802 -0.6610
   7623SM   C12 9974   0.181   5.455  17.506  0.1288  0.4347  0.7240
   7623SM  H12A 9975   0.221   5.522  17.580 -0.7811  2.1298 -0.2574
   7623SM  H12B 9976   0.136   5.381  17.571  0.1916 -1.0092 -0.7839
   7623SM   C11 9977   0.060   5.523  17.434  0.0992 -0.5270  0.1115
   7623SM  H11A 9978   0.095   5.593  17.355 -1.9628 -0.5489 -0.8685
   7623SM  H11B 9979   0.012   5.594  17.505  1.5612  3.1498 -2.2339
   7623SM     P 9980  -0.146   5.465  17.283  0.0494 -0.4186  0.3050
   7623SM   O13 9981  -0.247   5.358  17.287  0.3537 -0.2026  0.0114
   7623SM   O14 9982  -0.192   5.604  17.299 -0.2090 -0.3053  0.6315
   7623SM   O11 9983  -0.056   5.451  17.157  0.0256 -0.2734  0.6855
   7623SM   O12 9984  -0.033   5.429  17.391  0.2379 -0.2079 -1.0993
   7623SM   C1S 9985  -0.072   5.332  17.076 -0.0839 -0.3218  0.1212
   7623SM   H1S 9986  -0.181   5.307  17.069 -0.6479  2.2962 -2.1954
   7623SM   H1T 9987  -0.028   5.253  17.140  1.6007  2.1810  2.2391
   7623SM    NF 9988  -0.006   5.215  16.857 -0.4943  0.3129  0.4502
   7623SM   HNF 9989   0.078   5.162  16.866 -1.3007 -1.0381  0.3479
   7623SM   C2S 9990   0.000   5.338  16.933  0.3658  0.4968  0.1912
   7623SM   H2S 9991  -0.053   5.418  16.878 -0.0731 -0.1350 -0.3094
   7623SM   C3S 9992   0.151   5.383  16.951 -0.0129  0.1922  0.1181
   7623SM   H3S 9993   0.207   5.311  17.014 -0.9517  1.9424  3.1647
   7623SM    O3 9994   0.163   5.506  17.018 -0.5093 -0.9787 -0.1374
   7623SM   HO3 9995   0.079   5.521  17.063  1.2291  1.1014  2.7544
   7623SM   C4S 9996   0.227   5.381  16.820 -0.1946 -0.4791  0.3274
   7623SM   H4S 9997   0.272   5.282  16.806 -1.7904 -1.2516  0.4307
   7623SM   C5S 9998   0.249   5.485  16.739 -0.1584 -0.5083 -0.6935
   7623SM   H5S 9999   0.213   5.586  16.764  1.9065  0.4377 -1.2858
   7623SM   C6S10000   0.343   5.477  16.620  0.5216 -0.5898  0.7896
   7623SM   H6S10001   0.423   5.553  16.608  0.9225 -1.2233 -0.8324
   7623SM   H6T10002   0.277   5.496  16.532  0.9486  3.3696  1.1509
   7623SM   C7S10003   0.419   5.351  16.590  0.0881 -0.2475  0.2055
   7623SM   H7S10004   0.452   5.300  16.684 -0.0745 -2.7785 -1.0175
   7623SM   H7T10005   0.497   5.357  16.512 -0.5003 -0.7829 -0.4424
   7623SM   C8S10006   0.325   5.230  16.538  0.2076 -0.6597 -0.3028
   7623SM   H8S10007   0.242   5.210  16.609  0.4809 -1.9187 -0.2996
   7623SM   H8T10008   0.404   5.151  16.547  0.5891 -0.3264 -0.6967
   7623SM   C9S10009   0.272   5.243  16.391 -0.7561 -0.1561 -0.7607
   7623SM   H9S10010   0.343   5.294  16.323 -1.0551  0.6486 -0.4778
   7623SM   H9T10011   0.182   5.309  16.385  0.5320  1.7848  0.3965
   7623SM  C10S10012   0.246   5.107  16.325 -0.0541 -0.2791  0.0772
   7623SM  H10S10013   0.158   5.068  16.380 -0.1328 -0.7379 -0.3666
   7623SM  H10T10014   0.334   5.044  16.350  0.0384 -0.3734 -0.4707
   7623SM  C11S10015   0.218   5.115  16.176  0.2082 -0.0484  0.0727
   7623SM  H11S10016   0.303   5.136  16.108  0.9318 -2.9084 -0.0070
   7623SM  H11T10017   0.137   5.188  16.155  1.3445  0.7515 -1.8088
   7623SM  C12S10018   0.181   4.971  16.128 -0.0796 -0.2450  0.0472
   7623SM  H12S10019   0.080   4.952  16.170  0.3577 -2.6984  0.1127
   7623SM  H12T10020   0.247   4.886  16.156 -0.4148 -1.1112 -1.6567
   7623SM  C13S10021   0.143   4.960  15.980  0.2920  0.4930  0.4627
   7623SM  H13S10022   0.231   4.985  15.916 -0.2369  0.9547 -0.0877
   7623SM  H13T10023   0.061   5.028  15.950 -0.0315 -0.1277 -0.0798
   7623SM  C14S10024   0.104   4.818  15.948  0.2114  0.2170 -0.1712
   7623SM  H14S10025   0.017   4.791  16.012 -1.1945 -1.1199 -2.5065
   7623SM  H14T10026   0.191   4.756  15.980  0.8405  1.1281 -0.0693
   7623SM  C15S10027   0.074   4.802  15.800  0.1580 -0.1740  0.0757
   7623SM  H15S10028  -0.020   4.854  15.773 -0.3222 -2.1437 -2.4206
   7623SM  H15T10029   0.063   4.694  15.775  2.1931 -0.5062  0.4890
   7623SM  C16S10030   0.187   4.845  15.704 -0.1210  0.0513 -0.1761
   7623SM  H16S10031   0.267   4.777  15.740 -2.0926 -1.7204  1.1034
   7623SM  H16T10032   0.207   4.955  15.705 -0.9786  0.2060  0.5054
   7623SM  C17S10033   0.151   4.807  15.557  0.2545  0.2484  0.7333
   7623SM  H17S10034   0.115   4.703  15.566 -2.9853  1.3639  2.4470
   7623SM  H17T10035   0.240   4.809  15.491 -1.3251 -0.7015 -1.5489
   7623SM  C18S10036   0.045   4.906  15.499  0.9291 -0.8156 -0.4126
   7623SM  H18S10037   0.035   4.902  15.388 -2.8508 -4.8000 -0.1629
   7623SM  H18T10038   0.088   5.005  15.527  0.5747 -1.0795  1.1502
   7623SM  H18U10039  -0.051   4.883  15.548  0.1920 -0.9944 -1.8760
   7623SM   C1F10040  -0.118   5.168  16.806  0.8624 -0.2056 -0.0256
   7623SM    OF10041  -0.223   5.236  16.807 -0.4171 -0.0278  0.4968
   7623SM   C2F10042  -0.128   5.033  16.740 -0.0876 -0.5934 -0.7349
   7623SM   H2F10043  -0.176   4.974  16.821 -1.4078  2.3549  0.7830
   7623SM   H2G10044  -0.026   4.995  16.715  0.4502 -0.1181  0.6284
   7623SM   C3F10045  -0.209   5.037  16.611 -0.2741  0.3623  0.4243
   7623SM   H3F10046  -0.306   5.090  16.624 -0.3404  0.9205 -1.9759
   7623SM   H3G10047  -0.225   4.934  16.573  4.7036 -0.7603  0.6952
   7623SM   C4F10048  -0.130   5.104  16.492 -0.6685  0.3295 -0.6822
   7623SM   H4F10049  -0.032   5.057  16.469  1.1611  1.4086  3.8249
   7623SM   H4G10050  -0.102   5.205  16.528 -3.6252  0.3877  1.9325
   7623SM   C5F10051  -0.201   5.112  16.359 -1.1632 -0.0126  0.2943
   7623SM   H5F10052  -0.224   5.013  16.313 -0.7623  0.5801 -1.2496
   7623SM   H5G10053  -0.134   5.152  16.280  1.4487  1.9193  3.2405
   7623SM   C6F10054  -0.329   5.193  16.363  0.0393 -0.6089 -0.2516
   7623SM   H6F10055  -0.376   5.201  16.463 -1.9455  0.6219 -1.2138
   7623SM   H6G10056  -0.400   5.145  16.291 -1.6514  0.4237  0.6643
   7623SM   C7F10057  -0.321   5.336  16.310 -0.0611 -0.4970  0.0753
   7623SM   H7F10058  -0.250   5.394  16.372  1.7750 -0.8409 -1.5921
   7623SM   H7G10059  -0.418   5.390  16.318  0.5238  0.6157 -0.1234
   7623SM   C8F10060  -0.295   5.341  16.158 -0.3919 -0.3897 -1.0691
   7623SM   H8F10061  -0.385   5.289  16.120 -1.7813 -0.6900  2.3124
   7623SM   H8G10062  -0.201   5.290  16.127  0.6464  0.8835 -0.1408
   7623SM   C9F10063  -0.297   5.486  16.101  0.4665 -0.5414  0.0445
   7623SM   H9F10064  -0.402   5.522  16.107  0.5785 -0.1696 -0.2798
   7623SM   H9G10065  -0.260   5.482  15.997 -0.2154 -0.4581 -0.2049
   7623SM  C10F10066  -0.226   5.591  16.186  0.3174  0.2215  0.1069
   7623SM  H10F10067  -0.268   5.588  16.289 -0.5142  0.3007 -0.2219
   7623SM  H10G10068  -0.249   5.692  16.148 -1.0455  0.2316  0.8803
   7623SM  C11F10069  -0.077   5.566  16.203  0.3668 -0.2992  0.3710
   7623SM  H11F10070  -0.063   5.459  16.229 -1.3234 -1.2992 -2.4689
   7623SM  H11G10071  -0.036   5.638  16.278 -0.4336  1.6081 -0.9468
   7623SM  C12F10072  -0.001   5.594  16.075 -0.1308  0.7480  0.1248
   7623SM  H12F10073   0.008   5.705  16.066  0.4951  0.5924 -1.6219
   7623SM  H12G10074  -0.060   5.558  15.988  1.2855  0.5547 -0.7952
   7623SM  C13F10075   0.140   5.536  16.062  0.2538  0.2918  0.0670
   7623SM  H13F10076   0.197   5.573  15.974  1.6958 -0.7110  0.5436
   7623SM  H13G10077   0.120   5.427  16.052  1.5508 -0.0272  0.7598
   7623SM  C14F10078   0.233   5.555  16.182  0.5607 -0.2325  0.1961
   7623SM  H14F10079   0.317   5.482  16.181  1.2268  0.5241  0.3429
   7623SM  H14G10080   0.181   5.533  16.278  0.9465  0.7815  0.6520
   7623SM  C15F10081   0.274   5.702  16.197  0.3216 -0.2973  0.2563
   7623SM  H15F10082   0.190   5.775  16.197  0.2285 -0.3525 -1.4330
   7623SM  H15G10083   0.331   5.717  16.102 -0.8700 -2.6802 -0.9275
   7623SM  C16F10084   0.381   5.722  16.305 -0.0046 -0.7616 -0.8142
   7623SM  H16F10085   0.465   5.651  16.289 -0.9582 -2.3115  0.6960
   7623SM  H16G10086   0.343   5.721  16.409 -0.0353  0.5237 -0.7976
   7623SM  C17F10087   0.442   5.864  16.289  0.6148 -0.3355 -0.1360
   7623SM  H17F10088   0.365   5.944  16.281  0.4067 -0.6495 -1.6701
   7623SM  H17G10089   0.501   5.877  16.195  0.6085  2.7059  0.1769
   7623SM  C18F10090   0.525   5.898  16.418 -0.1968 -0.2342 -0.1687
   7623SM  H18F10091   0.587   5.813  16.452  0.3422  0.2804  0.1532
   7623SM  H18G10092   0.456   5.915  16.502  2.3151 -1.7058  2.3589
   7623SM  C19F10093   0.606   6.030  16.402  0.7744  0.6950 -0.8238
   7623SM  H19F10094   0.699   6.016  16.342  2.2600  0.3456  1.4247
   7623SM  H19G10095   0.639   6.057  16.505 -0.5109 -1.3135  0.1782
   7623SM  C20F10096   0.529   6.152  16.356  0.2643 -0.4100 -0.4028
   7623SM  H20F10097   0.483   6.136  16.256 -1.1951  1.0911 -0.0151
   7623SM  H20G10098   0.597   6.237  16.335  1.3677 -1.0038  0.6549
   7623SM  C21F10099   0.422   6.197  16.453 -0.4087 -0.0537 -0.1090
   7623SM  H21F10100   0.463   6.174  16.553  1.4610  1.1739 -0.5357
   7623SM  H21G10101   0.330   6.137  16.435 -1.0770  0.5926  1.0591
   7623SM  C22F10102   0.375   6.340  16.439 -0.9324  0.0084  0.7002
   7623SM  H22F10103   0.313   6.371  16.526  0.1876  2.4267  0.7255
   7623SM  H22G10104   0.317   6.354  16.346  0.8491 -0.2378 -0.5141
   7623SM  C23F10105   0.487   6.444  16.440  0.1917 -0.3009 -0.2545
   7623SM  H23F10106   0.525   6.466  16.338  0.5224  0.1795 -0.0294
   7623SM  H23G10107   0.569   6.419  16.511  2.3010 -1.1777 -2.8343
   7623SM  H23H10108   0.435   6.539  16.464  1.0254  0.6133 -1.8660
   7723SM     N10109   7.665   2.054  17.143 -0.1415  0.5901  0.1245
   7723SM   C1510110   7.573   2.031  17.258 -0.0726 -0.4003  0.5337
   7723SM  H15A10111   7.483   2.090  17.242 -0.2920 -0.8933 -0.1386
   7723SM  H15B10112   7.616   2.047  17.355 -1.7715 -1.4258  1.5226
   7723SM  H15C10113   7.547   1.926  17.247 -1.8393  0.1902 -1.8425
   7723SM   C1410114   7.722   2.190  17.165  0.1621 -0.5844 -0.4313
   7723SM  H14A10115   7.761   2.196  17.266 -0.7182 -0.6103 -0.0754
   7723SM  H14B10116   7.652   2.272  17.153  0.1856 -0.6897 -1.3614
   7723SM  H14C10117   7.807   2.205  17.100 -0.8401 -1.1763 -1.9312
   7723SM   C1310118   7.771   1.957  17.147 -0.1932  0.2648  0.2719
   7723SM  H13A10119   7.732   1.858  17.131  1.5127 -0.5979  1.1098
   7723SM  H13B10120   7.818   1.950  17.245 -3.4784 -2.1668  1.8327
   7723SM  H13C10121   7.847   1.983  17.075  0.4080  0.5378  0.9785
   7723SM   C1210122   7.579   2.033  17.012  0.0539 -0.8439  0.3410
   7723SM  H12A10123   7.636   2.065  16.926 -1.5494  1.0479 -0.1013
   7723SM  H12B10124   7.504   2.111  17.020  1.8003  0.8462  1.2532
   7723SM   C1110125   7.509   1.899  16.995 -0.1087  0.6295 -0.3029
   7723SM  H11A10126   7.585   1.817  16.993 -0.6255  0.1256  0.2964
   7723SM  H11B10127   7.466   1.895  16.893  1.0040 -1.0748 -0.7557
   7723SM     P10128   7.262   1.903  17.111 -0.2065  0.0851  0.0293
   7723SM   O1310129   7.193   1.815  17.203  0.2222 -0.2612 -0.2009
   7723SM   O1410130   7.244   2.047  17.140 -0.5942  0.0787 -0.2944
   7723SM   O1110131   7.190   1.870  16.976 -0.1804 -0.2550  0.1458
   7723SM   O1210132   7.415   1.869  17.095  0.2632 -0.2854 -0.3905
   7723SM   C1S10133   7.221   1.752  16.904 -0.5602 -0.0784  0.3527
   7723SM   H1S10134   7.151   1.672  16.933 -1.5153  0.4792 -0.3682
   7723SM   H1T10135   7.326   1.717  16.910 -0.3278  0.1697 -1.5981
   7723SM    NF10136   7.166   1.662  16.680 -0.3612  0.1834 -0.1531
   7723SM   HNF10137   7.240   1.622  16.627 -1.4427 -0.4079 -1.2469
   7723SM   C2S10138   7.189   1.785  16.758 -0.6814 -0.1488 -0.0008
   7723SM   H2S10139   7.087   1.829  16.757 -0.3790  0.6002  0.4583
   7723SM   C3S10140   7.297   1.881  16.690  0.4224 -0.0120  0.2340
   7723SM   H3S10141   7.395   1.830  16.698  0.4813  0.0645 -0.0217
   7723SM    O310142   7.314   2.007  16.759 -0.5487  0.0518  0.2249
   7723SM   HO310143   7.242   2.007  16.821 -0.7001  0.8023  0.0501
   7723SM   C4S10144   7.252   1.906  16.551  0.7007 -0.5156  0.4300
   7723SM   H4S10145   7.253   1.815  16.489  0.2300  0.7830 -1.5761
   7723SM   C5S10146   7.212   2.020  16.490 -0.4322 -0.1439 -0.0898
   7723SM   H5S10147   7.217   2.120  16.536  0.1770 -0.1097 -0.2259
   7723SM   C6S10148   7.176   2.035  16.342 -0.0581 -0.7587 -0.8802
   7723SM   H6S10149   7.257   2.090  16.289  0.1809  0.6459  0.8469
   7723SM   H6T10150   7.078   2.082  16.320  0.2433 -0.8833 -2.6462
   7723SM   C7S10151   7.165   1.897  16.259  0.4025  0.2007 -0.7251
   7723SM   H7S10152   7.067   1.855  16.289 -0.0775 -0.2911 -2.8320
   7723SM   H7T10153   7.241   1.820  16.286  0.9327  1.0159  0.2084
   7723SM   C8S10154   7.145   1.920  16.105  0.1666  0.7804  0.0234
   7723SM   H8S10155   7.099   1.834  16.050  0.4463 -0.0918  1.1132
   7723SM   H8T10156   7.249   1.924  16.065  0.8912 -1.0208  1.5312
   7723SM   C9S10157   7.048   2.028  16.075  0.0253 -0.2432 -0.4164
   7723SM   H9S10158   7.081   2.119  16.129 -1.0697 -1.7340  3.0532
   7723SM   H9T10159   6.949   1.999  16.118 -0.3984  0.1379 -1.1166
   7723SM  C10S10160   7.017   2.056  15.932  0.3366 -0.0109  0.9023
   7723SM  H10S10161   6.956   1.972  15.892 -0.4101  0.3117  1.3412
   7723SM  H10T10162   7.120   2.047  15.890 -0.1546  2.2702 -1.0009
   7723SM  C11S10163   6.953   2.193  15.901  0.1311 -0.3408 -0.8161
   7723SM  H11S10164   7.020   2.267  15.950 -1.0145  0.3914 -0.3181
   7723SM  H11T10165   6.863   2.200  15.965  1.1399  2.4937  0.4686
   7723SM  C12S10166   6.928   2.222  15.756  0.0092  0.6352  0.4082
   7723SM  H12S10167   6.858   2.303  15.725 -2.6444 -1.6800 -0.0472
   7723SM  H12T10168   6.872   2.139  15.708  1.5065 -0.6147  0.7182
   7723SM  C13S10169   7.061   2.240  15.676 -0.6596 -0.5180  0.3123
   7723SM  H13S10170   7.140   2.169  15.712 -0.0519  0.5596  1.1824
   7723SM  H13T10171   7.100   2.344  15.684 -0.8134 -0.3137 -1.2605
   7723SM  C14S10172   7.040   2.226  15.526  0.2451  0.0315 -0.7208
   7723SM  H14S10173   7.000   2.319  15.480 -0.0072 -0.0007 -0.5646
   7723SM  H14T10174   6.960   2.150  15.512 -1.6450  1.4426  1.6454
   7723SM  C15S10175   7.156   2.178  15.442 -0.0505  0.0066  0.1599
   7723SM  H15S10176   7.241   2.152  15.509  1.1779 -0.5321 -1.5378
   7723SM  H15T10177   7.186   2.265  15.380 -1.3801  0.8939  0.7224
   7723SM  C16S10178   7.133   2.053  15.366 -0.4187 -0.2788  0.2107
   7723SM  H16S10179   7.097   1.968  15.428  0.7257 -0.4449  0.6676
   7723SM  H16T10180   7.226   2.007  15.325  0.4445  2.1675 -0.7804
   7723SM  C17S10181   7.036   2.058  15.247  0.4545  0.4525 -0.0510
   7723SM  H17S10182   6.935   2.085  15.285 -1.4419 -2.7034 -2.2626
   7723SM  H17T10183   7.017   1.957  15.204 -1.4926  0.1478  1.3768
   7723SM  C18S10184   7.072   2.150  15.134 -0.8739  0.7183  0.1216
   7723SM  H18S10185   7.165   2.107  15.091 -1.0125  0.9840 -0.4641
   7723SM  H18T10186   7.097   2.252  15.170  0.0365  0.6669 -0.3484
   7723SM  H18U10187   7.000   2.147  15.049 -0.1445 -0.1026 -0.4922
   7723SM   C1F10188   7.061   1.581  16.695  0.3645 -0.1837  0.2888
   7723SM    OF10189   6.976   1.615  16.778 -0.3901 -1.0003  0.0701
   7723SM   C2F10190   7.057   1.455  16.622 -0.6033 -0.2855 -0.1419
   7723SM   H2F10191   6.952   1.419  16.620 -1.1240  1.1347 -2.1261
   7723SM   H2G10192   7.123   1.386  16.679 -0.4718  1.8346  2.4469
   7723SM   C3F10193   7.104   1.449  16.474  0.2247  0.0322  0.3634
   7723SM   H3F10194   7.091   1.346  16.435  0.9159  0.1563 -0.2230
   7723SM   H3G10195   7.213   1.468  16.461  0.0369  0.2685 -0.9596
   7723SM   C4F10196   7.028   1.547  16.388 -0.2191  0.2992  0.1235
   7723SM   H4F10197   7.049   1.653  16.414 -0.9707  0.5730 -0.3406
   7723SM   H4G10198   6.917   1.539  16.396 -0.3290  1.0059 -0.5282
   7723SM   C5F10199   7.049   1.533  16.232 -0.1871  0.4972  0.3658
   7723SM   H5F10200   7.049   1.432  16.188 -0.8605  1.1096 -1.0806
   7723SM   H5G10201   7.150   1.567  16.200 -0.4620 -1.6137 -3.3365
   7723SM   C6F10202   6.933   1.615  16.161 -0.6516  0.2137  0.0509
   7723SM   H6F10203   6.940   1.720  16.197 -1.6404 -0.3103  1.8953
   7723SM   H6G10204   6.835   1.572  16.188 -0.8221  0.0919 -0.7295
   7723SM   C7F10205   6.935   1.602  16.010  0.2128  0.0200 -0.4505
   7723SM   H7F10206   6.934   1.496  15.975 -0.4176  0.7000 -2.6729
   7723SM   H7G10207   7.036   1.627  15.971  0.6526  1.0047  1.2327
   7723SM   C8F10208   6.835   1.691  15.938  0.8078 -0.1205 -0.0558
   7723SM   H8F10209   6.837   1.787  15.993  0.0490 -0.0889 -0.0767
   7723SM   H8G10210   6.731   1.652  15.945  0.3800  0.3147 -2.8076
   7723SM   C9F10211   6.867   1.699  15.793  0.5797 -0.1394  0.7931
   7723SM   H9F10212   6.854   1.602  15.742 -0.5832  0.8627 -0.9276
   7723SM   H9G10213   6.971   1.735  15.774 -0.0609  1.4822  0.1300
   7723SM  C10F10214   6.766   1.799  15.724 -0.3075  0.7395 -0.0737
   7723SM  H10F10215   6.764   1.892  15.785  0.2692 -0.1909  1.4463
   7723SM  H10G10216   6.668   1.748  15.711  0.1217 -0.2451  0.3746
   7723SM  C11F10217   6.793   1.836  15.578  0.9560 -1.0710 -0.1749
   7723SM  H11F10218   6.895   1.880  15.572  0.3324  0.6331  0.9226
   7723SM  H11G10219   6.717   1.905  15.535  0.7679 -1.3870 -0.3514
   7723SM  C12F10220   6.787   1.707  15.492  0.4644 -0.2895  0.0971
   7723SM  H12F10221   6.685   1.667  15.511  0.6935 -0.6210  0.6539
   7723SM  H12G10222   6.857   1.623  15.511  0.6848  0.3001  2.2506
   7723SM  C13F10223   6.787   1.748  15.340 -0.0934 -0.9558  0.1387
   7723SM  H13F10224   6.897   1.739  15.325  0.4786  0.7997  2.5993
   7723SM  H13G10225   6.760   1.853  15.317  2.7233 -0.6032 -2.1120
   7723SM  C14F10226   6.702   1.660  15.257 -0.2059 -0.3856 -0.0001
   7723SM  H14F10227   6.596   1.671  15.289 -0.5470 -0.7449 -0.9455
   7723SM  H14G10228   6.719   1.552  15.277  0.9745  0.1537  2.1702
   7723SM  C15F10229   6.691   1.702  15.110  0.2329  0.2510  0.6639
   7723SM  H15F10230   6.782   1.671  15.055 -0.1331  0.8142 -0.2707
   7723SM  H15G10231   6.678   1.812  15.103 -0.7786  0.1170  0.2428
   7723SM  C16F10232   6.577   1.626  15.032  0.4579 -0.1719  0.0017
   7723SM  H16F10233   6.473   1.636  15.072  0.6787 -1.3248  0.9311
   7723SM  H16G10234   6.592   1.516  15.035  2.3755  0.0658  0.1360
   7723SM  C17F10235   6.584   1.674  14.885 -0.4774  0.2435  0.1268
   7723SM  H17F10236   6.624   1.777  14.880  1.9106 -0.6085  0.2061
   7723SM  H17G10237   6.478   1.675  14.852 -0.5515 -1.3820  0.2210
   7723SM  C18F10238   6.660   1.588  14.776 -0.6274 -0.6370 -0.6780
   7723SM  H18F10239   6.608   1.490  14.778  0.9837 -1.5711  1.7247
   7723SM  H18G10240   6.767   1.575  14.803 -0.7896 -2.5128 -0.8180
   7723SM  C19F10241   6.646   1.649  14.638  0.2148 -0.0080 -0.0318
   7723SM  H19F10242   6.696   1.748  14.635  1.1741 -0.4842 -0.0669
   7723SM  H19G10243   6.538   1.671  14.626  0.6065  1.9878 -0.3040
   7723SM  C20F10244   6.699   1.570  14.516 -0.3107  0.0303 -0.0008
   7723SM  H20F10245   6.688   1.460  14.525  0.3465 -0.0207  0.2458
   7723SM  H20G10246   6.808   1.594  14.512 -0.6657  1.7677 -0.0853
   7723SM  C21F10247   6.638   1.602  14.375 -0.1408  0.3177  0.2719
   7723SM  H21F10248   6.528   1.591  14.385 -0.3751 -1.2308 -2.7499
   7723SM  H21G10249   6.676   1.521  14.309 -0.0830 -0.4862  1.2691
   7723SM  C22F10250   6.663   1.746  14.329 -0.2823  0.2177 -0.0950
   7723SM  H22F10251   6.634   1.827  14.400  3.8632  0.8619  1.1869
   7723SM  H22G10252   6.603   1.758  14.236 -1.1383  0.5314  0.4866
   7723SM  C23F10253   6.804   1.776  14.278  0.2720  0.1875  0.2712
   7723SM  H23F10254   6.812   1.885  14.259 -0.2322  0.0228 -1.0135
   7723SM  H23G10255   6.815   1.725  14.180 -2.6483  1.9756 -1.1201
   7723SM  H23H10256   6.877   1.732  14.349  0.5838 -1.8980 -1.2387
   7823SM     N10257   1.755   6.844  16.837 -0.0637  0.0107 -0.1859
   7823SM   C1510258   1.760   6.985  16.897 -0.2249 -0.0541 -0.4329
   7823SM  H15A10259   1.692   7.052  16.846 -0.2293 -0.3155 -0.7723
   7823SM  H15B10260   1.859   7.029  16.897  0.1761 -0.9398 -0.2451
   7823SM  H15C10261   1.742   6.979  17.003 -0.5208  1.4983 -0.3780
   7823SM   C1410262   1.820   6.848  16.709 -0.6375 -0.1648  0.4311
   7823SM  H14A10263   1.811   6.759  16.649 -1.9443  0.0242  0.3111
   7823SM  H14B10264   1.924   6.877  16.718 -0.2531 -1.1381 -0.6420
   7823SM  H14C10265   1.773   6.921  16.644  0.8387 -0.3639 -0.9173
   7823SM   C1310266   1.849   6.767  16.926 -0.5694  0.1362 -0.3512
   7823SM  H13A10267   1.806   6.754  17.024  0.6849 -0.0060  0.1880
   7823SM  H13B10268   1.939   6.824  16.944 -0.4157 -0.1010 -0.3697
   7823SM  H13C10269   1.885   6.677  16.878  0.5009  0.9950 -1.2265
   7823SM   C1210270   1.623   6.775  16.839 -0.6993  0.0477  0.6248
   7823SM  H12A10271   1.580   6.763  16.937 -2.1350  0.2570  0.0464
   7823SM  H12B10272   1.624   6.672  16.807  2.8636  0.5245 -1.3587
   7823SM   C1110273   1.506   6.843  16.764  0.3993 -0.6098  0.3906
   7823SM  H11A10274   1.417   6.777  16.772 -0.5429  0.3288 -1.5125
   7823SM  H11B10275   1.537   6.844  16.657 -1.0773  1.5181 -0.0843
   7823SM     P10276   1.402   7.001  16.947  0.1988  0.1432  0.5451
   7823SM   O1310277   1.454   6.920  17.055  0.2133  0.0860  0.3832
   7823SM   O1410278   1.402   7.145  16.981  0.5682 -0.1658  0.4445
   7823SM   O1110279   1.260   6.954  16.914  0.0450 -0.4332 -0.1458
   7823SM   O1210280   1.480   6.980  16.806  0.0532 -0.0281  0.6768
   7823SM   C1S10281   1.163   7.020  16.830  0.2075  0.0366  0.2084
   7823SM   H1S10282   1.155   7.131  16.842 -1.3720  0.2828 -2.2937
   7823SM   H1T10283   1.062   6.986  16.861 -0.8905  1.5231 -1.5687
   7823SM    NF10284   1.117   7.087  16.601  0.0950  0.0540 -0.3088
   7823SM   HNF10285   1.032   7.064  16.555  1.2293 -1.9946 -1.5031
   7823SM   C2S10286   1.174   6.986  16.681  0.3526  0.1101  0.5969
   7823SM   H2S10287   1.282   6.978  16.658  0.4367  0.3162  0.9171
   7823SM   C3S10288   1.101   6.850  16.654  0.2244  0.2477 -0.2114
   7823SM   H3S10289   0.995   6.863  16.685 -0.1247 -0.6467 -1.0019
   7823SM    O310290   1.150   6.749  16.737 -0.1829  0.5660  0.3394
   7823SM   HO310291   1.205   6.789  16.805  1.5794 -3.2963  1.4720
   7823SM   C4S10292   1.106   6.802  16.510 -0.3388 -0.2996 -0.2510
   7823SM   H4S10293   1.207   6.780  16.472 -0.7257 -2.4653 -0.1566
   7823SM   C5S10294   1.006   6.768  16.427  0.4691  0.3976 -0.1462
   7823SM   H5S10295   0.911   6.736  16.472  0.5317 -0.7818 -0.8146
   7823SM   C6S10296   1.035   6.723  16.290 -0.3655 -0.0853  0.1828
   7823SM   H6S10297   0.964   6.638  16.287 -1.4393  0.7198  1.7238
   7823SM   H6T10298   1.135   6.682  16.263 -0.5112 -0.1358 -0.2949
   7823SM   C7S10299   0.988   6.841  16.197  0.4145 -0.3640  0.6347
   7823SM   H7S10300   1.063   6.923  16.196  0.4439 -0.3959  0.3907
   7823SM   H7T10301   0.889   6.880  16.228  0.4710  1.0725 -0.8740
   7823SM   C8S10302   0.987   6.795  16.048  0.2504 -0.2522  0.2028
   7823SM   H8S10303   1.085   6.749  16.020  1.6275  0.0136  3.9961
   7823SM   H8T10304   0.972   6.882  15.980  0.2230 -1.1240 -0.9425
   7823SM   C9S10305   0.878   6.683  16.021 -0.9825  0.0703  0.7368
   7823SM   H9S10306   0.787   6.723  16.071 -0.2856  0.1835  1.9574
   7823SM   H9T10307   0.919   6.594  16.073 -0.9623 -0.9651 -0.9652
   7823SM  C10S10308   0.860   6.666  15.870 -0.1409 -0.8751  0.3188
   7823SM  H10S10309   0.857   6.765  15.820 -0.1749 -0.6745  0.7107
   7823SM  H10T10310   0.766   6.610  15.849 -2.0680  2.2732 -0.1842
   7823SM  C11S10311   0.982   6.584  15.813 -0.4095 -0.3291 -0.0350
   7823SM  H11S10312   1.005   6.504  15.886  1.9670  0.2692 -0.0594
   7823SM  H11T10313   1.069   6.652  15.808  0.4550 -1.4924 -1.3396
   7823SM  C12S10314   0.969   6.523  15.683  0.7128  0.8188  0.3520
   7823SM  H12S10315   1.070   6.492  15.651  0.8589 -1.8111  2.9637
   7823SM  H12T10316   0.927   6.599  15.613 -2.0127  0.5086  1.5318
   7823SM  C13S10317   0.879   6.399  15.683 -0.5979 -0.3961 -0.0499
   7823SM  H13S10318   0.777   6.437  15.706 -0.3197  0.5634 -0.3520
   7823SM  H13T10319   0.905   6.329  15.765 -1.8841 -1.4834 -0.5398
   7823SM  C14S10320   0.881   6.331  15.544  0.9444  0.1754 -0.1746
   7823SM  H14S10321   0.835   6.230  15.549  0.7146  0.3397  1.4384
   7823SM  H14T10322   0.985   6.297  15.522  0.7760 -1.3254  1.1429
   7823SM  C15S10323   0.810   6.401  15.418 -0.5129  0.5368 -1.0304
   7823SM  H15S10324   0.821   6.328  15.335  0.7571 -1.5325  0.8406
   7823SM  H15T10325   0.886   6.479  15.398  1.5875 -1.0694  0.2639
   7823SM  C16S10326   0.674   6.458  15.447  0.6798 -0.1853  0.9173
   7823SM  H16S10327   0.633   6.517  15.363  2.0957 -0.1489  0.2242
   7823SM  H16T10328   0.672   6.521  15.539  1.3789  0.6855  0.3461
   7823SM  C17S10329   0.581   6.339  15.480  0.1668  0.4843 -0.2021
   7823SM  H17S10330   0.624   6.296  15.573 -2.5721 -1.9283  0.0869
   7823SM  H17T10331   0.589   6.260  15.402  3.0547 -0.3781  0.8285
   7823SM  C18S10332   0.435   6.383  15.505 -0.2463  0.6021  0.8029
   7823SM  H18S10333   0.427   6.424  15.608  0.8677  0.4965  0.9473
   7823SM  H18T10334   0.370   6.293  15.500 -0.1668  0.5816  0.0156
   7823SM  H18U10335   0.392   6.455  15.433 -1.0220 -1.3041 -0.7360
   7823SM   C1F10336   1.167   7.202  16.580 -0.2266 -1.1946 -0.4892
   7823SM    OF10337   1.279   7.237  16.624  0.3395  0.1510 -0.2818
   7823SM   C2F10338   1.089   7.298  16.495 -0.1665  0.2897  0.0701
   7823SM   H2F10339   0.991   7.326  16.538 -0.1433  2.6418 -1.2249
   7823SM   H2G10340   1.063   7.247  16.400 -0.0339 -0.0689  0.2276
   7823SM   C3F10341   1.167   7.425  16.456 -0.5941 -0.1759 -0.1621
   7823SM   H3F10342   1.263   7.408  16.402  0.1473  1.7948  0.4293
   7823SM   H3G10343   1.198   7.475  16.551  0.2897  1.0371 -1.0529
   7823SM   C4F10344   1.094   7.517  16.365 -0.5151 -0.3449 -0.5998
   7823SM   H4F10345   1.000   7.556  16.409  1.1535  0.6004  2.4557
   7823SM   H4G10346   1.072   7.458  16.274  2.0915 -2.4714  0.0048
   7823SM   C5F10347   1.193   7.634  16.330  0.6598 -0.2335 -0.3091
   7823SM   H5F10348   1.286   7.605  16.276  0.2485 -1.2992 -0.4819
   7823SM   H5G10349   1.217   7.686  16.425 -3.3010  1.1398  0.1228
   7823SM   C6F10350   1.124   7.735  16.224  0.4179  0.3149 -0.5054
   7823SM   H6F10351   1.200   7.815  16.211  2.3861 -1.0970  1.4490
   7823SM   H6G10352   1.031   7.772  16.271  0.2081 -1.1485  0.3013
   7823SM   C7F10353   1.082   7.674  16.091 -0.4310  0.0008 -0.8247
   7823SM   H7F10354   1.036   7.752  16.027 -0.9402  0.4606  0.0725
   7823SM   H7G10355   0.996   7.606  16.108  0.1405 -0.7762 -1.0285
   7823SM   C8F10356   1.190   7.607  16.008  0.3878  0.3442  0.3939
   7823SM   H8F10357   1.221   7.512  16.058  1.2333 -0.7807 -2.1002
   7823SM   H8G10358   1.284   7.665  16.001  1.4040 -1.3401 -0.4639
   7823SM   C9F10359   1.150   7.562  15.862 -0.2746 -0.0175  0.4440
   7823SM   H9F10360   1.055   7.504  15.869 -0.7933  0.6445 -0.6631
   7823SM   H9G10361   1.228   7.492  15.825  1.0124  2.1391 -1.1856
   7823SM  C10F10362   1.131   7.686  15.764  0.0774 -0.2742 -0.0507
   7823SM  H10F10363   1.196   7.771  15.794  0.6792 -0.4259 -0.8809
   7823SM  H10G10364   1.024   7.709  15.780 -0.6033 -1.7655 -2.0662
   7823SM  C11F10365   1.145   7.661  15.614  0.0549  0.3514  0.1082
   7823SM  H11F10366   1.250   7.630  15.592  1.0060  4.1249 -1.5236
   7823SM  H11G10367   1.111   7.748  15.554 -1.6835  0.8684  1.7577
   7823SM  C12F10368   1.066   7.533  15.558  0.0156  0.3054  0.4122
   7823SM  H12F10369   0.957   7.546  15.573 -0.2748  2.7502 -2.7963
   7823SM  H12G10370   1.099   7.435  15.599  1.0120 -0.5470 -2.1867
   7823SM  C13F10371   1.085   7.518  15.408 -0.2106  0.3079  0.8273
   7823SM  H13F10372   1.017   7.435  15.379  0.0041  0.5816 -0.5266
   7823SM  H13G10373   1.186   7.480  15.379 -0.6304 -1.8639  1.9724
   7823SM  C14F10374   1.027   7.633  15.315 -0.3751  0.0886  0.1459
   7823SM  H14F10375   1.110   7.707  15.313 -0.0660 -0.2664 -0.8309
   7823SM  H14G10376   0.936   7.678  15.362 -0.4511  0.2693 -0.1704
   7823SM  C15F10377   0.987   7.606  15.172  0.1686  0.8079 -0.2335
   7823SM  H15F10378   0.999   7.704  15.121  1.9168  0.9140  0.3003
   7823SM  H15G10379   0.881   7.575  15.171  1.2101 -3.3690 -0.8156
   7823SM  C16F10380   1.094   7.514  15.109  0.9605 -0.4944  0.0120
   7823SM  H16F10381   1.074   7.413  15.148  0.2283 -0.8007 -1.1032
   7823SM  H16G10382   1.188   7.545  15.159 -0.1458  2.9562  0.2682
   7823SM  C17F10383   1.089   7.538  14.956 -0.7737  0.2633  1.0104
   7823SM  H17F10384   1.098   7.641  14.916 -0.5734 -1.0376 -2.7388
   7823SM  H17G10385   0.987   7.518  14.914 -1.7739  2.1938  2.3864
   7823SM  C18F10386   1.192   7.449  14.880  0.3174 -0.3933  0.1968
   7823SM  H18F10387   1.182   7.341  14.903 -2.2826 -0.2386  0.0510
   7823SM  H18G10388   1.288   7.485  14.924 -0.9842  1.5950  1.5955
   7823SM  C19F10389   1.193   7.463  14.726  0.2898  0.1488  0.3997
   7823SM  H19F10390   1.185   7.574  14.715  0.9209  0.2212  0.6170
   7823SM  H19G10391   1.102   7.419  14.680  0.7859 -0.3471 -0.1062
   7823SM  C20F10392   1.322   7.411  14.666  0.2309  0.1049 -0.1300
   7823SM  H20F10393   1.312   7.308  14.625  1.8454  0.1280 -0.6459
   7823SM  H20G10394   1.397   7.409  14.748  1.3970 -1.9667 -1.1729
   7823SM  C21F10395   1.372   7.502  14.556  0.3149  0.1165  0.5665
   7823SM  H21F10396   1.371   7.597  14.614 -3.6191 -1.7725  4.2252
   7823SM  H21G10397   1.299   7.500  14.472 -0.6640 -0.3557  1.4037
   7823SM  C22F10398   1.511   7.476  14.504 -0.1364  0.5068  0.8180
   7823SM  H22F10399   1.512   7.380  14.448 -1.7003 -0.8203  2.9110
   7823SM  H22G10400   1.580   7.454  14.589  4.3442  0.5143 -2.4366
   7823SM  C23F10401   1.567   7.589  14.420 -0.4195  0.6963 -0.4396
   7823SM  H23F10402   1.582   7.679  14.483 -1.1376  0.6071 -0.1379
   7823SM  H23G10403   1.515   7.608  14.323 -1.5787 -2.3268 -0.5390
   7823SM  H23H10404   1.671   7.571  14.386  0.9085  3.4205  1.7732
   7923SM     N10405   6.602   7.453  17.419 -0.5090 -0.4574  0.1712
   7923SM   C1510406   6.473   7.387  17.461 -0.3879  0.6863  0.2180
   7923SM  H15A10407   6.430   7.434  17.548  2.8202 -0.0192  2.3597
   7923SM  H15B10408   6.498   7.285  17.486 -1.2082  0.5704  0.5816
   7923SM  H15C10409   6.400   7.388  17.382 -1.4129  1.1943  1.1482
   7923SM   C1410410   6.564   7.600  17.447 -0.9034 -0.1378  0.8105
   7923SM  H14A10411   6.520   7.620  17.543  1.6774  0.6913  1.9182
   7923SM  H14B10412   6.495   7.633  17.371  1.1385  1.1248 -0.6139
   7923SM  H14C10413   6.645   7.671  17.441 -0.7340 -0.2221  1.8351
   7923SM   C1310414   6.715   7.405  17.500 -0.3068 -0.5034  0.0828
   7923SM  H13A10415   6.808   7.458  17.482 -0.5392  0.6195  1.8601
   7923SM  H13B10416   6.734   7.301  17.482 -1.7201 -0.5791 -1.1195
   7923SM  H13C10417   6.684   7.418  17.603 -3.8444 -0.8897 -0.7948
   7923SM   C1210418   6.634   7.423  17.271 -0.1783 -0.2653  0.3945
   7923SM  H12A10419   6.615   7.317  17.261  0.8829 -0.2922 -1.7681
   7923SM  H12B10420   6.738   7.438  17.247 -0.2072 -1.6789 -0.7647
   7923SM   C1110421   6.553   7.491  17.164  0.1193 -0.6132  0.2166
   7923SM  H11A10422   6.584   7.455  17.064  0.7527  0.4435  0.0146
   7923SM  H11B10423   6.580   7.599  17.158 -1.8809 -0.0750 -0.1482
   7923SM     P10424   6.306   7.575  17.161  0.2307  0.1894 -0.1702
   7923SM   O1310425   6.182   7.536  17.232  0.5263  0.2246 -0.4367
   7923SM   O1410426   6.370   7.697  17.204  0.5299  0.3223  0.0883
   7923SM   O1110427   6.276   7.596  17.009 -0.2486 -0.0082  0.1411
   7923SM   O1210428   6.413   7.460  17.175  0.3674 -0.5309 -0.1190
   7923SM   C1S10429   6.266   7.483  16.917 -0.5681  0.6597 -0.0401
   7923SM   H1S10430   6.172   7.427  16.932  0.7258 -1.7548 -0.4507
   7923SM   H1T10431   6.333   7.396  16.933 -2.3735 -0.5486  1.3362
   7923SM    NF10432   6.267   7.420  16.669  0.0187  0.0962  0.5894
   7923SM   HNF10433   6.350   7.388  16.624  1.1027  2.1930  0.9676
   7923SM   C2S10434   6.293   7.524  16.764 -0.1743  0.0633 -0.1656
   7923SM   H2S10435   6.227   7.611  16.746  0.5708  0.7519  0.3411
   7923SM   C3S10436   6.438   7.582  16.748  0.1486  0.3603 -1.1093
   7923SM   H3S10437   6.505   7.495  16.765 -0.1398  0.6687  2.1826
   7923SM    O310438   6.476   7.663  16.856  0.0905 -0.1775 -0.0530
   7923SM   HO310439   6.418   7.632  16.926 -0.3955  0.5029 -0.1424
   7923SM   C4S10440   6.454   7.642  16.613 -0.2942  0.2581  0.0907
   7923SM   H4S10441   6.499   7.576  16.537 -1.5505  1.3988 -1.7136
   7923SM   C5S10442   6.441   7.775  16.571  0.6542  0.1592 -0.5918
   7923SM   H5S10443   6.421   7.854  16.645  0.4994 -1.5744  1.2890
   7923SM   C6S10444   6.474   7.821  16.431  0.3962 -0.3979 -0.1096
   7923SM   H6S10445   6.506   7.926  16.444 -1.8570  0.5045 -1.3948
   7923SM   H6T10446   6.383   7.808  16.369  0.3904 -1.3714  0.0858
   7923SM   C7S10447   6.587   7.739  16.368 -0.4226  0.0560 -0.8347
   7923SM   H7S10448   6.572   7.629  16.372  2.2880 -0.3488  1.4619
   7923SM   H7T10449   6.682   7.744  16.425 -1.5056  0.9681  0.9699
   7923SM   C8S10450   6.609   7.780  16.220 -0.5792 -0.6680 -0.0244
   7923SM   H8S10451   6.680   7.865  16.219 -0.7762 -0.4723  1.2576
   7923SM   H8T10452   6.507   7.810  16.186 -1.2298 -0.5188  1.9351
   7923SM   C9S10453   6.663   7.675  16.135 -0.8342  0.5375  0.4089
   7923SM   H9S10454   6.589   7.592  16.145  0.8431 -0.8738  1.7359
   7923SM   H9T10455   6.761   7.634  16.167 -1.3650 -0.9708  0.2088
   7923SM  C10S10456   6.672   7.725  15.993  0.4495  0.5358 -0.3423
   7923SM  H10S10457   6.751   7.803  16.000 -1.8097  2.8363  1.8375
   7923SM  H10T10458   6.579   7.772  15.954 -0.7900 -1.3409  0.2058
   7923SM  C11S10459   6.721   7.630  15.892 -0.0449 -0.4841 -0.1117
   7923SM  H11S10460   6.816   7.588  15.931 -0.4033 -1.6602 -0.4617
   7923SM  H11T10461   6.729   7.684  15.795 -1.7946 -0.4622 -0.2822
   7923SM  C12S10462   6.646   7.498  15.859  0.0567  0.2478  0.0117
   7923SM  H12S10463   6.557   7.522  15.796 -1.0788 -1.6819  0.7665
   7923SM  H12T10464   6.633   7.439  15.953  5.1220  0.9005  1.3717
   7923SM  C13S10465   6.741   7.412  15.774 -0.5033 -0.2224 -0.1724
   7923SM  H13S10466   6.707   7.306  15.775  0.0320 -0.4015 -0.5744
   7923SM  H13T10467   6.842   7.400  15.817 -0.5881  1.3601  0.5402
   7923SM  C14S10468   6.743   7.454  15.628  0.7866  0.3541  0.9522
   7923SM  H14S10469   6.769   7.561  15.615 -1.2569  0.8997  1.0925
   7923SM  H14T10470   6.644   7.449  15.579  1.9067 -1.9174 -1.2944
   7923SM  C15S10471   6.838   7.378  15.538 -0.2220 -0.3197  0.6704
   7923SM  H15S10472   6.814   7.270  15.529 -1.0448  0.0159 -2.8724
   7923SM  H15T10473   6.941   7.394  15.575 -0.5442  0.2397  1.3628
   7923SM  C16S10474   6.816   7.419  15.387 -0.0442  0.2859 -0.2190
   7923SM  H16S10475   6.835   7.528  15.372 -1.4748  0.3325 -2.0967
   7923SM  H16T10476   6.711   7.391  15.363 -0.0086 -1.3047  1.3116
   7923SM  C17S10477   6.904   7.345  15.282 -0.2458  0.2126 -0.4467
   7923SM  H17S10478   6.872   7.238  15.279 -0.1343  0.1699 -0.1492
   7923SM  H17T10479   7.006   7.343  15.326 -0.8318  0.0086  0.9589
   7923SM  C18S10480   6.891   7.411  15.145  0.0017 -0.7662 -0.4803
   7923SM  H18S10481   6.980   7.374  15.089  0.8236 -0.7750  0.7699
   7923SM  H18T10482   6.878   7.517  15.176  2.8561 -1.3248  3.4358
   7923SM  H18U10483   6.800   7.371  15.096 -0.2744  0.0336 -0.6387
   7923SM   C1F10484   6.144   7.375  16.646  0.0759 -0.6204 -0.8373
   7923SM    OF10485   6.050   7.424  16.708  0.1860  0.5242  0.3427
   7923SM   C2F10486   6.140   7.259  16.550 -0.0669 -0.4312  0.9865
   7923SM   H2F10487   6.219   7.184  16.574 -1.6236 -3.2494 -1.8823
   7923SM   H2G10488   6.153   7.295  16.446 -0.7170 -2.4215  0.1601
   7923SM   C3F10489   6.002   7.178  16.557  0.5650 -0.1421  0.3357
   7923SM   H3F10490   5.917   7.245  16.532 -1.3717 -1.7031  2.3845
   7923SM   H3G10491   5.994   7.143  16.662 -0.4879 -0.1023  0.2797
   7923SM   C4F10492   5.985   7.062  16.458 -0.3132  0.4850  0.5672
   7923SM   H4F10493   5.892   7.003  16.473 -0.1164  0.2537  0.9038
   7923SM   H4G10494   6.068   6.990  16.476  0.4021  1.4694  1.4158
   7923SM   C5F10495   6.000   7.101  16.310  0.6015  0.5269  0.2530
   7923SM   H5F10496   6.107   7.133  16.308  0.8349 -0.2223  0.4437
   7923SM   H5G10497   5.949   7.197  16.283 -0.3949 -0.2942 -0.8943
   7923SM   C6F10498   5.994   6.986  16.211  0.0157  0.7142 -0.4322
   7923SM   H6F10499   6.037   6.896  16.260 -3.3559 -0.7034  0.1661
   7923SM   H6G10500   6.059   7.015  16.125 -0.6515  1.1759 -0.7860
   7923SM   C7F10501   5.851   6.952  16.166  0.2183  0.4581 -0.1189
   7923SM   H7F10502   5.826   7.029  16.089  2.5077 -0.8447 -2.2990
   7923SM   H7G10503   5.772   6.958  16.245 -0.4870 -0.1954 -0.7599
   7923SM   C8F10504   5.845   6.818  16.092  0.1971 -0.3529  0.0074
   7923SM   H8F10505   5.846   6.726  16.154 -2.8069 -2.0539 -2.1841
   7923SM   H8G10506   5.943   6.817  16.041 -0.3312 -0.9900 -1.0223
   7923SM   C9F10507   5.742   6.809  15.980  0.0519  0.1598  0.0048
   7923SM   H9F10508   5.768   6.883  15.901 -0.1735  3.4162  2.7291
   7923SM   H9G10509   5.642   6.847  16.011 -0.0479  1.9566 -2.2120
   7923SM  C10F10510   5.731   6.664  15.925  0.2286  0.0570  0.1452
   7923SM  H10F10511   5.636   6.650  15.870 -0.1198 -2.1414  1.1838
   7923SM  H10G10512   5.729   6.598  16.014 -3.4954 -0.2335  0.0020
   7923SM  C11F10513   5.849   6.622  15.833  0.1209 -0.4106  0.1448
   7923SM  H11F10514   5.936   6.606  15.900 -1.5658 -1.8389  2.1407
   7923SM  H11G10515   5.883   6.701  15.762  1.5235 -0.6524  0.5105
   7923SM  C12F10516   5.814   6.488  15.768 -0.2698  0.5853  0.3301
   7923SM  H12F10517   5.703   6.493  15.770 -0.3780  0.1397 -1.8430
   7923SM  H12G10518   5.823   6.411  15.848  0.7944 -0.0038 -0.3321
   7923SM  C13F10519   5.847   6.436  15.628  0.5661 -0.0066 -0.7670
   7923SM  H13F10520   5.772   6.359  15.600  1.0182 -0.1688 -1.5573
   7923SM  H13G10521   5.948   6.388  15.622  0.4139 -0.2132 -1.8510
   7923SM  C14F10522   5.820   6.546  15.520  0.5557 -0.2255 -0.0276
   7923SM  H14F10523   5.893   6.629  15.526  2.2304 -1.6571  0.1162
   7923SM  H14G10524   5.720   6.588  15.543  0.5389 -0.7403  0.8884
   7923SM  C15F10525   5.821   6.496  15.373 -0.0806  0.0201 -0.5214
   7923SM  H15F10526   5.777   6.576  15.309 -0.1557  0.4500  0.0561
   7923SM  H15G10527   5.754   6.408  15.364  1.4513 -1.3195  0.4951
   7923SM  C16F10528   5.965   6.467  15.332  0.2544 -0.3381 -0.6215
   7923SM  H16F10529   5.979   6.362  15.367  0.2244  0.3964  1.7285
   7923SM  H16G10530   6.045   6.519  15.387  1.1136 -0.7620 -1.4465
   7923SM  C17F10531   5.986   6.468  15.189 -0.3482 -0.7929  0.6230
   7923SM  H17F10532   6.088   6.427  15.169 -0.8278 -0.8965 -2.0584
   7923SM  H17G10533   5.987   6.574  15.156 -1.6342 -0.2707  2.1458
   7923SM  C18F10534   5.884   6.387  15.113  0.7726 -0.2559 -0.0358
   7923SM  H18F10535   5.783   6.433  15.117  0.5657 -0.6774 -0.3372
   7923SM  H18G10536   5.866   6.299  15.179 -3.6468  1.8156  1.9131
   7923SM  C19F10537   5.922   6.348  14.970  0.3206 -1.1484  0.2229
   7923SM  H19F10538   6.023   6.301  14.969  0.6867 -0.3998  0.8077
   7923SM  H19G10539   5.917   6.441  14.909  1.5686 -0.7333  0.7161
   7923SM  C20F10540   5.826   6.245  14.928  0.1180 -0.2620 -0.2044
   7923SM  H20F10541   5.726   6.289  14.947 -0.3148 -2.0518  1.9757
   7923SM  H20G10542   5.828   6.160  14.999 -0.1934  1.1701  1.5716
   7923SM  C21F10543   5.842   6.196  14.786  0.3215  0.4996  0.7380
   7923SM  H21F10544   5.946   6.159  14.769 -0.5090 -0.4731 -3.3029
   7923SM  H21G10545   5.830   6.287  14.725 -3.5253  0.8596  1.8150
   7923SM  C22F10546   5.748   6.091  14.725 -0.5061  0.8024  0.0442
   7923SM  H22F10547   5.744   6.092  14.614  0.4632 -3.4830 -0.1988
   7923SM  H22G10548   5.641   6.108  14.750 -1.2417 -1.2590 -1.3605
   7923SM  C23F10549   5.793   5.947  14.767 -0.3642 -0.6136  0.8355
   7923SM  H23F10550   5.714   5.877  14.734 -0.5022 -0.1297  0.1035
   7923SM  H23G10551   5.801   5.951  14.877 -0.2577  2.4295  0.8000
   7923SM  H23H10552   5.890   5.917  14.721  1.0842 -0.0500  3.3680
   8023SM     N10553   0.355   0.600  17.399  0.4195 -0.3347 -0.2002
   8023SM   C1510554   0.293   0.469  17.371 -0.0022  0.4265  0.2493
   8023SM  H15A10555   0.321   0.400  17.449  1.9371 -1.7012 -2.1296
   8023SM  H15B10556   0.340   0.445  17.277 -0.5980 -0.7656  0.2404
   8023SM  H15C10557   0.185   0.469  17.367  0.0197  0.1191 -0.5449
   8023SM   C1410558   0.254   0.704  17.350  1.1146 -0.1681 -0.0723
   8023SM  H14A10559   0.292   0.801  17.376  2.8768 -0.6236 -0.8049
   8023SM  H14B10560   0.156   0.677  17.388  0.9633  0.2191 -0.1841
   8023SM  H14C10561   0.250   0.710  17.242  0.4253  0.4951 -0.0167
   8023SM   C1310562   0.373   0.621  17.542  0.5712 -0.6460 -0.1761
   8023SM  H13A10563   0.288   0.597  17.604  0.8849 -1.2453  0.0343
   8023SM  H13B10564   0.395   0.726  17.549 -2.4926  0.2715 -2.4212
   8023SM  H13C10565   0.456   0.563  17.581  2.0741  2.4931  1.6535
   8023SM   C1210566   0.487   0.618  17.331 -0.2371  0.0353 -1.4406
   8023SM  H12A10567   0.558   0.544  17.366  0.6194  1.2888 -0.4401
   8023SM  H12B10568   0.534   0.714  17.349  0.1802 -0.5717  0.9944
   8023SM   C1110569   0.497   0.587  17.182  0.1791  0.0502 -0.4948
   8023SM  H11A10570   0.581   0.649  17.145 -1.0075  2.0351 -0.0202
   8023SM  H11B10571   0.416   0.634  17.123  0.4484 -0.5818 -1.3841
   8023SM     P10572   0.631   0.375  17.123 -0.0817 -0.2187 -0.2334
   8023SM   O1310573   0.733   0.423  17.219  0.2017 -0.0258 -0.0839
   8023SM   O1410574   0.612   0.230  17.101  0.0858 -0.0470  0.5241
   8023SM   O1110575   0.662   0.445  16.985  0.2235 -0.1369  0.2636
   8023SM   O1210576   0.495   0.445  17.159  0.1740  0.0485  0.3255
   8023SM   C1S10577   0.593   0.420  16.861 -0.2326 -0.1634 -0.2891
   8023SM   H1S10578   0.486   0.450  16.863  0.1795  1.4062  1.9805
   8023SM   H1T10579   0.607   0.312  16.839 -0.6714 -0.1592 -0.5885
   8023SM    NF10580   0.578   0.473  16.617  0.3223  1.0357 -0.4889
   8023SM   HNF10581   0.613   0.410  16.548  1.4002 -1.2853  1.9881
   8023SM   C2S10582   0.661   0.488  16.734 -0.0945 -0.0854 -0.2174
   8023SM   H2S10583   0.657   0.598  16.749  0.3316 -0.1733  0.6319
   8023SM   C3S10584   0.810   0.437  16.722 -0.1415  0.8436  0.3319
   8023SM   H3S10585   0.809   0.328  16.703  1.4349  1.1070 -1.4606
   8023SM    O310586   0.894   0.455  16.833  0.4176 -0.3047 -0.0874
   8023SM   HO310587   0.822   0.492  16.886  0.3391  0.6058 -0.8119
   8023SM   C4S10588   0.881   0.501  16.612  0.5635  0.7244  0.5044
   8023SM   H4S10589   0.871   0.433  16.526 -2.1374  0.9981  0.5333
   8023SM   C5S10590   0.908   0.628  16.587 -0.3726 -0.1127 -0.3916
   8023SM   H5S10591   0.888   0.703  16.664  0.5308  1.8441 -1.9832
   8023SM   C6S10592   0.965   0.680  16.455 -0.2110  0.4427 -0.4902
   8023SM   H6S10593   1.056   0.741  16.477 -1.5455  1.5671  2.4035
   8023SM   H6T10594   0.894   0.743  16.398 -0.8716  0.9032  0.7945
   8023SM   C7S10595   0.975   0.574  16.346 -0.5627  0.5801  0.2387
   8023SM   H7S10596   0.883   0.514  16.327  0.7230 -1.4985  0.2769
   8023SM   H7T10597   1.049   0.493  16.361  1.8177  2.1795 -2.0664
   8023SM   C8S10598   1.036   0.627  16.211  0.5508 -0.3499 -0.2442
   8023SM   H8S10599   1.145   0.644  16.216  0.2682  1.7213 -0.1884
   8023SM   H8T10600   0.989   0.725  16.187 -3.1201 -2.1450 -1.1145
   8023SM   C9S10601   1.008   0.523  16.103  0.4645 -0.1115 -0.4800
   8023SM   H9S10602   0.901   0.510  16.073  0.6742  0.3298 -1.4480
   8023SM   H9T10603   1.038   0.423  16.141 -1.3674 -1.2102 -1.7909
   8023SM  C10S10604   1.081   0.563  15.973 -0.0943 -0.5005  1.1154
   8023SM  H10S10605   1.187   0.581  16.002  0.3348  1.6069 -1.3560
   8023SM  H10T10606   1.049   0.665  15.941  1.7263  0.0187  0.8036
   8023SM  C11S10607   1.073   0.468  15.850  0.7216  0.5949 -0.3405
   8023SM  H11S10608   0.969   0.438  15.826  1.0315 -2.7375  1.7304
   8023SM  H11T10609   1.121   0.373  15.881  0.3782  0.4242 -0.3267
   8023SM  C12S10610   1.138   0.519  15.722 -0.7192  0.0539  0.7265
   8023SM  H12S10611   1.225   0.580  15.755 -1.0731  0.1383  1.5261
   8023SM  H12T10612   1.072   0.576  15.653  2.6207  2.5680 -0.7044
   8023SM  C13S10613   1.194   0.414  15.621  0.1545  0.6390  0.4268
   8023SM  H13S10614   1.115   0.341  15.593 -0.0448  1.4978 -1.4609
   8023SM  H13T10615   1.271   0.353  15.672 -0.0770  0.5736  0.7012
   8023SM  C14S10616   1.243   0.481  15.502 -0.1800 -0.3897 -0.2474
   8023SM  H14S10617   1.314   0.560  15.534  0.0864 -0.6886 -0.0933
   8023SM  H14T10618   1.161   0.534  15.448  0.8712  1.4167 -0.1422
   8023SM  C15S10619   1.314   0.385  15.402  0.3835  0.1412 -0.0778
   8023SM  H15S10620   1.355   0.443  15.317 -1.0822  3.4336  1.2774
   8023SM  H15T10621   1.243   0.308  15.367  0.2140  0.3062 -0.1011
   8023SM  C16S10622   1.440   0.318  15.463  0.3953  0.0404  0.3881
   8023SM  H16S10623   1.414   0.257  15.553  0.5013 -3.0802 -1.5214
   8023SM  H16T10624   1.515   0.391  15.500  0.7877 -0.8020  1.3239
   8023SM  C17S10625   1.507   0.216  15.369  0.1342  0.5033  0.1454
   8023SM  H17S10626   1.606   0.186  15.410  0.1399 -2.3591 -1.6386
   8023SM  H17T10627   1.526   0.246  15.264  0.2254 -0.6729 -0.1899
   8023SM  C18S10628   1.436   0.082  15.364  0.0363 -0.1709 -0.0537
   8023SM  H18S10629   1.431   0.043  15.468 -1.1822  2.3357  0.9219
   8023SM  H18T10630   1.477   0.008  15.292  1.4586 -0.8578  1.3949
   8023SM  H18U10631   1.327   0.090  15.340 -0.5061  0.5816  2.3746
   8023SM   C1F10632   0.452   0.517  16.598 -0.0619  0.0580  0.4636
   8023SM    OF10633   0.405   0.601  16.681 -0.4172  0.5872  0.4109
   8023SM   C2F10634   0.380   0.474  16.478 -0.1730 -0.3994  0.2286
   8023SM   H2F10635   0.460   0.445  16.405 -0.2262  1.5794 -0.6822
   8023SM   H2G10636   0.322   0.563  16.445  3.2590  2.4247  1.0521
   8023SM   C3F10637   0.295   0.353  16.511  0.1158  0.9834 -0.0937
   8023SM   H3F10638   0.236   0.371  16.604  0.3712 -1.5721  0.6514
   8023SM   H3G10639   0.369   0.275  16.539 -0.6250  0.8258  1.5599
   8023SM   C4F10640   0.207   0.297  16.402  0.4179  0.1350  0.6584
   8023SM   H4F10641   0.171   0.374  16.331 -2.1176 -0.7811  0.8708
   8023SM   H4G10642   0.114   0.263  16.452  0.8754 -1.4408  0.5039
   8023SM   C5F10643   0.277   0.184  16.328 -0.1867  0.7291  1.2026
   8023SM   H5F10644   0.287   0.095  16.394 -1.0524 -1.0365 -0.9324
   8023SM   H5G10645   0.382   0.210  16.303  0.0994 -0.0034  1.6213
   8023SM   C6F10646   0.197   0.135  16.206  0.2309  0.2551  0.2253
   8023SM   H6F10647   0.092   0.107  16.233 -0.1842  2.0698  0.6172
   8023SM   H6G10648   0.252   0.046  16.170 -1.5447 -0.6201 -0.4948
   8023SM   C7F10649   0.186   0.245  16.094 -0.1029 -0.2080 -0.5859
   8023SM   H7F10650   0.271   0.314  16.109 -1.2436  0.9176  1.0144
   8023SM   H7G10651   0.102   0.317  16.107 -0.5296 -0.7502 -0.2541
   8023SM   C8F10652   0.150   0.184  15.957  0.1585  0.4932  0.0173
   8023SM   H8F10653   0.067   0.240  15.909  1.3770  1.2618 -1.2626
   8023SM   H8G10654   0.120   0.078  15.973  0.7610  0.3498  0.2081
   8023SM   C9F10655   0.275   0.190  15.873  0.3779 -0.2202  0.3041
   8023SM   H9F10656   0.341   0.104  15.900 -1.5028 -1.6337  0.5804
   8023SM   H9G10657   0.327   0.287  15.888  0.8330 -0.3251 -0.5380
   8023SM  C10F10658   0.248   0.171  15.721 -0.0013 -0.3151 -0.2362
   8023SM  H10F10659   0.199   0.073  15.702 -1.6559  0.5408 -0.6506
   8023SM  H10G10660   0.343   0.174  15.663 -0.3372  0.8194 -0.7549
   8023SM  C11F10661   0.169   0.288  15.650  0.1447 -0.2205 -0.9075
   8023SM  H11F10662   0.192   0.386  15.696 -0.4939 -0.5964  0.2722
   8023SM  H11G10663   0.061   0.266  15.661 -0.5223  1.4501 -3.3563
   8023SM  C12F10664   0.198   0.294  15.494  0.4584 -0.1842 -0.5347
   8023SM  H12F10665   0.308   0.307  15.498  0.2980  1.6201 -0.9914
   8023SM  H12G10666   0.151   0.378  15.438 -1.2921  1.0838  2.5828
   8023SM  C13F10667   0.193   0.163  15.419  0.2036  0.5894  0.0916
   8023SM  H13F10668   0.248   0.080  15.469  0.4573  1.4971  1.3388
   8023SM  H13G10669   0.247   0.178  15.323 -2.0905 -0.3710 -1.4447
   8023SM  C14F10670   0.051   0.106  15.390 -0.1695  0.4651 -0.4211
   8023SM  H14F10671   0.006   0.175  15.316 -2.7007 -0.8604 -0.2293
   8023SM  H14G10672  -0.003   0.101  15.488  0.0526  0.0892 -0.3160
   8023SM  C15F10673   0.055  -0.038  15.326 -0.5806 -0.4297 -0.4956
   8023SM  H15F10674   0.135  -0.039  15.249  0.8823 -0.9766  0.9558
   8023SM  H15G10675  -0.038  -0.067  15.274 -1.9595  1.9586  0.4987
   8023SM  C16F10676   0.094  -0.152  15.423  0.0235 -0.2054 -0.4997
   8023SM  H16F10677   0.009  -0.154  15.495 -0.4286  0.4874 -1.0040
   8023SM  H16G10678   0.183  -0.133  15.487  0.8547  3.5594 -2.4935
   8023SM  C17F10679   0.132  -0.279  15.336  0.0079 -0.1706  0.3453
   8023SM  H17F10680   0.161  -0.358  15.409 -0.3809 -0.2294  0.4386
   8023SM  H17G10681   0.226  -0.262  15.280  0.7761 -2.4708  0.8235
   8023SM  C18F10682   0.023  -0.333  15.246 -0.5375  0.1281 -0.0456
   8023SM  H18F10683   0.008  -0.257  15.166 -0.4860  0.3307  0.1382
   8023SM  H18G10684  -0.070  -0.346  15.305 -0.7596 -2.3239 -0.7855
   8023SM  C19F10685   0.069  -0.472  15.192  0.4221  0.5061  0.4919
   8023SM  H19F10686   0.076  -0.543  15.277  0.2680  0.1637  0.2204
   8023SM  H19G10687   0.173  -0.477  15.154 -0.1971 -0.8250 -1.1939
   8023SM  C20F10688  -0.029  -0.521  15.080 -0.7751 -0.0273  0.0707
   8023SM  H20F10689  -0.016  -0.451  14.994 -4.1905  0.3915 -0.2656
   8023SM  H20G10690  -0.133  -0.514  15.120  0.2179  1.6550  2.6188
   8023SM  C21F10691   0.026  -0.656  15.038  1.1591 -0.1620 -0.1114
   8023SM  H21F10692   0.022  -0.717  15.131 -1.1403 -0.8167 -0.5887
   8023SM  H21G10693   0.130  -0.648  14.999  1.0364 -1.4522 -0.7342
   8023SM  C22F10694  -0.057  -0.723  14.929 -0.0291  0.4654  0.0316
   8023SM  H22F10695  -0.163  -0.740  14.956 -0.2795  0.1887 -1.0841
   8023SM  H22G10696  -0.013  -0.824  14.911 -1.3130 -0.1913  0.4363
   8023SM  C23F10697  -0.060  -0.641  14.796 -0.3691  0.6771 -0.6368
   8023SM  H23F10698   0.043  -0.601  14.783  0.8200 -1.1535  2.0136
   8023SM  H23G10699  -0.138  -0.562  14.794 -1.9889 -0.7027  2.1144
   8023SM  H23H10700  -0.085  -0.710  14.714  1.5068  0.9412 -1.4764
   8123SM     N10701   4.093   3.237  12.674  0.1676 -0.3453 -0.7814
   8123SM   C1510702   4.166   3.105  12.641 -0.7604 -0.7580 -0.4039
   8123SM  H15A10703   4.100   3.029  12.601  0.5882 -2.4043  0.3423
   8123SM  H15B10704   4.211   3.065  12.731  1.0750 -0.1256 -0.9779
   8123SM  H15C10705   4.249   3.128  12.575 -1.0845  1.1403 -0.2006
   8123SM   C1410706   4.186   3.327  12.744  0.0576  0.3511  0.5333
   8123SM  H14A10707   4.209   3.287  12.841  1.3186  1.2679  0.6451
   8123SM  H14B10708   4.135   3.422  12.752 -0.7779 -0.0888  0.5271
   8123SM  H14C10709   4.274   3.351  12.685 -1.3435  2.2164 -0.9610
   8123SM   C1310710   4.071   3.308  12.543 -0.1542 -0.1785  0.1266
   8123SM  H13A10711   3.981   3.368  12.540 -1.1663 -1.5607 -3.3992
   8123SM  H13B10712   4.051   3.239  12.462 -0.3159  0.0543 -0.0370
   8123SM  H13C10713   4.162   3.361  12.520 -0.8277  0.3233 -1.5608
   8123SM   C1210714   3.960   3.212  12.750 -0.7003 -0.5520 -0.0888
   8123SM  H12A10715   3.918   3.309  12.772  2.3906  1.1424 -0.9255
   8123SM  H12B10716   3.986   3.172  12.847  0.2717  1.6088  0.6253
   8123SM   C1110717   3.853   3.110  12.697  0.5443 -0.1417 -0.5313
   8123SM  H11A10718   3.775   3.101  12.776 -0.0856  1.8214 -0.8909
   8123SM  H11B10719   3.913   3.016  12.691  2.4340  0.7728  1.9729
   8123SM     P10720   3.668   3.225  12.552 -0.2013 -0.4339  0.4776
   8123SM   O1310721   3.710   3.364  12.516  0.4893 -0.1872 -0.5721
   8123SM   O1410722   3.572   3.157  12.457  0.3245 -0.2187 -0.0385
   8123SM   O1110723   3.607   3.229  12.695  0.5142 -0.0761  0.0959
   8123SM   O1210724   3.793   3.133  12.571 -0.1891  0.1621  0.7235
   8123SM   C1S10725   3.477   3.187  12.739 -0.1225 -0.1856  0.9057
   8123SM   H1S10726   3.448   3.098  12.679  1.7186 -1.2590  1.5283
   8123SM   H1T10727   3.397   3.263  12.722 -1.4099 -1.8036 -0.6699
   8123SM    NF10728   3.357   3.077  12.929 -0.6912  0.1590  0.1681
   8123SM   HNF10729   3.291   3.119  12.991 -0.6475  0.6590 -0.1223
   8123SM   C2S10730   3.479   3.144  12.885  0.0654  0.4174 -0.3959
   8123SM   H2S10731   3.563   3.071  12.892 -1.0457 -0.7154  3.0347
   8123SM   C3S10732   3.507   3.262  12.982  0.6396 -0.4570  0.0686
   8123SM   H3S10733   3.407   3.309  12.990  1.5345  1.7613 -0.8428
   8123SM    O310734   3.588   3.368  12.932 -0.5930 -0.4331  0.0775
   8123SM   HO310735   3.600   3.339  12.841 -3.9021  0.4071 -0.7714
   8123SM   C4S10736   3.554   3.206  13.116 -0.4675 -0.3671 -0.1645
   8123SM   H4S10737   3.469   3.192  13.185  0.4018 -0.1427  0.9975
   8123SM   C5S10738   3.686   3.193  13.153  0.4790 -0.0664  0.1035
   8123SM   H5S10739   3.762   3.217  13.076  2.6259 -1.4156  1.6860
   8123SM   C6S10740   3.756   3.145  13.283 -0.0365 -0.0109 -0.1552
   8123SM   H6S10741   3.822   3.227  13.318  0.5070  1.2067 -3.6092
   8123SM   H6T10742   3.822   3.057  13.263 -2.2398 -2.1669  1.5542
   8123SM   C7S10743   3.642   3.114  13.384 -0.0820  0.1874  0.2085
   8123SM   H7S10744   3.584   3.023  13.358  0.5781  0.4670 -2.5622
   8123SM   H7T10745   3.570   3.199  13.384 -0.5595 -0.2038  0.9072
   8123SM   C8S10746   3.691   3.100  13.528  0.2494  0.0885  0.5401
   8123SM   H8S10747   3.751   3.190  13.551  1.2943 -0.5906  0.5035
   8123SM   H8T10748   3.738   3.001  13.544 -2.7488 -1.5007  0.2524
   8123SM   C9S10749   3.566   3.111  13.619  0.0968  0.5212  0.4472
   8123SM   H9S10750   3.503   3.021  13.605  0.5120  0.1060  1.1421
   8123SM   H9T10751   3.502   3.196  13.586 -0.3035  0.5759  1.3247
   8123SM  C10S10752   3.606   3.137  13.763  0.7383  0.2391 -0.4405
   8123SM  H10S10753   3.643   3.241  13.775 -1.7289  1.1980 -0.5767
   8123SM  H10T10754   3.683   3.062  13.792 -0.3925 -1.0041 -0.5659
   8123SM  C11S10755   3.486   3.113  13.862 -0.3201  0.2431  0.2400
   8123SM  H11S10756   3.465   3.009  13.827 -0.0408 -0.1213  1.1310
   8123SM  H11T10757   3.394   3.172  13.844  0.0753  0.8620  0.2267
   8123SM  C12S10758   3.514   3.116  14.009 -0.1444  0.0541  0.4608
   8123SM  H12S10759   3.524   3.221  14.043  1.7627  0.9968 -2.5934
   8123SM  H12T10760   3.607   3.062  14.037  0.7881  1.0362 -0.6687
   8123SM  C13S10761   3.410   3.044  14.096  0.6260 -0.2024  0.2929
   8123SM  H13S10762   3.383   2.942  14.060 -2.7175  0.3885  0.7417
   8123SM  H13T10763   3.315   3.102  14.091  0.0346 -1.0789  1.0327
   8123SM  C14S10764   3.461   3.042  14.242 -0.3294 -0.2404  0.3202
   8123SM  H14S10765   3.502   3.143  14.263  0.6600 -0.1655 -1.7312
   8123SM  H14T10766   3.539   2.963  14.252  1.6046  1.6795  1.1516
   8123SM  C15S10767   3.358   3.011  14.350 -0.2568  0.6902 -0.9490
   8123SM  H15S10768   3.312   2.911  14.335  1.9370 -0.5151 -0.2229
   8123SM  H15T10769   3.275   3.083  14.366  0.1450  0.7064  1.5211
   8123SM  C16S10770   3.423   2.994  14.494 -0.3056 -0.4245  0.5969
   8123SM  H16S10771   3.506   2.921  14.489  0.9933  0.9866  0.5086
   8123SM  H16T10772   3.342   2.961  14.561  0.9043 -1.2670  1.6880
   8123SM  C17S10773   3.468   3.125  14.554 -0.1153  0.3675  0.1195
   8123SM  H17S10774   3.374   3.183  14.567 -0.8584 -0.8310  0.2417
   8123SM  H17T10775   3.541   3.184  14.494  0.2340 -0.5709 -0.4042
   8123SM  C18S10776   3.532   3.100  14.693  0.7058  0.7673 -0.2308
   8123SM  H18S10777   3.467   3.051  14.768 -0.4977  1.2863 -0.9071
   8123SM  H18T10778   3.575   3.192  14.736  1.2592  0.9767 -1.1913
   8123SM  H18U10779   3.614   3.027  14.674  2.3675  2.5142 -0.0712
   8123SM   C1F10780   3.331   2.957  12.885  0.4426 -0.1204  0.1017
   8123SM    OF10781   3.397   2.897  12.800  0.7330 -0.1269 -0.1061
   8123SM   C2F10782   3.214   2.889  12.957  0.0032 -0.4604  0.3609
   8123SM   H2F10783   3.121   2.947  12.943 -0.9687 -1.4735  2.3257
   8123SM   H2G10784   3.243   2.890  13.065 -0.2536  2.0227  0.4509
   8123SM   C3F10785   3.191   2.744  12.898  0.4811  0.1365  0.3667
   8123SM   H3F10786   3.285   2.685  12.894  0.0325 -1.1231  4.1886
   8123SM   H3G10787   3.157   2.749  12.792  3.4529 -1.5104 -0.7633
   8123SM   C4F10788   3.094   2.661  12.982 -0.2151  0.1780  0.7311
   8123SM   H4F10789   3.053   2.577  12.922  1.7637  1.7087 -3.0534
   8123SM   H4G10790   3.013   2.728  13.020  0.4729  0.9858  0.7865
   8123SM   C5F10791   3.150   2.612  13.113  0.2946  0.3741 -0.6990
   8123SM   H5F10792   3.195   2.696  13.170 -0.7764 -0.3827  1.3712
   8123SM   H5G10793   3.211   2.521  13.097  0.8182  0.5447  0.2830
   8123SM   C6F10794   3.038   2.555  13.212  0.2811 -0.0029  0.1397
   8123SM   H6F10795   3.087   2.491  13.289  2.9168  0.4956 -0.9974
   8123SM   H6G10796   2.973   2.486  13.155 -0.3633  0.6288  0.0929
   8123SM   C7F10797   2.949   2.662  13.284 -0.1689 -0.2898  0.4405
   8123SM   H7F10798   2.886   2.716  13.211 -0.3398 -2.9218 -1.5218
   8123SM   H7G10799   3.025   2.734  13.322 -0.4158  0.1371  0.1228
   8123SM   C8F10800   2.864   2.615  13.403  0.0246 -0.5134  0.0739
   8123SM   H8F10801   2.936   2.569  13.475  2.9229  2.3145 -0.7372
   8123SM   H8G10802   2.793   2.533  13.377 -1.1775  0.5441 -0.0573
   8123SM   C9F10803   2.803   2.742  13.464  0.4188  0.2865  0.4141
   8123SM   H9F10804   2.749   2.805  13.390  1.4860 -1.1592 -1.7376
   8123SM   H9G10805   2.876   2.818  13.499  0.4370  1.8752 -2.6707
   8123SM  C10F10806   2.699   2.698  13.566  0.3356  0.3111 -0.0368
   8123SM  H10F10807   2.613   2.637  13.529  1.3645 -1.2420  0.0183
   8123SM  H10G10808   2.653   2.788  13.612  0.1069 -0.4065  1.1830
   8123SM  C11F10809   2.757   2.610  13.680 -0.0095  0.2591 -0.0239
   8123SM  H11F10810   2.857   2.641  13.715  0.5288 -1.5894  0.2295
   8123SM  H11G10811   2.782   2.511  13.636  0.4871 -0.1924  1.2355
   8123SM  C12F10812   2.660   2.579  13.796 -0.2126  0.5152  0.0235
   8123SM  H12F10813   2.557   2.549  13.769  0.0683 -1.0356  0.5519
   8123SM  H12G10814   2.643   2.668  13.861  0.7094 -1.1834  2.7628
   8123SM  C13F10815   2.701   2.451  13.877  0.5253  0.9434 -0.5850
   8123SM  H13F10816   2.755   2.383  13.808 -2.2565 -2.1942  0.0589
   8123SM  H13G10817   2.608   2.405  13.917  0.8681 -0.8406 -1.7459
   8123SM  C14F10818   2.807   2.488  13.984  0.0988 -0.1929 -0.4645
   8123SM  H14F10819   2.762   2.562  14.054 -2.0441 -0.7811 -1.1322
   8123SM  H14G10820   2.902   2.515  13.934  0.6966 -0.9496  0.2377
   8123SM  C15F10821   2.831   2.366  14.078  0.0057  0.6474  0.4973
   8123SM  H15F10822   2.848   2.272  14.022  0.1338  2.0749 -2.0403
   8123SM  H15G10823   2.726   2.352  14.112 -1.0230  0.9423 -2.2659
   8123SM  C16F10824   2.943   2.404  14.178  0.3935 -0.1082 -0.4785
   8123SM  H16F10825   2.941   2.509  14.214 -0.6177 -0.5650  0.8659
   8123SM  H16G10826   3.038   2.386  14.124  0.1049  0.3841 -1.1738
   8123SM  C17F10827   2.945   2.303  14.296  0.3039  0.6265 -0.0297
   8123SM  H17F10828   2.864   2.325  14.369  1.6256  1.0693  1.3554
   8123SM  H17G10829   3.045   2.300  14.346  1.3380  2.7761 -1.7710
   8123SM  C18F10830   2.940   2.155  14.252 -0.0043 -0.2431  0.2759
   8123SM  H18F10831   3.019   2.117  14.184 -0.5318  0.9476 -1.0683
   8123SM  H18G10832   2.844   2.137  14.198  1.1386 -0.2936 -1.8427
   8123SM  C19F10833   2.930   2.062  14.376  0.5122  0.2762 -0.3872
   8123SM  H19F10834   3.004   2.094  14.452 -0.7441  2.8407 -0.1153
   8123SM  H19G10835   2.928   1.955  14.347 -0.0221  0.0448  0.4690
   8123SM  C20F10836   2.781   2.073  14.435 -0.6412 -0.2287 -0.5134
   8123SM  H20F10837   2.709   2.053  14.354  1.3009 -1.7840 -1.9404
   8123SM  H20G10838   2.769   2.168  14.492 -0.8007 -0.8036  0.4317
   8123SM  C21F10839   2.761   1.976  14.551  0.2011 -0.9840 -0.5947
   8123SM  H21F10840   2.832   2.000  14.633 -1.3817  1.1519  0.2306
   8123SM  H21G10841   2.782   1.875  14.509  0.6745 -0.0192 -2.8233
   8123SM  C22F10842   2.616   1.979  14.603  0.1571  0.1370 -0.0967
   8123SM  H22F10843   2.550   1.994  14.515 -2.2749  0.5355  1.6898
   8123SM  H22G10844   2.625   2.068  14.670  1.3191 -0.6126  0.7832
   8123SM  C23F10845   2.585   1.852  14.685  0.1591  0.3986  0.0556
   8123SM  H23F10846   2.581   1.764  14.618  1.5313 -1.3622  2.1324
   8123SM  H23G10847   2.490   1.877  14.737 -0.0885  1.2026 -0.7843
   8123SM  H23H10848   2.657   1.833  14.768 -1.7907 -2.1407  1.3028
   8223SM     N10849   2.903   3.510  12.458  0.1559 -1.2139 -0.1155
   8223SM   C1510850   2.889   3.508  12.306  0.1875 -0.3123  0.8070
   8223SM  H15A10851   2.952   3.567  12.241 -3.4393  0.5555 -2.3056
   8223SM  H15B10852   2.795   3.553  12.281 -1.2702 -3.7056 -0.5154
   8223SM  H15C10853   2.881   3.407  12.267  0.6514 -0.1402  0.2419
   8223SM   C1410854   2.787   3.456  12.531  0.0586 -0.4515 -0.2580
   8223SM  H14A10855   2.702   3.522  12.519  2.5500  3.0793  0.0108
   8223SM  H14B10856   2.818   3.471  12.634  1.4751  0.8483 -0.8485
   8223SM  H14C10857   2.770   3.351  12.516 -1.6772  0.2633 -4.3702
   8223SM   C1310858   3.030   3.433  12.486 -0.3928 -0.5669 -0.1752
   8223SM  H13A10859   3.047   3.427  12.592  1.9064 -1.0931 -0.5354
   8223SM  H13B10860   3.116   3.478  12.439  1.4248 -2.2088  1.4069
   8223SM  H13C10861   3.017   3.337  12.439  0.3894 -0.3976 -0.7474
   8223SM   C1210862   2.931   3.654  12.502  0.3981  0.5659  0.0614
   8223SM  H12A10863   2.847   3.718  12.479 -0.9544 -1.5145 -1.1359
   8223SM  H12B10864   3.001   3.703  12.436  0.1755  0.5266 -0.2063
   8223SM   C1110865   2.976   3.683  12.646 -0.3088  0.5418  0.2497
   8223SM  H11A10866   2.942   3.602  12.713 -0.5927  1.5638  1.3717
   8223SM  H11B10867   2.925   3.772  12.689  0.8629  0.9750  0.7737
   8223SM     P10868   3.200   3.812  12.632  0.3755 -0.8144  0.2479
   8223SM   O1310869   3.332   3.763  12.652 -0.0096 -0.3847 -0.2136
   8223SM   O1410870   3.177   3.873  12.503 -0.3336  0.1969  0.0429
   8223SM   O1110871   3.162   3.909  12.747  0.4437 -0.0752 -0.1131
   8223SM   O1210872   3.109   3.685  12.655 -0.1458  0.0719  0.7768
   8223SM   C1S10873   3.140   3.870  12.880  0.0279 -0.0630 -0.3362
   8223SM   H1S10874   3.139   3.759  12.877 -0.0600 -0.0580 -0.5181
   8223SM   H1T10875   3.047   3.905  12.929  0.5505 -0.8951  1.2920
   8223SM    NF10876   3.254   3.826  13.099 -0.2041 -0.2548 -0.4186
   8223SM   HNF10877   3.223   3.871  13.183  1.1579 -1.4762  0.7973
   8223SM   C2S10878   3.260   3.900  12.974 -0.0918 -1.1280  0.0872
   8223SM   H2S10879   3.349   3.865  12.918 -0.4808  0.8645 -1.9517
   8223SM   C3S10880   3.281   4.059  12.984  0.3209 -0.4074  0.1585
   8223SM   H3S10881   3.205   4.106  13.049  0.0041  0.9353 -1.1261
   8223SM    O310882   3.280   4.119  12.854  0.5784 -0.0738  0.4049
   8223SM   HO310883   3.266   4.047  12.793 -3.4258  2.5047 -2.1718
   8223SM   C4S10884   3.413   4.095  13.042 -0.7122  0.2958 -0.4346
   8223SM   H4S10885   3.492   4.062  12.973 -0.4137 -1.2032  0.5458
   8223SM   C5S10886   3.441   4.149  13.165 -0.6124 -0.0674  0.2975
   8223SM   H5S10887   3.365   4.177  13.239 -1.3164 -2.1550  0.4310
   8223SM   C6S10888   3.586   4.158  13.213  0.7588 -0.2537 -0.1594
   8223SM   H6S10889   3.622   4.263  13.217 -1.4125  0.5414 -0.0715
   8223SM   H6T10890   3.654   4.111  13.139  3.6127  1.5343  1.1617
   8223SM   C7S10891   3.609   4.076  13.343 -0.1649  0.5592 -0.2622
   8223SM   H7S10892   3.719   4.065  13.348 -0.0880  0.1004 -2.1675
   8223SM   H7T10893   3.576   3.971  13.341  0.9475  0.1705  0.5906
   8223SM   C8S10894   3.563   4.149  13.470 -0.1474  0.0705  0.3884
   8223SM   H8S10895   3.453   4.162  13.464 -0.2789 -1.3917 -0.8114
   8223SM   H8T10896   3.604   4.253  13.469 -2.0439  0.8542  0.2077
   8223SM   C9S10897   3.596   4.077  13.597 -0.0428  0.1634  0.0333
   8223SM   H9S10898   3.695   4.027  13.583  0.0784  0.4540 -0.1614
   8223SM   H9T10899   3.517   3.999  13.598 -2.6546  2.6499  0.4065
   8223SM  C10S10900   3.584   4.160  13.722 -0.2217 -0.9112  0.5777
   8223SM  H10S10901   3.496   4.226  13.706 -0.7446 -1.6389  0.4161
   8223SM  H10T10902   3.673   4.225  13.715 -0.4481 -0.7757 -1.8467
   8223SM  C11S10903   3.575   4.087  13.853 -0.6132  0.2455 -0.3270
   8223SM  H11S10904   3.664   4.021  13.856 -0.5471  0.2100 -2.1022
   8223SM  H11T10905   3.494   4.012  13.848  0.6630 -1.1218 -1.1809
   8223SM  C12S10906   3.560   4.188  13.967  0.5063  1.0382  0.1482
   8223SM  H12S10907   3.472   4.254  13.952 -0.2148  0.5264  1.7981
   8223SM  H12T10908   3.648   4.254  13.976  0.9033  0.4909  0.3148
   8223SM  C13S10909   3.544   4.127  14.108  0.4919  0.0355 -0.0305
   8223SM  H13S10910   3.631   4.058  14.108  1.3541  1.1085 -0.3488
   8223SM  H13T10911   3.451   4.066  14.107  1.5719 -1.6814 -0.8355
   8223SM  C14S10912   3.560   4.232  14.221 -0.0612 -0.5973  0.6866
   8223SM  H14S10913   3.504   4.326  14.202  0.2465 -0.4301  0.6019
   8223SM  H14T10914   3.667   4.262  14.213  0.2831 -1.5397  1.5264
   8223SM  C15S10915   3.546   4.176  14.365 -0.1365  0.8619  0.0712
   8223SM  H15S10916   3.562   4.267  14.427 -1.3001  0.6968  0.6472
   8223SM  H15T10917   3.635   4.111  14.369 -1.4095 -0.9025  0.8003
   8223SM  C16S10918   3.421   4.095  14.402 -0.1069  0.0525  0.5664
   8223SM  H16S10919   3.410   4.017  14.324  2.3917 -0.6294  0.8099
   8223SM  H16T10920   3.326   4.152  14.397 -0.2806 -0.2621  0.2317
   8223SM  C17S10921   3.426   4.041  14.549  0.1460  0.4275  0.0921
   8223SM  H17S10922   3.439   4.126  14.619 -0.8597  0.9811 -0.3685
   8223SM  H17T10923   3.511   3.971  14.564  0.1400  0.5124  0.5279
   8223SM  C18S10924   3.301   3.972  14.587  0.0007  0.4283 -0.4957
   8223SM  H18S10925   3.214   4.041  14.576 -0.5589 -0.0003  0.9451
   8223SM  H18T10926   3.306   3.944  14.694  0.1525 -0.2615 -0.6778
   8223SM  H18U10927   3.295   3.880  14.525  1.1878  2.2653 -3.5711
   8223SM   C1F10928   3.265   3.697  13.108  0.5149  0.2967  0.7436
   8223SM    OF10929   3.326   3.639  13.023  0.2471  0.5105  0.0700
   8223SM   C2F10930   3.202   3.630  13.221 -0.3325  0.0641 -0.0655
   8223SM   H2F10931   3.094   3.621  13.197 -0.4058  2.0132 -0.6433
   8223SM   H2G10932   3.206   3.687  13.317 -2.3437 -0.8636  0.6272
   8223SM   C3F10933   3.276   3.494  13.230 -0.1180  0.0130 -0.7642
   8223SM   H3F10934   3.381   3.514  13.262  0.0657 -1.0508 -0.6809
   8223SM   H3G10935   3.280   3.442  13.132 -0.8067 -0.2894 -0.6383
   8223SM   C4F10936   3.212   3.400  13.331  0.2459  0.0968 -0.2491
   8223SM   H4F10937   3.258   3.301  13.307  1.3869  0.1598  1.4736
   8223SM   H4G10938   3.104   3.415  13.314  0.2558  0.8327  0.2804
   8223SM   C5F10939   3.247   3.441  13.479 -0.5396 -0.9559  0.4049
   8223SM   H5F10940   3.238   3.550  13.498  0.4217 -0.6315 -0.8753
   8223SM   H5G10941   3.350   3.399  13.490  0.7728  1.1838 -2.3751
   8223SM   C6F10942   3.165   3.360  13.579 -0.2165  0.3915  0.3378
   8223SM   H6F10943   3.164   3.252  13.553  0.7930  0.8917 -2.0245
   8223SM   H6G10944   3.063   3.400  13.564  0.2340  0.8775 -1.7632
   8223SM   C7F10945   3.205   3.383  13.731  0.4163 -0.2225  0.1241
   8223SM   H7F10946   3.199   3.494  13.738 -1.9727 -0.2765 -0.2251
   8223SM   H7G10947   3.312   3.354  13.742  0.3542 -0.4702  0.0897
   8223SM   C8F10948   3.117   3.324  13.848  0.1114  0.0763 -0.2912
   8223SM   H8F10949   3.137   3.216  13.832 -1.8284  0.0197 -3.0312
   8223SM   H8G10950   3.008   3.333  13.830  0.2817 -0.3582 -1.6679
   8223SM   C9F10951   3.151   3.371  13.989  0.0678  0.7857  0.1712
   8223SM   H9F10952   3.162   3.482  13.993  1.4680  0.6402  1.6453
   8223SM   H9G10953   3.244   3.319  14.022 -1.5503 -1.8807  0.8787
   8223SM  C10F10954   3.040   3.322  14.088 -0.4395  0.3208  0.3304
   8223SM  H10F10955   3.040   3.212  14.075  0.8849  0.4179 -0.6215
   8223SM  H10G10956   2.942   3.362  14.054 -0.7689 -0.4140  0.3969
   8223SM  C11F10957   3.074   3.361  14.229  0.5486 -0.1978 -0.6826
   8223SM  H11F10958   3.114   3.463  14.250 -0.2348  0.0654 -0.4174
   8223SM  H11G10959   3.156   3.290  14.251  0.0766 -1.1440 -1.9013
   8223SM  C12F10960   2.959   3.339  14.324  0.1641 -0.4608 -0.7827
   8223SM  H12F10961   2.903   3.245  14.307 -0.7241 -0.1235  0.1889
   8223SM  H12G10962   2.885   3.422  14.320  1.4027  0.8133  1.1839
   8223SM  C13F10963   3.010   3.340  14.463 -0.0428  0.1950 -0.1454
   8223SM  H13F10964   3.075   3.427  14.483 -0.3332  0.1179  1.2376
   8223SM  H13G10965   3.065   3.248  14.490 -0.7122 -0.3701 -0.6715
   8223SM  C14F10966   2.893   3.354  14.556  0.5181  0.3118 -0.3903
   8223SM  H14F10967   2.835   3.259  14.550  0.6602  0.2064 -0.1029
   8223SM  H14G10968   2.824   3.433  14.520  0.0848 -0.9238 -2.4320
   8223SM  C15F10969   2.950   3.387  14.695 -0.9791  0.4362 -0.0519
   8223SM  H15F10970   2.997   3.487  14.700  1.8220 -0.8493  1.0690
   8223SM  H15G10971   3.028   3.315  14.728  1.2292  2.5012 -0.5268
   8223SM  C16F10972   2.835   3.371  14.801 -0.3402  0.5484  1.1074
   8223SM  H16F10973   2.785   3.275  14.777 -0.3390  0.6033  0.8857
   8223SM  H16G10974   2.760   3.453  14.793 -0.3491  0.4485  0.0074
   8223SM  C17F10975   2.883   3.341  14.947  0.2780 -0.0209 -0.5401
   8223SM  H17F10976   2.983   3.293  14.961 -0.5660 -1.9188 -0.7594
   8223SM  H17G10977   2.805   3.288  15.005  0.9726  0.9642  1.3916
   8223SM  C18F10978   2.892   3.473  15.015 -0.6655 -0.1048  0.1278
   8223SM  H18F10979   2.792   3.522  15.018 -1.1024 -1.0100  0.8159
   8223SM  H18G10980   2.952   3.541  14.951 -0.5225 -0.9226 -0.6410
   8223SM  C19F10981   2.967   3.466  15.151 -0.2366 -0.3643  0.8525
   8223SM  H19F10982   3.061   3.413  15.125  0.0506  0.6907 -0.3401
   8223SM  H19G10983   2.916   3.401  15.225  1.6721 -1.4328  1.2784
   8223SM  C20F10984   3.000   3.611  15.209  0.7902 -0.1241  0.6396
   8223SM  H20F10985   3.039   3.599  15.313 -1.8046 -1.4871  1.5290
   8223SM  H20G10986   2.909   3.673  15.221  0.4698 -0.2703 -0.8077
   8223SM  C21F10987   3.106   3.690  15.125  0.6414  0.5221 -0.4002
   8223SM  H21F10988   3.078   3.700  15.018 -0.8559  0.2699 -0.0594
   8223SM  H21G10989   3.202   3.636  15.134  0.5803  0.6490  1.4474
   8223SM  C22F10990   3.134   3.823  15.196 -0.1020 -0.2503  0.0939
   8223SM  H22F10991   3.179   3.812  15.297 -1.1819 -1.4957  0.4683
   8223SM  H22G10992   3.031   3.863  15.203  0.3434  1.3106 -1.4871
   8223SM  C23F10993   3.226   3.916  15.120 -0.1225  0.2831  0.3007
   8223SM  H23F10994   3.177   3.955  15.028 -1.9993 -0.2813  1.0224
   8223SM  H23G10995   3.319   3.868  15.081  0.7208  2.7553 -0.9737
   8223SM  H23H10996   3.246   4.007  15.180 -0.0853  0.7761 -0.4390
   8323SM     N10997   4.639   4.729  12.654 -0.1616 -0.0797 -0.3622
   8323SM   C1510998   4.643   4.858  12.729 -0.2846  0.7790 -0.6863
   8323SM  H15A10999   4.590   4.937  12.677  1.2949  1.8970 -0.6871
   8323SM  H15B11000   4.742   4.900  12.744 -0.9698  2.3793 -0.4144
   8323SM  H15C11001   4.593   4.848  12.823 -1.2265  2.0216 -1.0298
   8323SM   C1411002   4.506   4.687  12.609 -0.4821  0.0958 -0.3775
   8323SM  H14A11003   4.443   4.666  12.694 -0.0803 -1.4865 -0.4277
   8323SM  H14B11004   4.519   4.591  12.560  1.5328 -0.8360  1.7414
   8323SM  H14C11005   4.462   4.755  12.539 -0.6214  1.4565  0.9885
   8323SM   C1311006   4.726   4.744  12.531 -0.7385  0.0290 -0.1192
   8323SM  H13A11007   4.683   4.825  12.474  0.4094  0.3232 -0.5941
   8323SM  H13B11008   4.724   4.654  12.473 -1.9185 -0.6041  0.8552
   8323SM  H13C11009   4.828   4.766  12.558 -0.6783  0.8029 -0.9253
   8323SM   C1211010   4.695   4.612  12.739  0.8672  0.4070  0.0471
   8323SM  H12A11011   4.792   4.645  12.774  0.3826  3.3114 -1.0760
   8323SM  H12B11012   4.687   4.525  12.675 -0.8218 -0.0909  0.8826
   8323SM   C1111013   4.641   4.578  12.883 -0.2954 -0.1596  0.8903
   8323SM  H11A11014   4.673   4.665  12.944  0.4751 -0.1283  0.4518
   8323SM  H11B11015   4.694   4.485  12.910  3.4674  1.5002 -0.0749
   8323SM     P11016   4.406   4.639  12.964  0.0728  0.2684 -0.1988
   8323SM   O1311017   4.449   4.777  12.942 -0.3730 -0.3551  0.1295
   8323SM   O1411018   4.264   4.606  12.934  0.1477 -0.4822  0.2211
   8323SM   O1111019   4.440   4.587  13.111 -0.2638  0.1386  0.3034
   8323SM   O1211020   4.503   4.558  12.868  0.3582  0.1821 -0.2240
   8323SM   C1S11021   4.442   4.444  13.119 -0.2349 -0.0906 -0.5560
   8323SM   H1S11022   4.537   4.401  13.082 -2.3075 -2.8932 -3.2138
   8323SM   H1T11023   4.364   4.398  13.053  1.1873 -1.3921 -1.3962
   8323SM    NF11024   4.421   4.228  13.258  0.2343 -0.2243  0.1192
   8323SM   HNF11025   4.343   4.179  13.296 -0.9284  0.6961 -0.9970
   8323SM   C2S11026   4.408   4.378  13.258 -0.4662 -0.6361 -0.5064
   8323SM   H2S11027   4.484   4.426  13.323  0.9786 -0.1784 -2.4293
   8323SM   C3S11028   4.266   4.432  13.306  0.1639 -0.5742  0.4246
   8323SM   H3S11029   4.186   4.388  13.243 -1.1476  1.0930  0.8334
   8323SM    O311030   4.239   4.571  13.279  0.2130  0.3910 -0.5475
   8323SM   HO311031   4.308   4.585  13.214  0.6459  2.7901  0.3301
   8323SM   C4S11032   4.229   4.399  13.452 -0.7651  0.4186 -0.4622
   8323SM   H4S11033   4.171   4.308  13.472 -2.0017  1.2241 -0.2578
   8323SM   C5S11034   4.275   4.476  13.558 -0.5338  0.4762  0.1836
   8323SM   H5S11035   4.335   4.566  13.534 -1.6124  1.5789  1.4643
   8323SM   C6S11036   4.246   4.451  13.703  0.0225  0.7766 -0.2416
   8323SM   H6S11037   4.236   4.552  13.748  0.9225  2.3486 -3.2820
   8323SM   H6T11038   4.340   4.409  13.743 -1.1688 -0.5075  1.3481
   8323SM   C7S11039   4.142   4.341  13.737 -0.2545 -0.8638  0.1336
   8323SM   H7S11040   4.166   4.248  13.681  2.8457  0.2376 -0.6084
   8323SM   H7T11041   4.036   4.370  13.719 -1.0673 -3.5956  0.0752
   8323SM   C8S11042   4.146   4.296  13.890  0.2155 -0.3228  0.1548
   8323SM   H8S11043   4.164   4.380  13.960  0.8033 -1.1798  1.0477
   8323SM   H8T11044   4.228   4.224  13.910 -0.2213 -1.2241 -1.1644
   8323SM   C9S11045   4.009   4.224  13.926  0.0790 -0.5772  0.4233
   8323SM   H9S11046   3.994   4.133  13.863  0.3407 -0.7901  0.6656
   8323SM   H9T11047   3.924   4.290  13.901  1.3331  1.7687  2.0478
   8323SM  C10S11048   4.002   4.183  14.075  0.4027 -0.3175  0.3189
   8323SM  H10S11049   4.098   4.128  14.082  0.0983 -0.7546  1.3033
   8323SM  H10T11050   3.916   4.114  14.090 -1.1746  1.3293 -0.6830
   8323SM  C11S11051   4.005   4.282  14.179  0.1265  0.0438 -0.0516
   8323SM  H11S11052   3.919   4.352  14.170 -0.3601 -0.5043  0.2601
   8323SM  H11T11053   4.101   4.336  14.175 -0.8180  1.7050 -1.6426
   8323SM  C12S11054   3.993   4.207  14.317  0.2579  0.2300 -0.2491
   8323SM  H12S11055   4.078   4.139  14.340 -0.1086 -0.2431 -0.2843
   8323SM  H12T11056   3.904   4.141  14.310 -0.3437  1.1049 -1.1580
   8323SM  C13S11057   3.976   4.307  14.427  0.1592  0.3166 -0.4395
   8323SM  H13S11058   3.892   4.377  14.406  1.1721  1.9178  0.6147
   8323SM  H13T11059   4.066   4.370  14.442 -0.8238  1.2418  2.0295
   8323SM  C14S11060   3.946   4.239  14.557  0.1055  0.8591  0.4767
   8323SM  H14S11061   4.016   4.155  14.578  0.6324  1.0904 -0.3104
   8323SM  H14T11062   3.844   4.193  14.554  1.2859 -1.9220 -0.7934
   8323SM  C15S11063   3.941   4.324  14.682  0.2006 -0.3334 -0.1370
   8323SM  H15S11064   3.865   4.399  14.653  1.8270 -0.0786 -4.5781
   8323SM  H15T11065   4.041   4.373  14.693 -0.9294  2.7505 -2.1010
   8323SM  C16S11066   3.895   4.249  14.807 -0.0469  0.8165  0.0346
   8323SM  H16S11067   3.973   4.172  14.826 -1.3463 -1.1623 -2.1747
   8323SM  H16T11068   3.800   4.203  14.772  0.7696  0.8520 -2.4315
   8323SM  C17S11069   3.875   4.357  14.913 -0.1705 -0.2913 -0.3754
   8323SM  H17S11070   3.812   4.308  14.990 -0.4808 -0.0409 -0.4683
   8323SM  H17T11071   3.821   4.445  14.873  1.7991  1.9888  1.6128
   8323SM  C18S11072   3.997   4.411  14.985 -0.1082 -0.1167 -0.0697
   8323SM  H18S11073   4.057   4.332  15.035  1.0599  0.8768  0.1313
   8323SM  H18T11074   3.981   4.482  15.069 -0.4943  0.4638 -0.6185
   8323SM  H18U11075   4.073   4.459  14.920  1.1794 -0.9148  0.7960
   8323SM   C1F11076   4.532   4.158  13.219 -0.6107  0.0538 -0.1260
   8323SM    OF11077   4.634   4.217  13.174 -0.1287 -0.2976 -0.1307
   8323SM   C2F11078   4.540   4.011  13.244 -0.0699  0.1906  0.2512
   8323SM   H2F11079   4.537   3.948  13.152 -0.5113  1.0574 -0.3386
   8323SM   H2G11080   4.451   3.962  13.289  2.0431 -3.6557  0.7151
   8323SM   C3F11081   4.667   3.962  13.320  0.7599 -0.3404 -0.3470
   8323SM   H3F11082   4.758   3.964  13.257 -0.6959  1.0267 -2.5668
   8323SM   H3G11083   4.652   3.855  13.342  0.5846  0.2974  3.2459
   8323SM   C4F11084   4.698   4.040  13.454  0.4946  0.3984  0.1473
   8323SM   H4F11085   4.705   4.150  13.438  2.1341  0.3135  0.1009
   8323SM   H4G11086   4.792   4.006  13.503 -0.5879 -1.9269  0.6928
   8323SM   C5F11087   4.584   4.028  13.559 -0.0756  0.7924  0.1101
   8323SM   H5F11088   4.590   3.922  13.591  0.9163  0.3116 -1.5327
   8323SM   H5G11089   4.485   4.042  13.510 -0.8501  0.7946  1.6095
   8323SM   C6F11090   4.603   4.120  13.677 -0.0559  0.3935  0.2274
   8323SM   H6F11091   4.599   4.229  13.654 -3.1275 -0.0211 -1.7523
   8323SM   H6G11092   4.695   4.107  13.737  0.1401 -0.0383 -0.1645
   8323SM   C7F11093   4.490   4.094  13.784 -0.0095 -0.0158  0.5067
   8323SM   H7F11094   4.497   3.991  13.827 -0.1228 -0.3469 -0.2546
   8323SM   H7G11095   4.387   4.108  13.746  0.0164  0.9448  0.7598
   8323SM   C8F11096   4.506   4.196  13.892 -0.4452 -0.0698 -0.1527
   8323SM   H8F11097   4.439   4.279  13.861 -1.1504 -0.5455  0.0585
   8323SM   H8G11098   4.605   4.246  13.896 -2.0207  3.4241 -1.2919
   8323SM   C9F11099   4.463   4.152  14.034  0.6016 -0.0790  1.1925
   8323SM   H9F11100   4.518   4.057  14.053 -0.5679 -0.3159  3.7924
   8323SM   H9G11101   4.356   4.121  14.031  0.9988 -1.6022 -2.2293
   8323SM  C10F11102   4.496   4.261  14.137 -0.1914  0.5240 -0.2061
   8323SM  H10F11103   4.464   4.359  14.095 -0.2904  1.3172  1.5978
   8323SM  H10G11104   4.605   4.264  14.159 -0.3835  1.5238  0.7523
   8323SM  C11F11105   4.424   4.247  14.269 -0.2944  0.3215 -0.4912
   8323SM  H11F11106   4.433   4.146  14.314  0.0638 -0.5945 -2.4851
   8323SM  H11G11107   4.316   4.262  14.249 -0.8464 -1.5901  0.7399
   8323SM  C12F11108   4.479   4.354  14.366 -0.0326  1.2574  0.6077
   8323SM  H12F11109   4.433   4.454  14.349  0.3778  1.0911 -1.8425
   8323SM  H12G11110   4.589   4.371  14.368 -0.1577  2.1365  0.7187
   8323SM  C13F11111   4.445   4.311  14.511  0.9017 -0.0213 -0.4429
   8323SM  H13F11112   4.497   4.214  14.532 -0.0057 -0.0537  1.9543
   8323SM  H13G11113   4.336   4.287  14.508  0.6980  0.9508 -2.9528
   8323SM  C14F11114   4.497   4.413  14.617 -0.2912  0.0661  0.7835
   8323SM  H14F11115   4.428   4.500  14.620  2.7135  2.7228 -0.8193
   8323SM  H14G11116   4.593   4.446  14.571 -0.8128 -0.5949 -0.8247
   8323SM  C15F11117   4.509   4.336  14.755  0.0512  0.8990 -0.1400
   8323SM  H15F11118   4.600   4.276  14.775 -0.3610  0.6825  1.2018
   8323SM  H15G11119   4.421   4.268  14.759  1.0678 -0.7822 -3.2085
   8323SM  C16F11120   4.504   4.438  14.873  0.2108  0.1982  0.4816
   8323SM  H16F11121   4.525   4.390  14.971  1.9752 -0.9872 -0.4259
   8323SM  H16G11122   4.401   4.479  14.873  1.3537  3.3800  1.3527
   8323SM  C17F11123   4.604   4.557  14.856 -0.2151 -0.0468  0.0285
   8323SM  H17F11124   4.563   4.652  14.896  0.7096  1.4181 -2.3087
   8323SM  H17G11125   4.606   4.574  14.746 -1.5144  1.2462  0.1763
   8323SM  C18F11126   4.738   4.523  14.922  0.2506 -0.7663 -0.0888
   8323SM  H18F11127   4.763   4.418  14.895  1.2777 -0.3176 -0.9752
   8323SM  H18G11128   4.739   4.528  15.033  1.3960  0.7727 -0.1416
   8323SM  C19F11129   4.851   4.613  14.882  0.5236  0.0327 -0.1586
   8323SM  H19F11130   4.809   4.715  14.892 -0.1623 -0.2506 -0.1373
   8323SM  H19G11131   4.875   4.601  14.774  0.4138 -0.3929 -0.1379
   8323SM  C20F11132   4.978   4.596  14.968 -0.2231  0.1034 -0.0134
   8323SM  H20F11133   4.959   4.640  15.068 -2.7591 -1.2998  0.2001
   8323SM  H20G11134   5.064   4.652  14.925  1.7991 -0.2316  3.2182
   8323SM  C21F11135   5.032   4.454  14.998  0.3750 -0.4458  0.0145
   8323SM  H21F11136   5.024   4.387  14.910  2.1901 -1.6249  0.6783
   8323SM  H21G11137   4.979   4.411  15.086 -0.1084  0.8128  0.3666
   8323SM  C22F11138   5.179   4.458  15.048 -0.2167  0.5809 -0.3802
   8323SM  H22F11139   5.247   4.523  14.990 -0.3933 -1.3592 -2.9006
   8323SM  H22G11140   5.227   4.358  15.049  2.4551  1.8060  0.0094
   8323SM  C23F11141   5.195   4.517  15.192  0.0553  0.2008 -0.3965
   8323SM  H23F11142   5.144   4.461  15.272  1.2503 -1.5240 -0.7840
   8323SM  H23G11143   5.171   4.626  15.190  2.3107  0.8367  1.7889
   8323SM  H23H11144   5.304   4.519  15.214 -0.2356  0.6821  1.0949
   8423SM     N11145   4.797   2.849  12.528  0.0348  0.2717  0.8303
   8423SM   C1511146   4.866   2.715  12.501  0.3492  0.3249  0.4476
   8423SM  H15A11147   4.797   2.632  12.503  1.3910 -0.5344  1.4060
   8423SM  H15B11148   4.944   2.695  12.572 -0.1529  1.6247  1.4104
   8423SM  H15C11149   4.923   2.725  12.410 -1.3211 -1.2790 -0.8515
   8423SM   C1411150   4.898   2.959  12.499 -0.1652  0.5930  0.1874
   8423SM  H14A11151   4.929   2.949  12.396 -1.2172  0.6556 -0.1525
   8423SM  H14B11152   4.984   2.965  12.564 -0.0118  3.5362 -0.1242
   8423SM  H14C11153   4.854   3.057  12.510 -0.3361  0.3712  1.7196
   8423SM   C1311154   4.676   2.872  12.433 -0.6108  0.4758  0.1322
   8423SM  H13A11155   4.638   2.973  12.442 -1.6615  0.1733 -0.7258
   8423SM  H13B11156   4.600   2.803  12.466 -1.2961  0.0965 -2.0852
   8423SM  H13C11157   4.696   2.839  12.332  2.1617 -1.1898  1.0944
   8423SM   C1211158   4.757   2.863  12.670  0.1712 -0.0298  0.0185
   8423SM  H12A11159   4.706   2.957  12.688 -1.5251 -0.9799  0.4460
   8423SM  H12B11160   4.835   2.857  12.744 -1.2610  0.9718  1.6890
   8423SM   C1111161   4.659   2.751  12.722  0.6138 -0.1392 -0.1444
   8423SM  H11A11162   4.648   2.786  12.827 -2.6140  0.5976 -0.6246
   8423SM  H11B11163   4.704   2.650  12.713  2.5386  0.6885 -0.0749
   8423SM     P11164   4.410   2.821  12.715  0.2002 -0.0801 -0.5457
   8423SM   O1311165   4.452   2.960  12.743 -0.0936  0.0176  0.2967
   8423SM   O1411166   4.290   2.800  12.627  0.0277 -0.2665 -0.3736
   8423SM   O1111167   4.386   2.747  12.852 -0.8967  0.3528 -0.7961
   8423SM   O1211168   4.533   2.755  12.649 -0.3242 -0.0357  0.2484
   8423SM   C1S11169   4.372   2.603  12.855 -0.5711  0.4056  0.5437
   8423SM   H1S11170   4.467   2.555  12.823 -1.1264 -2.3725  2.5860
   8423SM   H1T11171   4.284   2.567  12.798  1.0119  0.8767 -2.3972
   8423SM    NF11172   4.384   2.413  13.011 -0.5267 -0.0792 -0.1593
   8423SM   HNF11173   4.308   2.352  13.030 -0.5390  0.2535  0.8981
   8423SM   C2S11174   4.364   2.552  13.000  0.6406 -1.0463 -0.2352
   8423SM   H2S11175   4.443   2.609  13.054  1.3998 -0.6736 -1.6943
   8423SM   C3S11176   4.222   2.594  13.064  0.5314 -0.2954  0.1796
   8423SM   H3S11177   4.157   2.528  13.001  1.0344 -1.2585  0.6455
   8423SM    O311178   4.190   2.733  13.043 -0.1008 -0.3227 -0.1423
   8423SM   HO311179   4.255   2.755  12.976  0.0791  1.2438  0.5232
   8423SM   C4S11180   4.224   2.562  13.214 -0.3132  0.5627  0.8234
   8423SM   H4S11181   4.293   2.626  13.270  1.4537 -1.0429  0.5955
   8423SM   C5S11182   4.150   2.470  13.274  0.3561  0.3273 -0.5749
   8423SM   H5S11183   4.089   2.399  13.215 -2.8101 -0.1102  2.8757
   8423SM   C6S11184   4.145   2.444  13.419 -0.4859  0.7553 -0.6109
   8423SM   H6S11185   4.169   2.337  13.440 -2.6610  0.1352 -1.0225
   8423SM   H6T11186   4.044   2.453  13.466  0.2857 -1.9252  1.8920
   8423SM   C7S11187   4.245   2.522  13.510 -0.7374  0.6083 -0.0768
   8423SM   H7S11188   4.261   2.619  13.460 -0.5119  0.9662  0.6689
   8423SM   H7T11189   4.341   2.467  13.522 -1.5941 -1.4406 -1.9907
   8423SM   C8S11190   4.194   2.548  13.647 -0.1061 -0.3435 -0.1496
   8423SM   H8S11191   4.100   2.607  13.634  0.0597 -0.5279 -2.7166
   8423SM   H8T11192   4.258   2.627  13.693 -1.0212 -0.3849  1.2737
   8423SM   C9S11193   4.185   2.424  13.739 -0.1644  0.3777  0.1277
   8423SM   H9S11194   4.283   2.371  13.742 -0.4090 -0.1600 -0.7449
   8423SM   H9T11195   4.127   2.343  13.689  2.4735  0.1124 -2.8372
   8423SM  C10S11196   4.150   2.456  13.881  1.4716 -0.2708  0.4669
   8423SM  H10S11197   4.049   2.502  13.892  1.8474  0.1858  2.4793
   8423SM  H10T11198   4.224   2.532  13.915 -0.9198  1.6583  1.7341
   8423SM  C11S11199   4.154   2.335  13.977 -0.6723 -0.0878  0.4494
   8423SM  H11S11200   4.258   2.295  13.975 -0.2836  0.8547 -1.5843
   8423SM  H11T11201   4.080   2.265  13.932  1.2252 -1.1426 -1.2234
   8423SM  C12S11202   4.114   2.369  14.120  0.2086  0.6988 -0.0760
   8423SM  H12S11203   4.004   2.365  14.102  0.2658 -4.2952 -0.8553
   8423SM  H12T11204   4.163   2.455  14.169  2.7775 -0.7637  0.1208
   8423SM  C13S11205   4.151   2.255  14.215 -0.4713 -0.5074 -0.1527
   8423SM  H13S11206   4.261   2.238  14.211 -0.1830  1.2141 -0.4492
   8423SM  H13T11207   4.103   2.158  14.188  1.7651 -1.5650 -0.5756
   8423SM  C14S11208   4.109   2.291  14.369 -0.3263  0.5790  0.7529
   8423SM  H14S11209   4.000   2.306  14.353 -0.3614 -1.1865 -1.0445
   8423SM  H14T11210   4.147   2.391  14.397 -0.3980  1.4569 -2.0635
   8423SM  C15S11211   4.141   2.188  14.478  0.3850 -0.7624  0.1747
   8423SM  H15S11212   4.252   2.182  14.488  0.2124 -1.5494  1.7773
   8423SM  H15T11213   4.103   2.086  14.457 -1.2972 -0.7654  2.7852
   8423SM  C16S11214   4.074   2.239  14.611  0.6091  0.0119  0.0925
   8423SM  H16S11215   3.965   2.222  14.602  0.9768 -1.9250 -1.5012
   8423SM  H16T11216   4.101   2.346  14.602 -1.1599  0.3130 -3.0145
   8423SM  C17S11217   4.139   2.180  14.732 -0.1857 -0.4063  0.0878
   8423SM  H17S11218   4.247   2.207  14.730 -0.5542  1.1309 -1.0765
   8423SM  H17T11219   4.134   2.072  14.709  0.9945 -0.1366 -1.5538
   8423SM  C18S11220   4.100   2.227  14.876 -0.5437  0.0701 -0.2122
   8423SM  H18S11221   4.160   2.170  14.950  0.3841  1.3724  0.0787
   8423SM  H18T11222   3.990   2.219  14.893 -0.5299 -1.0094 -0.5920
   8423SM  H18U11223   4.117   2.337  14.885 -0.9148 -0.0049  2.1032
   8423SM   C1F11224   4.505   2.350  13.003 -0.3205  0.1366 -0.0913
   8423SM    OF11225   4.603   2.406  12.958 -0.4819 -0.2372  0.5011
   8423SM   C2F11226   4.500   2.197  13.040 -0.1577 -0.2330 -0.1546
   8423SM   H2F11227   4.506   2.137  12.947  1.2516 -0.0537 -0.2016
   8423SM   H2G11228   4.407   2.166  13.093  0.4744 -0.3602  0.9215
   8423SM   C3F11229   4.615   2.171  13.145  0.5379  0.4667 -0.9617
   8423SM   H3F11230   4.719   2.181  13.108  1.2789  0.5422  1.0290
   8423SM   H3G11231   4.613   2.067  13.183  0.7847  0.5687 -0.6666
   8423SM   C4F11232   4.596   2.260  13.269  0.3558 -0.7662  0.3444
   8423SM   H4F11233   4.488   2.281  13.283  0.4016  1.1779 -1.6846
   8423SM   H4G11234   4.649   2.355  13.246 -1.1772 -0.0431 -0.3698
   8423SM   C5F11235   4.648   2.207  13.400 -0.4113 -1.2673  1.0441
   8423SM   H5F11236   4.756   2.198  13.374 -0.5292  0.1747 -0.1148
   8423SM   H5G11237   4.612   2.109  13.437 -0.3354 -1.0768  1.6242
   8423SM   C6F11238   4.629   2.299  13.526  0.9097 -0.3675  0.7280
   8423SM   H6F11239   4.522   2.289  13.552  0.6999  0.6547  0.2941
   8423SM   H6G11240   4.632   2.404  13.488 -2.4390 -0.7023 -0.8025
   8423SM   C7F11241   4.719   2.261  13.639 -0.9091 -0.5163 -0.3815
   8423SM   H7F11242   4.817   2.310  13.621 -0.7565  0.6785  3.0731
   8423SM   H7G11243   4.731   2.151  13.631  3.8624 -0.0631 -2.4877
   8423SM   C8F11244   4.671   2.302  13.777  0.5152  0.2617 -0.6713
   8423SM   H8F11245   4.731   2.264  13.863 -2.5600  0.0954  1.5835
   8423SM   H8G11246   4.570   2.257  13.788  0.7851 -0.0030  1.0767
   8423SM   C9F11247   4.655   2.454  13.773  0.8143 -0.2823 -0.2868
   8423SM   H9F11248   4.579   2.494  13.702  0.0664  2.0764  1.6955
   8423SM   H9G11249   4.746   2.511  13.745  1.1893  0.0931  1.5974
   8423SM  C10F11250   4.593   2.506  13.906  0.1609 -0.5284  0.3728
   8423SM  H10F11251   4.539   2.422  13.955  1.7828 -0.9509  1.5423
   8423SM  H10G11252   4.532   2.594  13.880  1.4525 -0.4829 -2.9102
   8423SM  C11F11253   4.697   2.558  14.015  0.9804 -0.4782  0.1602
   8423SM  H11F11254   4.735   2.650  13.966 -2.6665  0.9222 -0.3317
   8423SM  H11G11255   4.775   2.480  14.033 -0.5376 -2.0283  0.3392
   8423SM  C12F11256   4.627   2.581  14.158  0.0396 -0.0259 -0.6977
   8423SM  H12F11257   4.519   2.608  14.149  0.2926  1.5270  0.4913
   8423SM  H12G11258   4.683   2.667  14.199  0.7409 -0.3627 -0.9292
   8423SM  C13F11259   4.639   2.467  14.258 -0.8426 -0.3261  0.4534
   8423SM  H13F11260   4.749   2.449  14.262 -1.0322 -1.6399  0.0151
   8423SM  H13G11261   4.585   2.376  14.226  1.8705 -1.8448 -0.1341
   8423SM  C14F11262   4.575   2.498  14.391  0.0785 -0.7863 -0.2328
   8423SM  H14F11263   4.465   2.501  14.379  0.0455 -2.9766 -0.7836
   8423SM  H14G11264   4.611   2.595  14.433 -0.0391 -0.3526 -1.1179
   8423SM  C15F11265   4.590   2.378  14.487 -0.8624  0.4691  0.6900
   8423SM  H15F11266   4.693   2.336  14.491 -1.6230 -1.6918 -0.6938
   8423SM  H15G11267   4.532   2.292  14.448 -1.0005  0.5858  0.6387
   8423SM  C16F11268   4.530   2.399  14.629  0.5416  0.4458  0.0030
   8423SM  H16F11269   4.437   2.341  14.648  0.4515  1.0568  1.6154
   8423SM  H16G11270   4.506   2.507  14.628  0.9233  0.6794  3.5795
   8423SM  C17F11271   4.620   2.376  14.750  0.5219 -0.8709  0.1555
   8423SM  H17F11272   4.704   2.448  14.741 -1.5066  2.0331  2.5600
   8423SM  H17G11273   4.652   2.269  14.758 -2.4523 -2.3282 -4.0222
   8423SM  C18F11274   4.544   2.409  14.882 -0.7422 -0.0477 -0.8950
   8423SM  H18F11275   4.459   2.341  14.902  0.1001 -1.1392 -0.9216
   8423SM  H18G11276   4.506   2.513  14.880 -0.4768  0.0435 -1.2968
   8423SM  C19F11277   4.635   2.386  15.007 -0.0645 -0.3960 -0.6226
   8423SM  H19F11278   4.723   2.454  15.005  1.1807 -1.9030 -3.2683
   8423SM  H19G11279   4.687   2.287  15.003 -1.6430 -1.2797  0.1213
   8423SM  C20F11280   4.553   2.384  15.141 -0.3783  0.7935 -0.4352
   8423SM  H20F11281   4.481   2.300  15.129  0.0703  0.1325  1.1813
   8423SM  H20G11282   4.496   2.479  15.142  1.2739  1.8403 -1.1341
   8423SM  C21F11283   4.637   2.368  15.263  0.0448  0.7111 -0.0149
   8423SM  H21F11284   4.715   2.447  15.262  1.8737 -0.8403  3.2310
   8423SM  H21G11285   4.682   2.267  15.246 -1.3276  0.1163 -0.2437
   8423SM  C22F11286   4.567   2.378  15.400  0.4943  0.0413 -0.1190
   8423SM  H22F11287   4.647   2.369  15.477  1.4482  0.0985 -1.0823
   8423SM  H22G11288   4.497   2.293  15.410  0.0535  0.3268 -0.7200
   8423SM  C23F11289   4.491   2.510  15.431 -0.1166  0.1585 -0.0030
   8423SM  H23F11290   4.556   2.599  15.418 -0.5479  0.6637  1.1451
   8423SM  H23G11291   4.478   2.502  15.541  0.4658 -0.9434  0.0082
   8423SM  H23H11292   4.393   2.505  15.380  0.2870 -2.5087 -0.7101
   8523SM     N11293   5.862   3.608  13.003 -0.1640 -0.0189 -0.3981
   8523SM   C1511294   5.794   3.502  12.929  0.4489 -0.2381  0.3840
   8523SM  H15A11295   5.695   3.474  12.961  0.6286 -1.6103 -0.1822
   8523SM  H15B11296   5.860   3.416  12.928 -0.6501 -1.1149 -1.2253
   8523SM  H15C11297   5.780   3.522  12.824  1.8620 -1.1467 -0.0138
   8523SM   C1411298   6.011   3.606  12.970  0.4980 -0.0294  0.2448
   8523SM  H14A11299   6.080   3.662  13.032  0.0855 -0.5532  1.2119
   8523SM  H14B11300   6.043   3.633  12.871 -1.0320 -2.4678 -1.0189
   8523SM  H14C11301   6.049   3.505  12.967  0.0678 -0.2162  0.7976
   8523SM   C1311302   5.800   3.743  12.974 -0.3995  0.7767  0.2246
   8523SM  H13A11303   5.702   3.758  13.018 -1.4389  1.4596 -2.1446
   8523SM  H13B11304   5.789   3.752  12.867 -1.9786 -1.3185  0.1629
   8523SM  H13C11305   5.868   3.821  13.005  1.6086 -1.5477  2.0861
   8523SM   C1211306   5.868   3.580  13.153  0.1370  0.1105 -0.3039
   8523SM  H12A11307   5.937   3.646  13.203  1.2662 -2.0921  1.2391
   8523SM  H12B11308   5.899   3.481  13.184  1.7434  0.6386 -0.1275
   8523SM   C1111309   5.727   3.597  13.226 -0.6105  0.4282 -0.0702
   8523SM  H11A11310   5.690   3.699  13.205 -0.0981  0.4641 -0.8408
   8523SM  H11B11311   5.743   3.583  13.335  1.2062 -1.4740 -0.5039
   8523SM     P11312   5.619   3.352  13.205  0.0971  0.0600 -0.2744
   8523SM   O1311313   5.496   3.302  13.136 -0.3790 -0.6833 -0.3859
   8523SM   O1411314   5.747   3.286  13.176 -0.1489  0.9220 -0.2169
   8523SM   O1111315   5.605   3.341  13.363 -0.6078 -1.0318 -0.2566
   8523SM   O1211316   5.626   3.504  13.179 -0.2745 -0.0291  0.1076
   8523SM   C1S11317   5.483   3.365  13.432 -0.2465  0.2315 -0.1446
   8523SM   H1S11318   5.417   3.276  13.417  1.6674 -0.8446 -3.2837
   8523SM   H1T11319   5.427   3.452  13.391 -1.0458  1.2971  2.9840
   8523SM    NF11320   5.358   3.412  13.630 -0.2725 -0.3360  0.1573
   8523SM   HNF11321   5.327   3.505  13.648  0.3797 -0.2991  1.1833
   8523SM   C2S11322   5.493   3.387  13.580  0.5886 -0.1259 -0.5543
   8523SM   H2S11323   5.534   3.297  13.630 -0.1450 -1.5341 -2.3554
   8523SM   C3S11324   5.588   3.510  13.605 -0.8884  0.3274  0.1655
   8523SM   H3S11325   5.546   3.588  13.537  2.7437  1.4698 -0.9551
   8523SM    O311326   5.721   3.486  13.565  0.4135 -0.2948  0.1079
   8523SM   HO311327   5.708   3.411  13.506 -0.2700 -0.7040  0.7616
   8523SM   C4S11328   5.584   3.570  13.743  0.3110  0.0099  0.1058
   8523SM   H4S11329   5.569   3.493  13.820  2.5221  0.2940  0.8833
   8523SM   C5S11330   5.586   3.701  13.765 -0.2006 -0.1522  0.0963
   8523SM   H5S11331   5.571   3.774  13.684  0.1215 -0.5529 -0.3262
   8523SM   C6S11332   5.561   3.746  13.908 -0.0228 -1.1456 -0.1685
   8523SM   H6S11333   5.638   3.819  13.941 -0.2005 -1.4058  0.8708
   8523SM   H6T11334   5.585   3.666  13.982 -0.0526 -1.8223 -0.8750
   8523SM   C7S11335   5.415   3.787  13.949 -0.3651 -0.0035 -0.2602
   8523SM   H7S11336   5.337   3.715  13.918 -1.9030  1.3526  0.3311
   8523SM   H7T11337   5.389   3.891  13.919 -0.4153  0.1700  0.3644
   8523SM   C8S11338   5.406   3.811  14.106  1.1325  0.6490  0.1954
   8523SM   H8S11339   5.421   3.711  14.152 -2.2837  0.8050  1.9504
   8523SM   H8T11340   5.303   3.846  14.131 -0.0056 -1.7521 -0.8030
   8523SM   C9S11341   5.506   3.916  14.167 -0.4356 -0.7815 -0.1999
   8523SM   H9S11342   5.499   4.012  14.113  0.6063 -0.2111  0.6443
   8523SM   H9T11343   5.613   3.889  14.152 -0.1177  1.0989 -1.7119
   8523SM  C10S11344   5.479   3.932  14.323 -0.3878  0.2329  0.3944
   8523SM  H10S11345   5.500   3.840  14.383 -0.4221  0.7206  1.1713
   8523SM  H10T11346   5.378   3.972  14.343 -0.2728  0.8057 -0.1712
   8523SM  C11S11347   5.570   4.032  14.390 -0.3366 -0.4376 -0.1620
   8523SM  H11S11348   5.540   4.125  14.338 -1.4470 -1.1456 -0.8202
   8523SM  H11T11349   5.679   4.010  14.379 -0.4391 -2.5817  1.9869
   8523SM  C12S11350   5.536   4.050  14.540  0.3795  0.7137 -0.3735
   8523SM  H12S11351   5.619   4.081  14.608 -0.0155  1.8985 -0.4090
   8523SM  H12T11352   5.513   3.944  14.565  1.5100  0.3686 -0.7536
   8523SM  C13S11353   5.415   4.127  14.577 -0.5301 -0.2186 -0.9965
   8523SM  H13S11354   5.371   4.082  14.669  1.5098 -0.1762  0.0570
   8523SM  H13T11355   5.337   4.130  14.497 -0.5676 -0.0141 -0.9529
   8523SM  C14S11356   5.439   4.279  14.599 -0.0625 -0.9521  0.4372
   8523SM  H14S11357   5.463   4.319  14.498  0.1975 -1.0530  0.4567
   8523SM  H14T11358   5.531   4.305  14.657  0.1053 -0.7010  0.0605
   8523SM  C15S11359   5.312   4.349  14.636 -0.4116  0.2152 -0.1795
   8523SM  H15S11360   5.299   4.350  14.747  1.3894 -1.9437  0.1361
   8523SM  H15T11361   5.226   4.290  14.597  0.6410 -1.5063  0.0105
   8523SM  C16S11362   5.297   4.493  14.595  0.0520 -0.1967  0.4606
   8523SM  H16S11363   5.261   4.504  14.490  0.0730 -1.3667  0.3110
   8523SM  H16T11364   5.394   4.546  14.588 -0.2755  0.6340  1.8865
   8523SM  C17S11365   5.205   4.576  14.686  0.2096  0.5022  0.2421
   8523SM  H17S11366   5.252   4.586  14.786 -0.7928 -1.6212  0.9881
   8523SM  H17T11367   5.104   4.528  14.691  0.0570  0.8807  0.8467
   8523SM  C18S11368   5.207   4.716  14.622 -0.0425  0.3389 -0.3142
   8523SM  H18S11369   5.132   4.785  14.666 -0.1229  2.0396 -2.8880
   8523SM  H18T11370   5.203   4.715  14.511  1.7138  2.0389 -0.4643
   8523SM  H18U11371   5.312   4.747  14.641  0.8283 -1.1371 -2.2835
   8523SM   C1F11372   5.268   3.315  13.646  0.2723 -0.0825  1.0653
   8523SM    OF11373   5.301   3.199  13.633 -0.2908 -0.4386  0.2112
   8523SM   C2F11374   5.135   3.363  13.690  0.0242  0.3124 -0.2718
   8523SM   H2F11375   5.092   3.439  13.620 -1.2981  0.0274  0.1932
   8523SM   H2G11376   5.148   3.399  13.794 -1.2521  0.5638 -0.1738
   8523SM   C3F11377   5.032   3.248  13.708 -0.7168 -0.3673  0.4637
   8523SM   H3F11378   5.075   3.175  13.780 -0.4695 -0.1761  0.5103
   8523SM   H3G11379   5.018   3.202  13.608 -2.8498 -1.3604  1.1451
   8523SM   C4F11380   4.901   3.311  13.753  0.4914  0.0943 -0.0425
   8523SM   H4F11381   4.828   3.229  13.769  0.4385  0.2413  0.4878
   8523SM   H4G11382   4.854   3.366  13.669  0.6380 -3.3521 -2.6199
   8523SM   C5F11383   4.908   3.397  13.879  0.2830 -0.1312  0.1796
   8523SM   H5F11384   4.968   3.487  13.857 -3.2817  2.2100 -0.9870
   8523SM   H5G11385   4.955   3.337  13.960  2.6695  2.1823  0.6034
   8523SM   C6F11386   4.766   3.439  13.921  0.7054 -0.0117 -0.4567
   8523SM   H6F11387   4.721   3.478  13.827  0.2584 -1.2102 -0.7485
   8523SM   H6G11388   4.779   3.525  13.991 -0.0619 -0.5295  0.3418
   8523SM   C7F11389   4.682   3.336  13.997 -0.1771 -0.4607 -0.0126
   8523SM   H7F11390   4.762   3.284  14.053  0.4905  0.0994 -0.4306
   8523SM   H7G11391   4.644   3.256  13.930  2.4925 -2.2528  0.4730
   8523SM   C8F11392   4.580   3.396  14.096  0.0776  0.2751 -0.3038
   8523SM   H8F11393   4.526   3.474  14.038 -2.2760 -0.9640  0.1143
   8523SM   H8G11394   4.634   3.457  14.172 -2.7211  1.9989  0.4485
   8523SM   C9F11395   4.490   3.306  14.172 -0.1384  0.7163  0.5811
   8523SM   H9F11396   4.458   3.224  14.105 -0.8400  0.1798  1.5457
   8523SM   H9G11397   4.403   3.368  14.203 -0.9784 -0.3857  0.4934
   8523SM  C10F11398   4.549   3.252  14.296  0.1133  0.5972 -0.4033
   8523SM  H10F11399   4.480   3.262  14.382  2.0345 -0.8491  1.4097
   8523SM  H10G11400   4.635   3.317  14.326  0.4486  0.5592 -1.2569
   8523SM  C11F11401   4.587   3.101  14.290  0.2741 -0.2694 -0.2453
   8523SM  H11F11402   4.662   3.088  14.209  2.1792  1.2878  1.1843
   8523SM  H11G11403   4.494   3.052  14.253  0.0600 -0.3202  0.3608
   8523SM  C12F11404   4.636   3.026  14.413 -0.0827  0.8113 -0.0059
   8523SM  H12F11405   4.548   3.020  14.481 -0.8529 -2.5335 -1.1127
   8523SM  H12G11406   4.711   3.091  14.464 -1.2849  2.1276  0.1390
   8523SM  C13F11407   4.689   2.883  14.392 -0.8673 -0.5693  0.7958
   8523SM  H13F11408   4.750   2.887  14.299  2.1358 -1.2040  2.5968
   8523SM  H13G11409   4.604   2.812  14.380 -0.4180 -0.6175 -3.8640
   8523SM  C14F11410   4.784   2.835  14.505 -0.0186 -0.3773  0.9986
   8523SM  H14F11411   4.874   2.899  14.491 -1.1470  1.0243 -0.1115
   8523SM  H14G11412   4.818   2.730  14.489  1.9744  0.3314  0.2273
   8523SM  C15F11413   4.741   2.855  14.652 -0.3115 -0.6550  0.2137
   8523SM  H15F11414   4.642   2.806  14.643 -0.5870 -0.0471 -0.1629
   8523SM  H15G11415   4.726   2.963  14.673 -1.3604 -0.7524  0.0283
   8523SM  C16F11416   4.843   2.799  14.750 -1.4172 -0.0531  0.5851
   8523SM  H16F11417   4.864   2.697  14.712 -1.7928  0.3350 -0.7411
   8523SM  H16G11418   4.799   2.790  14.851 -1.4501  0.4384  0.6158
   8523SM  C17F11419   4.967   2.885  14.753 -0.2711 -0.3999  0.1923
   8523SM  H17F11420   4.942   2.986  14.793  0.5841 -0.5562  1.1813
   8523SM  H17G11421   5.009   2.882  14.650  0.1810 -0.9295  0.3872
   8523SM  C18F11422   5.088   2.824  14.834 -0.0865  0.3604  1.1821
   8523SM  H18F11423   5.109   2.731  14.778 -0.6680  0.2524  1.1344
   8523SM  H18G11424   5.049   2.794  14.934 -0.5652 -2.4734  0.2269
   8523SM  C19F11425   5.211   2.911  14.837  0.4373 -0.3098  0.5149
   8523SM  H19F11426   5.206   2.970  14.743  2.2950  0.0000  0.5813
   8523SM  H19G11427   5.297   2.841  14.835 -0.4595 -1.4461  0.7264
   8523SM  C20F11428   5.216   3.002  14.956  0.4868 -0.7655  0.1063
   8523SM  H20F11429   5.190   2.946  15.048 -0.6809  0.5588  0.6263
   8523SM  H20G11430   5.142   3.084  14.947  2.0271  1.0525  2.7831
   8523SM  C21F11431   5.349   3.064  14.964  0.4736  0.2763 -0.2039
   8523SM  H21F11432   5.362   3.136  14.880  1.0016  0.9192  0.4105
   8523SM  H21G11433   5.440   3.000  14.957  0.9367  0.9652 -0.6223
   8523SM  C22F11434   5.373   3.137  15.097 -0.5152  0.3424 -0.1356
   8523SM  H22F11435   5.379   3.067  15.183 -1.2309 -0.2828 -0.5860
   8523SM  H22G11436   5.289   3.206  15.120  0.3711  1.0227  1.1736
   8523SM  C23F11437   5.503   3.223  15.083  0.4820 -0.1025 -0.0283
   8523SM  H23F11438   5.585   3.151  15.063 -0.0092 -1.2577  1.8282
   8523SM  H23G11439   5.518   3.285  15.174 -1.0127 -1.2503  1.0447
   8523SM  H23H11440   5.495   3.294  14.998 -1.7831  1.0651  1.0569
   8623SM     N11441   3.784   1.431  12.551  0.1787 -0.7757  0.0417
   8623SM   C1511442   3.677   1.458  12.643  0.4766 -0.1093 -0.0886
   8623SM  H15A11443   3.638   1.377  12.703  0.0238  3.0671  4.4656
   8623SM  H15B11444   3.584   1.483  12.594 -0.2867  0.1026  1.3989
   8623SM  H15C11445   3.699   1.540  12.710 -0.8334  1.4176 -1.4018
   8623SM   C1411446   3.746   1.301  12.487  0.2240  0.2403 -0.3401
   8623SM  H14A11447   3.672   1.305  12.408  0.2266  0.1581 -0.3470
   8623SM  H14B11448   3.747   1.219  12.556  0.2115  0.7987  0.3396
   8623SM  H14C11449   3.825   1.270  12.421  0.7800 -1.3591  1.0311
   8623SM   C1311450   3.771   1.535  12.438  0.3654  0.7001 -0.2045
   8623SM  H13A11451   3.670   1.550  12.403 -0.1387  1.6298  1.5680
   8623SM  H13B11452   3.832   1.502  12.355 -1.8482  0.5880 -1.8877
   8623SM  H13C11453   3.808   1.630  12.472  0.2247  0.0435  1.9611
   8623SM   C1211454   3.924   1.423  12.601 -0.2049  0.0794 -0.3017
   8623SM  H12A11455   4.003   1.401  12.530  0.1081 -1.6222  0.5049
   8623SM  H12B11456   3.935   1.332  12.659  0.7555  0.9158  0.8717
   8623SM   C1111457   3.977   1.552  12.669 -0.0458  0.4579  0.0984
   8623SM  H11A11458   4.081   1.533  12.705  1.9161  2.5149 -3.7743
   8623SM  H11B11459   3.916   1.574  12.759 -0.7730 -0.8440 -0.0594
   8623SM     P11460   3.965   1.812  12.622 -0.1261 -0.1835  0.1277
   8623SM   O1311461   4.091   1.886  12.599 -0.7989 -0.2258  0.6759
   8623SM   O1411462   3.854   1.859  12.538 -0.2446  0.1151  0.3638
   8623SM   O1111463   3.934   1.810  12.776  0.0368 -0.8183  0.2141
   8623SM   O1211464   3.991   1.662  12.580  0.0965 -0.5020 -0.5943
   8623SM   C1S11465   3.798   1.820  12.824 -0.3359  0.1786  0.6131
   8623SM   H1S11466   3.749   1.722  12.807  2.7679 -1.4101 -0.0066
   8623SM   H1T11467   3.744   1.896  12.764  0.3631  0.1820 -0.0350
   8623SM    NF11468   3.657   1.806  13.035  0.2882 -0.1546 -0.4195
   8623SM   HNF11469   3.594   1.870  13.078  1.9699  1.0989  0.2715
   8623SM   C2S11470   3.792   1.840  12.982 -0.0686 -0.7834 -0.6670
   8623SM   H2S11471   3.867   1.775  13.032  0.3939  1.0787  1.2015
   8623SM   C3S11472   3.831   1.992  13.005  0.0397 -0.2200  0.2434
   8623SM   H3S11473   3.745   2.049  12.963 -0.0593 -0.6162 -0.1051
   8623SM    O311474   3.945   2.026  12.924 -0.1908  0.1343 -0.5887
   8623SM   HO311475   3.945   1.953  12.861  1.5708 -0.0708 -0.3850
   8623SM   C4S11476   3.859   2.029  13.145  0.3433  0.4160  0.3132
   8623SM   H4S11477   3.928   1.961  13.197  1.5638 -0.3375 -2.1411
   8623SM   C5S11478   3.828   2.142  13.204 -0.6613  0.1547 -0.7349
   8623SM   H5S11479   3.775   2.214  13.141  0.3544  0.2922 -1.4662
   8623SM   C6S11480   3.883   2.162  13.347 -0.2957  0.1419 -1.4494
   8623SM   H6S11481   3.945   2.254  13.356 -1.0573  0.4621  1.6110
   8623SM   H6T11482   3.950   2.078  13.375 -1.9389 -0.3414  1.4767
   8623SM   C7S11483   3.771   2.161  13.452  0.0674  0.3576 -0.2257
   8623SM   H7S11484   3.741   2.055  13.460 -1.8967  1.0180  3.1534
   8623SM   H7T11485   3.689   2.228  13.420 -0.1418  0.9804  1.5165
   8623SM   C8S11486   3.825   2.203  13.591 -0.2644 -0.0231 -0.3430
   8623SM   H8S11487   3.882   2.298  13.587  0.4714 -0.4724 -1.2686
   8623SM   H8T11488   3.898   2.130  13.634  0.3090  1.4057  1.1908
   8623SM   C9S11489   3.711   2.218  13.695 -0.0702 -0.3485 -0.0643
   8623SM   H9S11490   3.661   2.119  13.705  1.2079 -1.0823 -0.6673
   8623SM   H9T11491   3.641   2.300  13.668  2.0373  1.9771  1.1273
   8623SM  C10S11492   3.772   2.251  13.837  0.1509 -0.9033  0.2462
   8623SM  H10S11493   3.785   2.360  13.853  1.9972 -1.2055  1.0074
   8623SM  H10T11494   3.872   2.204  13.846 -0.2071 -1.7312  0.0233
   8623SM  C11S11495   3.691   2.181  13.948 -0.4050  0.3543  0.1303
   8623SM  H11S11496   3.679   2.074  13.920 -1.5412  0.1162  1.4184
   8623SM  H11T11497   3.586   2.216  13.955 -0.4593  0.2163  0.0189
   8623SM  C12S11498   3.747   2.193  14.084  0.3393  1.0735 -0.5948
   8623SM  H12S11499   3.731   2.298  14.116 -0.6677  1.1164 -1.1685
   8623SM  H12T11500   3.855   2.167  14.080  0.0983 -0.1630  0.3390
   8623SM  C13S11501   3.673   2.108  14.187 -0.1970  0.1440 -0.4191
   8623SM  H13S11502   3.669   2.000  14.160  0.6970 -0.4287  1.5257
   8623SM  H13T11503   3.567   2.134  14.202 -0.0491 -0.1860  1.4314
   8623SM  C14S11504   3.743   2.111  14.328  0.8069 -0.0899  0.1082
   8623SM  H14S11505   3.724   2.208  14.379  2.8332 -1.7320  4.4574
   8623SM  H14T11506   3.852   2.105  14.308  0.5773 -0.9620 -0.9682
   8623SM  C15S11507   3.687   2.007  14.425 -0.3713 -0.2382  0.2318
   8623SM  H15S11508   3.697   1.908  14.376  1.4659 -0.0639  0.1550
   8623SM  H15T11509   3.579   2.030  14.435 -0.4964  0.1387 -1.5988
   8623SM  C16S11510   3.751   2.003  14.566 -0.6034  0.0122  0.5302
   8623SM  H16S11511   3.712   2.097  14.612 -1.2351 -1.3684  2.9583
   8623SM  H16T11512   3.862   1.999  14.564 -0.6205 -1.2777 -1.6889
   8623SM  C17S11513   3.705   1.874  14.637  0.8008 -0.7050 -0.8510
   8623SM  H17S11514   3.594   1.867  14.635  0.6180  0.6407  1.5263
   8623SM  H17T11515   3.734   1.900  14.741  0.8331  4.1349 -1.8490
   8623SM  C18S11516   3.778   1.750  14.587  0.2272 -0.7653 -0.0472
   8623SM  H18S11517   3.744   1.714  14.488 -0.7710  1.0760 -0.4145
   8623SM  H18T11518   3.755   1.661  14.650  1.9893 -0.5172  1.0177
   8623SM  H18U11519   3.888   1.763  14.594  0.2697 -1.8274  3.5783
   8623SM   C1F11520   3.602   1.687  13.023 -0.0710  0.5203 -0.0484
   8623SM    OF11521   3.675   1.596  12.983 -0.1698  0.5169  0.1317
   8623SM   C2F11522   3.453   1.679  13.045  0.7400  0.0341 -0.0200
   8623SM   H2F11523   3.407   1.679  12.944  2.7080  0.3692 -0.9708
   8623SM   H2G11524   3.418   1.770  13.098  1.8903  0.2048  0.4793
   8623SM   C3F11525   3.426   1.551  13.125  0.0406 -0.3840  0.0208
   8623SM   H3F11526   3.473   1.463  13.074  2.5274 -0.2212  1.8697
   8623SM   H3G11527   3.318   1.527  13.128 -0.0283  0.0623  1.8664
   8623SM   C4F11528   3.485   1.542  13.268  0.1921 -0.9257  0.0798
   8623SM   H4F11529   3.596   1.540  13.263  0.5625  2.6423  2.7253
   8623SM   H4G11530   3.439   1.453  13.315  2.1649 -2.0625 -0.0404
   8623SM   C5F11531   3.436   1.658  13.359  1.0919  0.1860 -0.0233
   8623SM   H5F11532   3.327   1.679  13.353  1.5295  3.5067  1.2877
   8623SM   H5G11533   3.481   1.754  13.325 -0.3590  0.7395 -0.4748
   8623SM   C6F11534   3.469   1.640  13.504 -0.3784 -0.1692 -0.4832
   8623SM   H6F11535   3.578   1.629  13.522 -0.2848 -2.3337 -2.0258
   8623SM   H6G11536   3.429   1.545  13.545  1.4550 -1.1194 -0.8083
   8623SM   C7F11537   3.426   1.757  13.589  0.2543  0.2115  0.5518
   8623SM   H7F11538   3.324   1.793  13.562 -0.1987 -0.9105  0.7291
   8623SM   H7G11539   3.490   1.842  13.556 -0.5623  0.6396  0.0202
   8623SM   C8F11540   3.466   1.727  13.735  0.2042 -0.7163  0.1188
   8623SM   H8F11541   3.572   1.696  13.747  0.1881 -0.7566  0.1581
   8623SM   H8G11542   3.398   1.643  13.759  1.3879 -2.3308 -1.8303
   8623SM   C9F11543   3.424   1.854  13.814  0.1889 -0.0566 -0.2228
   8623SM   H9F11544   3.323   1.889  13.785  1.2267  1.1543 -2.6675
   8623SM   H9G11545   3.498   1.937  13.812  0.5296 -0.1731  3.0391
   8623SM  C10F11546   3.409   1.818  13.964 -0.0562 -0.1802 -0.1604
   8623SM  H10F11547   3.512   1.801  14.000  0.2892  1.2685 -0.3920
   8623SM  H10G11548   3.356   1.721  13.978  0.1489 -0.2877 -0.1367
   8623SM  C11F11549   3.358   1.932  14.055  0.2236 -0.2440  0.2338
   8623SM  H11F11550   3.267   1.965  14.001  0.1046 -1.2075 -0.1551
   8623SM  H11G11551   3.435   2.012  14.061 -0.8977  0.8897  0.0248
   8623SM  C12F11552   3.327   1.888  14.203 -0.0601 -0.1536  0.0679
   8623SM  H12F11553   3.295   1.979  14.258 -0.0845 -1.1806  1.8451
   8623SM  H12G11554   3.420   1.844  14.244  0.5142  0.9148 -0.0467
   8623SM  C13F11555   3.215   1.779  14.210  0.0052 -0.9556  0.2013
   8623SM  H13F11556   3.265   1.693  14.161  1.8868  0.1211  0.1186
   8623SM  H13G11557   3.125   1.816  14.157  0.0473  0.4828  1.0693
   8623SM  C14F11558   3.167   1.748  14.353  0.8031  0.2213 -0.4056
   8623SM  H14F11559   3.130   1.843  14.398  1.3584  0.7718 -1.0771
   8623SM  H14G11560   3.257   1.721  14.412  0.4865  0.2504  0.1010
   8623SM  C15F11561   3.075   1.636  14.381 -0.1529 -0.3656 -0.5767
   8623SM  H15F11562   3.125   1.543  14.347  0.5450 -0.2526  0.1226
   8623SM  H15G11563   2.975   1.641  14.333 -0.6981 -2.6064  0.2171
   8623SM  C16F11564   3.033   1.617  14.532 -0.3561  0.2540  0.0214
   8623SM  H16F11565   2.968   1.527  14.533 -0.4375  0.2735 -1.5662
   8623SM  H16G11566   2.973   1.701  14.573 -0.0605  0.2455  0.4807
   8623SM  C17F11567   3.146   1.578  14.631  0.2463  0.1441 -0.1844
   8623SM  H17F11568   3.218   1.662  14.647  1.9787 -0.9309 -1.8563
   8623SM  H17G11569   3.204   1.490  14.593  0.2526 -0.8361  1.9681
   8623SM  C18F11570   3.081   1.540  14.764  0.0868  0.2217 -0.1562
   8623SM  H18F11571   3.013   1.456  14.738  0.8066 -0.3543 -0.2096
   8623SM  H18G11572   3.018   1.626  14.795  1.3121  0.8691  0.6432
   8623SM  C19F11573   3.186   1.516  14.873  0.4565  0.1854 -0.0791
   8623SM  H19F11574   3.275   1.580  14.856 -0.3118  0.5556 -3.7161
   8623SM  H19G11575   3.217   1.410  14.861  2.1901  0.5019  1.3150
   8623SM  C20F11576   3.117   1.537  15.010 -0.6379 -0.1221  0.3909
   8623SM  H20F11577   3.098   1.644  15.035  0.3135 -0.5408  3.2634
   8623SM  H20G11578   3.185   1.501  15.091 -1.7123 -0.1553  1.3098
   8623SM  C21F11579   2.973   1.460  15.028 -0.1606 -0.1661  0.3169
   8623SM  H21F11580   2.905   1.492  14.947  1.6615  1.3395 -0.6724
   8623SM  H21G11581   2.940   1.500  15.126  1.4386 -1.0092  1.2513
   8623SM  C22F11582   2.990   1.307  15.045 -0.7721  0.0905  0.0326
   8623SM  H22F11583   3.063   1.279  15.124 -2.4183 -1.4615  1.0871
   8623SM  H22G11584   3.027   1.269  14.947 -1.6583  1.8727 -1.0499
   8623SM  C23F11585   2.858   1.238  15.095 -0.6742 -0.0624  0.3483
   8623SM  H23F11586   2.819   1.304  15.176  1.7989  2.0332 -0.0191
   8623SM  H23G11587   2.879   1.133  15.122  0.0862  0.2395  0.9606
   8623SM  H23H11588   2.775   1.235  15.021 -1.1977  1.8997  0.7721
   8723SM     N11589   4.551   0.780  12.557 -0.3941  0.0763  0.7038
   8723SM   C1511590   4.643   0.751  12.447 -0.1245  0.6829 -0.7340
   8723SM  H15A11591   4.728   0.818  12.444  0.0552  0.4606 -0.6258
   8723SM  H15B11592   4.595   0.742  12.351  0.7965 -1.4026 -1.0508
   8723SM  H15C11593   4.688   0.653  12.454 -0.7521  0.3990 -0.5959
   8723SM   C1411594   4.438   0.688  12.544  0.1394  0.1919  0.3317
   8723SM  H14A11595   4.466   0.584  12.538 -1.1449 -0.2884  1.8006
   8723SM  H14B11596   4.396   0.697  12.445  3.0804 -1.9505 -1.2693
   8723SM  H14C11597   4.366   0.695  12.625  2.6590  0.9534  2.6354
   8723SM   C1311598   4.615   0.750  12.688  0.4770  0.7361  0.1238
   8723SM  H13A11599   4.642   0.646  12.700  1.4569  0.8051 -1.3094
   8723SM  H13B11600   4.556   0.777  12.775  0.7629  0.3704  0.4399
   8723SM  H13C11601   4.711   0.798  12.699  1.0734 -0.5643  0.8958
   8723SM   C1211602   4.507   0.926  12.539 -0.1586 -0.0504 -1.1253
   8723SM  H12A11603   4.485   0.932  12.434  3.5892 -2.3551 -2.2361
   8723SM  H12B11604   4.588   0.993  12.563 -1.2759  0.2606  2.2802
   8723SM   C1111605   4.377   0.969  12.612 -0.2978 -0.2080  0.0505
   8723SM  H11A11606   4.364   1.078  12.629 -0.0928 -0.1530 -0.1341
   8723SM  H11B11607   4.395   0.934  12.716  2.0696  2.9789  0.8526
   8723SM     P11608   4.131   0.877  12.627 -0.1698  0.2113 -0.1219
   8723SM   O1311609   4.020   0.838  12.533 -0.8136 -0.4837 -0.1302
   8723SM   O1411610   4.167   0.771  12.722  0.3777  0.4941  0.2115
   8723SM   O1111611   4.086   1.004  12.708 -0.1180  0.2126  0.1711
   8723SM   O1211612   4.260   0.926  12.549  0.5467 -0.2233  0.2422
   8723SM   C1S11613   3.961   1.011  12.772  0.4475  0.4981 -0.1706
   8723SM   H1S11614   3.930   0.907  12.795  1.3133  0.5427  1.3230
   8723SM   H1T11615   3.880   1.049  12.707 -0.6892  0.0613  0.9432
   8723SM    NF11616   3.833   1.077  12.982 -0.7372 -0.1311  0.5857
   8723SM   HNF11617   3.770   1.155  12.977  0.5326  0.8384 -2.4322
   8723SM   C2S11618   3.957   1.098  12.901 -0.3645 -0.2862 -0.0886
   8723SM   H2S11619   4.041   1.055  12.959  1.1032 -0.2722 -2.0785
   8723SM   C3S11620   3.990   1.244  12.863 -0.6083  0.4373  0.2388
   8723SM   H3S11621   3.905   1.280  12.801 -0.7228  0.4703  0.4126
   8723SM    O311622   4.107   1.253  12.786  0.1727 -0.3642  0.0599
   8723SM   HO311623   4.115   1.163  12.752  1.5951  0.3211 -1.5574
   8723SM   C4S11624   3.992   1.334  12.980  0.4366  0.6385  0.4769
   8723SM   H4S11625   3.909   1.407  12.981 -1.5664 -1.4373 -1.4103
   8723SM   C5S11626   4.088   1.350  13.079 -0.3169 -0.5648  0.3700
   8723SM   H5S11627   4.183   1.295  13.071 -0.8446 -1.5528  0.7604
   8723SM   C6S11628   4.088   1.446  13.188 -0.1485  0.8024 -0.2717
   8723SM   H6S11629   4.168   1.521  13.173  0.9741 -0.6808 -2.1136
   8723SM   H6T11630   4.114   1.393  13.282  0.0456 -0.2989 -0.9286
   8723SM   C7S11631   3.962   1.535  13.202  0.3859  0.5674 -0.7636
   8723SM   H7S11632   3.874   1.466  13.203  0.9030 -0.1019 -0.6959
   8723SM   H7T11633   3.944   1.598  13.112 -0.7764  2.2510  0.5958
   8723SM   C8S11634   3.962   1.619  13.333  0.0736  0.5833 -0.5608
   8723SM   H8S11635   4.035   1.697  13.304 -1.1699  1.6207 -1.0008
   8723SM   H8T11636   4.006   1.577  13.426  0.6557  1.3282 -0.4928
   8723SM   C9S11637   3.818   1.679  13.375 -0.0862 -0.1518  0.0639
   8723SM   H9S11638   3.756   1.597  13.416  1.7487 -0.7698  1.7441
   8723SM   H9T11639   3.768   1.733  13.291 -0.9278  1.1225  1.3288
   8723SM  C10S11640   3.831   1.784  13.489  0.2592  0.6026  0.6463
   8723SM  H10S11641   3.740   1.847  13.493 -0.2039  0.0722 -1.0051
   8723SM  H10T11642   3.913   1.852  13.456  1.4217 -2.2223 -2.9749
   8723SM  C11S11643   3.857   1.715  13.622  0.4114  0.2283 -1.3089
   8723SM  H11S11644   3.940   1.643  13.640 -1.3995 -1.2736  1.8524
   8723SM  H11T11645   3.770   1.646  13.635  0.4696  0.4732  0.7790
   8723SM  C12S11646   3.852   1.819  13.737 -0.0320  0.6269 -0.2437
   8723SM  H12S11647   3.764   1.885  13.727 -0.3825  0.4173  1.2691
   8723SM  H12T11648   3.947   1.876  13.735  1.8504 -2.2462  0.2856
   8723SM  C13S11649   3.856   1.752  13.877 -0.3172  0.4209 -0.0156
   8723SM  H13S11650   3.945   1.687  13.884 -0.9757 -0.8044 -2.3389
   8723SM  H13T11651   3.775   1.677  13.890 -1.1925  1.5059  1.0701
   8723SM  C14S11652   3.845   1.848  13.996  0.6016  0.1856 -0.4442
   8723SM  H14S11653   3.738   1.872  14.014  1.1291  2.5246 -0.1807
   8723SM  H14T11654   3.910   1.937  13.980  0.9881  0.1555  0.8353
   8723SM  C15S11655   3.891   1.783  14.139  0.4226 -0.4756 -0.0445
   8723SM  H15S11656   3.862   1.676  14.142  1.2515 -0.7734 -1.5702
   8723SM  H15T11657   3.829   1.843  14.209 -0.0124 -0.5044 -0.3970
   8723SM  C16S11658   4.037   1.803  14.167  0.3434  0.0927  0.1579
   8723SM  H16S11659   4.075   1.901  14.131  1.1594  0.1407  1.1116
   8723SM  H16T11660   4.094   1.721  14.118  2.2933  1.1361  0.5700
   8723SM  C17S11661   4.074   1.801  14.314  0.2820 -0.0108  0.0985
   8723SM  H17S11662   4.014   1.718  14.359 -0.0629 -0.3365 -0.9143
   8723SM  H17T11663   4.036   1.894  14.360  0.9825  0.4341 -0.2075
   8723SM  C18S11664   4.226   1.777  14.336  0.6193 -0.0815  0.1164
   8723SM  H18S11665   4.272   1.862  14.281 -0.1424 -0.5834 -1.3472
   8723SM  H18T11666   4.268   1.693  14.277  1.4179  0.8025 -0.6166
   8723SM  H18U11667   4.252   1.781  14.444 -1.9537  2.7899  0.7751
   8723SM   C1F11668   3.805   0.961  13.039 -0.2794 -0.3976 -0.4523
   8723SM    OF11669   3.884   0.872  13.044  0.4114 -0.7899 -0.4267
   8723SM   C2F11670   3.669   0.943  13.105  0.7384  0.6560 -0.3192
   8723SM   H2F11671   3.586   0.948  13.032 -0.2185 -1.9158  0.4944
   8723SM   H2G11672   3.651   1.017  13.186  0.3693  0.1181  0.0995
   8723SM   C3F11673   3.654   0.802  13.173  0.0247  0.2000 -0.2186
   8723SM   H3F11674   3.751   0.763  13.212 -1.0286  0.1203  2.5323
   8723SM   H3G11675   3.628   0.731  13.092 -3.3972  0.2427  0.7110
   8723SM   C4F11676   3.548   0.807  13.277 -0.0252 -0.1863 -0.9281
   8723SM   H4F11677   3.450   0.853  13.249  0.4101  2.1017  0.9659
   8723SM   H4G11678   3.588   0.868  13.361 -0.0623  1.1584 -1.8570
   8723SM   C5F11679   3.522   0.669  13.336 -0.2462  0.8570 -0.4826
   8723SM   H5F11680   3.494   0.604  13.250 -1.7052  0.2297  0.4349
   8723SM   H5G11681   3.435   0.682  13.403 -1.7188  1.6464 -2.4329
   8723SM   C6F11682   3.639   0.605  13.410 -0.8443 -0.4013  0.2725
   8723SM   H6F11683   3.687   0.684  13.472  0.3358 -1.1276  0.3123
   8723SM   H6G11684   3.715   0.574  13.335 -0.4960 -0.3408  0.5968
   8723SM   C7F11685   3.614   0.479  13.478  0.2116  0.5100 -1.0429
   8723SM   H7F11686   3.574   0.399  13.412 -2.1998 -0.4466  1.3839
   8723SM   H7G11687   3.545   0.496  13.563 -0.5988  2.5737 -2.0556
   8723SM   C8F11688   3.748   0.427  13.542 -0.1063 -0.0770 -0.2345
   8723SM   H8F11689   3.802   0.509  13.593 -1.1465  0.1087  0.5982
   8723SM   H8G11690   3.818   0.388  13.464 -1.0671 -2.5334  0.0229
   8723SM   C9F11691   3.736   0.309  13.646 -0.3557 -0.1060 -0.1586
   8723SM   H9F11692   3.694   0.228  13.583 -0.7552 -1.7118  2.0797
   8723SM   H9G11693   3.657   0.326  13.722  0.1515 -0.2635  0.4086
   8723SM  C10F11694   3.877   0.274  13.709  0.5038 -0.4900  0.2041
   8723SM  H10F11695   3.944   0.256  13.623  0.3045 -1.8900  0.3176
   8723SM  H10G11696   3.875   0.174  13.758  0.9932 -0.2613  0.7095
   8723SM  C11F11697   3.919   0.363  13.821  0.2462  0.1315  0.3123
   8723SM  H11F11698   3.872   0.337  13.918 -1.7568 -0.2482 -0.7250
   8723SM  H11G11699   3.894   0.469  13.798 -0.6970 -0.5364 -2.0031
   8723SM  C12F11700   4.071   0.371  13.825 -0.8771  0.1895 -0.4279
   8723SM  H12F11701   4.103   0.435  13.910 -3.5866  2.1905 -0.8030
   8723SM  H12G11702   4.099   0.428  13.734 -0.3416 -0.2492 -0.5506
   8723SM  C13F11703   4.150   0.235  13.834  0.5618  0.1371 -0.2469
   8723SM  H13F11704   4.258   0.262  13.836  0.5191  0.2830  0.6029
   8723SM  H13G11705   4.120   0.165  13.753 -1.7592  1.2595 -0.4271
   8723SM  C14F11706   4.107   0.161  13.964  0.4098 -0.2833 -0.0197
   8723SM  H14F11707   4.000   0.189  13.979 -0.4054 -3.3759  0.6181
   8723SM  H14G11708   4.173   0.188  14.049 -2.6981  2.5493  1.7529
   8723SM  C15F11709   4.089   0.004  13.955  0.2882  0.5565 -0.3183
   8723SM  H15F11710   4.184  -0.035  13.915  1.1390  2.2233 -0.0170
   8723SM  H15G11711   4.000  -0.021  13.894  1.2461  0.7950 -1.8586
   8723SM  C16F11712   4.081  -0.070  14.082 -0.0552 -0.7303  0.3305
   8723SM  H16F11713   4.083   0.004  14.165 -0.0250 -0.6016  0.2149
   8723SM  H16G11714   4.168  -0.134  14.103 -0.0323 -0.7523  0.1643
   8723SM  C17F11715   3.956  -0.153  14.099  0.2214 -0.1900 -0.2063
   8723SM  H17F11716   3.874  -0.082  14.120  1.6656  1.1652  1.0811
   8723SM  H17G11717   3.974  -0.218  14.188  0.1157  0.9199  0.6410
   8723SM  C18F11718   3.911  -0.240  13.978  0.4002  0.5996  0.2326
   8723SM  H18F11719   3.998  -0.293  13.933  0.8898  1.7755 -0.2416
   8723SM  H18G11720   3.878  -0.170  13.898 -0.8875 -1.4651 -1.1504
   8723SM  C19F11721   3.797  -0.340  13.994  0.0628  0.4481  0.0668
   8723SM  H19F11722   3.837  -0.422  14.057 -2.6805 -0.4666  0.7261
   8723SM  H19G11723   3.755  -0.378  13.899 -2.8061 -0.4309  1.5789
   8723SM  C20F11724   3.674  -0.274  14.062  0.2925 -0.0851 -0.0157
   8723SM  H20F11725   3.668  -0.182  14.000  4.5612  0.7757  0.5357
   8723SM  H20G11726   3.694  -0.241  14.166  0.7615 -0.3454 -0.0204
   8723SM  C21F11727   3.543  -0.345  14.057  0.1037  0.1146  0.8473
   8723SM  H21F11728   3.539  -0.405  13.964 -1.7426  1.1292  0.2392
   8723SM  H21G11729   3.456  -0.276  14.060 -2.0952 -2.4531 -0.0521
   8723SM  C22F11730   3.534  -0.441  14.176  0.0691  0.3668 -0.4031
   8723SM  H22F11731   3.573  -0.399  14.272  1.8879  0.7407 -1.2679
   8723SM  H22G11732   3.616  -0.512  14.154  0.6928  0.6071  0.9886
   8723SM  C23F11733   3.397  -0.499  14.199  0.4164  0.9544 -0.5153
   8723SM  H23F11734   3.329  -0.421  14.238  1.1721 -0.0590  3.2099
   8723SM  H23G11735   3.400  -0.569  14.285  2.1310  2.4322  0.6999
   8723SM  H23H11736   3.364  -0.538  14.099  1.9208 -0.3930 -0.5253
   8823SM     N11737   0.615   2.793  12.755 -0.1320  0.0280 -0.3575
   8823SM   C1511738   0.561   2.750  12.621  0.7842 -0.0450  0.1646
   8823SM  H15A11739   0.456   2.774  12.614  0.8628  0.1292 -0.4811
   8823SM  H15B11740   0.569   2.644  12.600  1.3672  0.0366 -0.0468
   8823SM  H15C11741   0.608   2.814  12.547 -0.4470  1.5276  0.7061
   8823SM   C1411742   0.627   2.943  12.771  0.0024  0.2860  0.2850
   8823SM  H14A11743   0.690   2.974  12.689 -0.1030 -0.9633 -0.2931
   8823SM  H14B11744   0.672   2.968  12.866  0.8528 -0.0038 -0.0290
   8823SM  H14C11745   0.532   2.994  12.764 -0.6915 -1.0888 -0.8408
   8823SM   C1311746   0.522   2.738  12.860  0.1220 -0.2209 -0.1604
   8823SM  H13A11747   0.551   2.770  12.959  2.4285  3.2046 -1.7563
   8823SM  H13B11748   0.514   2.630  12.859 -0.0522 -0.2462  1.1989
   8823SM  H13C11749   0.420   2.765  12.834  0.5349  2.1242  0.3881
   8823SM   C1211750   0.755   2.729  12.776 -0.4010  0.2457 -0.0049
   8823SM  H12A11751   0.825   2.788  12.718 -0.5912 -0.8153 -1.3516
   8823SM  H12B11752   0.764   2.629  12.738 -0.3146  0.4019 -0.4078
   8823SM   C1111753   0.822   2.743  12.906 -0.1547  0.6681 -0.9573
   8823SM  H11A11754   0.763   2.686  12.982  0.5181 -1.4266 -1.9252
   8823SM  H11B11755   0.820   2.850  12.934 -1.7987  0.1493  1.2064
   8823SM     P11756   1.042   2.719  13.027  0.0256 -0.2110 -0.5096
   8823SM   O1311757   1.164   2.632  13.016 -0.2489 -0.1910 -0.3642
   8823SM   O1411758   1.060   2.865  13.056  0.0209 -0.5015 -0.5944
   8823SM   O1111759   0.953   2.659  13.142  0.5024  0.2491 -0.3098
   8823SM   O1211760   0.958   2.696  12.895  0.1912 -0.2135  0.2681
   8823SM   C1S11761   1.008   2.626  13.275  0.1687  0.1576 -0.1021
   8823SM   H1S11762   1.114   2.657  13.290  0.2006  0.2245 -0.4659
   8823SM   H1T11763   0.992   2.517  13.288  0.5622  0.1019 -0.0552
   8823SM    NF11764   0.999   2.683  13.521  0.0818  0.1151  0.3666
   8823SM   HNF11765   0.966   2.633  13.600  1.6916  4.6324  4.4147
   8823SM   C2S11766   0.928   2.690  13.396 -0.0187  0.3453  1.3326
   8823SM   H2S11767   0.920   2.797  13.368 -0.7265 -0.3837 -1.6238
   8823SM   C3S11768   0.771   2.650  13.398 -0.3514  0.3902  0.7316
   8823SM   H3S11769   0.767   2.541  13.418 -0.2923  0.5267  1.5263
   8823SM    O311770   0.699   2.670  13.278  0.4477  0.0817  0.3210
   8823SM   HO311771   0.767   2.710  13.224  0.4971  1.5374  1.3953
   8823SM   C4S11772   0.693   2.700  13.519 -0.0629 -0.3741  0.7914
   8823SM   H4S11773   0.726   2.657  13.615  0.5344 -0.5424  0.5212
   8823SM   C5S11774   0.607   2.810  13.532 -0.0620  0.6626  0.0823
   8823SM   H5S11775   0.597   2.876  13.444  1.6572 -1.5212 -1.8757
   8823SM   C6S11776   0.562   2.860  13.669 -0.0855 -0.2711  0.1821
   8823SM   H6S11777   0.483   2.793  13.709  0.0238 -0.3610  0.2481
   8823SM   H6T11778   0.509   2.956  13.651  0.4175 -0.3834 -2.2021
   8823SM   C7S11779   0.676   2.885  13.773  0.4417  0.0254 -1.1422
   8823SM   H7S11780   0.754   2.956  13.736  1.6931 -1.2023 -0.9391
   8823SM   H7T11781   0.724   2.786  13.790 -0.5072 -0.1876  0.5339
   8823SM   C8S11782   0.622   2.940  13.910 -0.3868 -0.1075  0.5619
   8823SM   H8S11783   0.596   3.047  13.898 -0.5646 -0.1925  0.1891
   8823SM   H8T11784   0.708   2.942  13.980  0.0160  0.7741  0.0515
   8823SM   C9S11785   0.499   2.874  13.979 -0.1877  0.2846  0.4431
   8823SM   H9S11786   0.413   2.886  13.909  0.1268  0.1453  0.0254
   8823SM   H9T11787   0.475   2.940  14.065 -1.1509  0.3006  0.1704
   8823SM  C10S11788   0.520   2.727  14.016 -0.1691  0.7357 -0.2741
   8823SM  H10S11789   0.615   2.717  14.072 -0.9101 -0.4065  0.8577
   8823SM  H10T11790   0.539   2.674  13.921  1.8884 -1.0385  1.0323
   8823SM  C11S11791   0.410   2.667  14.102  0.2047 -0.2522  0.3185
   8823SM  H11S11792   0.440   2.560  14.115  1.9923 -0.1793 -2.3756
   8823SM  H11T11793   0.328   2.652  14.029  1.2579 -2.1607 -0.5725
   8823SM  C12S11794   0.379   2.732  14.237  0.3635 -0.0739 -0.2324
   8823SM  H12S11795   0.296   2.681  14.291 -0.1055  0.9375  0.0291
   8823SM  H12T11796   0.327   2.825  14.205  0.2891 -0.1358 -0.2970
   8823SM  C13S11797   0.497   2.755  14.337  0.4555  0.2358  0.1643
   8823SM  H13S11798   0.576   2.810  14.281  1.3077  0.0575  1.1803
   8823SM  H13T11799   0.529   2.656  14.375 -0.0204  0.3985  0.9998
   8823SM  C14S11800   0.456   2.839  14.458  0.1385  0.1038  0.2412
   8823SM  H14S11801   0.368   2.791  14.505  0.4439 -0.8756 -0.1561
   8823SM  H14T11802   0.421   2.939  14.425 -1.9248 -1.5919 -3.1727
   8823SM  C15S11803   0.577   2.843  14.561 -0.3380 -0.0299  0.1927
   8823SM  H15S11804   0.564   2.916  14.643  2.3492  1.2697 -0.4267
   8823SM  H15T11805   0.660   2.871  14.493 -1.0241 -0.8799 -1.0399
   8823SM  C16S11806   0.610   2.705  14.619 -0.1775  0.1764 -0.0575
   8823SM  H16S11807   0.667   2.640  14.548  1.0554 -2.8398  3.3788
   8823SM  H16T11808   0.511   2.659  14.638  0.6336 -1.4552  0.4322
   8823SM  C17S11809   0.697   2.716  14.748 -0.6303  0.2285  0.4629
   8823SM  H17S11810   0.785   2.777  14.719 -0.0840 -0.9221 -0.3366
   8823SM  H17T11811   0.756   2.625  14.772  0.0807  0.4056 -0.5790
   8823SM  C18S11812   0.629   2.768  14.868 -0.0715 -0.6221 -0.2024
   8823SM  H18S11813   0.520   2.752  14.882 -0.0285 -0.5836  0.1798
   8823SM  H18T11814   0.637   2.879  14.871 -0.0863 -0.5564 -1.8820
   8823SM  H18U11815   0.689   2.742  14.957 -0.7357 -0.8092  0.1965
   8823SM   C1F11816   1.123   2.731  13.538  0.0766 -0.1030 -0.3645
   8823SM    OF11817   1.167   2.812  13.461  0.0427  0.0096 -0.0239
   8823SM   C2F11818   1.211   2.675  13.653 -0.8409  0.4715  0.0673
   8823SM   H2F11819   1.280   2.602  13.608 -0.7839  1.2170 -1.1053
   8823SM   H2G11820   1.139   2.632  13.726 -0.5095  0.4679  0.3925
   8823SM   C3F11821   1.278   2.785  13.735  0.2464 -0.1125  0.3672
   8823SM   H3F11822   1.359   2.823  13.669  0.3353 -1.6589 -0.4527
   8823SM   H3G11823   1.335   2.733  13.815 -0.2617  0.6480  1.2383
   8823SM   C4F11824   1.201   2.897  13.809 -0.1243  0.1472  0.0630
   8823SM   H4F11825   1.109   2.860  13.858  0.8765  0.7695  2.5573
   8823SM   H4G11826   1.173   2.964  13.725  1.8070 -0.0679 -0.8135
   8823SM   C5F11827   1.292   2.976  13.905 -0.6211  0.3694  0.5184
   8823SM   H5F11828   1.384   3.005  13.850  0.3648  1.0341  2.4009
   8823SM   H5G11829   1.329   2.900  13.978  2.1690  0.9197 -0.2032
   8823SM   C6F11830   1.212   3.093  13.954  0.3184 -0.2976  1.2191
   8823SM   H6F11831   1.115   3.061  13.999  0.6980  1.0493  3.1281
   8823SM   H6G11832   1.196   3.169  13.874  0.6833 -0.9082  0.5583
   8823SM   C7F11833   1.279   3.168  14.066 -0.4476 -0.0813  0.8226
   8823SM   H7F11834   1.377   3.194  14.021 -0.8985 -1.9344 -1.3756
   8823SM   H7G11835   1.282   3.094  14.149 -1.6846 -2.8730 -1.4517
   8823SM   C8F11836   1.193   3.289  14.109  0.6845 -0.5211 -0.1234
   8823SM   H8F11837   1.090   3.251  14.130  0.5773  0.5828  1.5747
   8823SM   H8G11838   1.192   3.375  14.039  0.1626  0.4893  1.0708
   8823SM   C9F11839   1.242   3.351  14.244 -0.2557 -0.1570  0.0609
   8823SM   H9F11840   1.332   3.410  14.214  0.6849 -2.3027 -1.6616
   8823SM   H9G11841   1.272   3.262  14.302  1.1147 -1.3726 -2.3437
   8823SM  C10F11842   1.126   3.432  14.315  0.5995 -0.7805  0.6443
   8823SM  H10F11843   1.051   3.351  14.328  0.6952 -0.7105  1.6931
   8823SM  H10G11844   1.076   3.503  14.246 -1.2365 -0.4918  2.2038
   8823SM  C11F11845   1.162   3.489  14.453 -0.0040 -0.2174 -0.0873
   8823SM  H11F11846   1.241   3.568  14.448  1.0648 -1.2976 -1.1828
   8823SM  H11G11847   1.208   3.403  14.506  1.0359  0.3767  0.0095
   8823SM  C12F11848   1.039   3.552  14.518 -0.0191  0.4337 -0.2499
   8823SM  H12F11849   0.980   3.461  14.541  1.1438 -0.2127  0.2362
   8823SM  H12G11850   0.986   3.626  14.454  2.3939  2.4849 -0.0344
   8823SM  C13F11851   1.071   3.618  14.648  0.1990 -0.7988 -0.2807
   8823SM  H13F11852   1.154   3.693  14.645  0.5612 -1.1811  0.0282
   8823SM  H13G11853   1.111   3.544  14.721 -0.1730 -1.2691 -0.5567
   8823SM  C14F11854   0.952   3.678  14.721 -0.1726 -0.3730 -0.1204
   8823SM  H14F11855   0.864   3.622  14.683  0.3648 -0.5607 -1.1118
   8823SM  H14G11856   0.950   3.780  14.675  0.1580  0.4355  1.5889
   8823SM  C15F11857   0.950   3.678  14.876 -0.9794  0.3442  0.5199
   8823SM  H15F11858   1.045   3.711  14.923  0.5254 -0.8870 -1.4670
   8823SM  H15G11859   0.935   3.573  14.908 -2.3187  1.0243  2.2386
   8823SM  C16F11860   0.832   3.758  14.926 -0.1590  0.6297  0.0568
   8823SM  H16F11861   0.737   3.718  14.884 -1.6740  2.7732  1.2197
   8823SM  H16G11862   0.839   3.863  14.890 -0.5289  1.3677  1.9807
   8823SM  C17F11863   0.826   3.766  15.082 -0.4760  0.3752  0.6451
   8823SM  H17F11864   0.837   3.667  15.131 -1.1277 -0.5482 -0.9748
   8823SM  H17G11865   0.727   3.808  15.112 -0.6593  0.3289  0.1166
   8823SM  C18F11866   0.939   3.849  15.138  0.3756  0.1261  0.5157
   8823SM  H18F11867   0.921   3.951  15.096  0.1154  0.5096  1.5227
   8823SM  H18G11868   1.044   3.828  15.107  0.6902  0.1088  1.5428
   8823SM  C19F11869   0.923   3.851  15.292  0.8311  0.2855  0.1105
   8823SM  H19F11870   0.928   3.751  15.342  0.4404 -0.3237 -1.0400
   8823SM  H19G11871   0.824   3.899  15.306  0.8217  0.6029 -1.0047
   8823SM  C20F11872   1.028   3.942  15.353 -0.4674 -0.0433  0.5910
   8823SM  H20F11873   0.999   3.958  15.460  0.8255  0.7411  0.8417
   8823SM  H20G11874   1.023   4.046  15.314 -2.0410  0.1332  1.1757
   8823SM  C21F11875   1.176   3.887  15.337 -0.0034  0.1419 -0.5713
   8823SM  H21F11876   1.199   3.889  15.228 -2.1782 -1.6521 -1.1459
   8823SM  H21G11877   1.183   3.778  15.356  0.3330  0.4592  1.2952
   8823SM  C22F11878   1.264   3.947  15.438 -0.7145  0.7656 -1.1672
   8823SM  H22F11879   1.355   3.884  15.438 -1.9020 -1.1397  1.2789
   8823SM  H22G11880   1.213   3.945  15.537 -0.7728  0.5324 -1.1996
   8823SM  C23F11881   1.308   4.084  15.396 -0.3585  0.7741 -0.4599
   8823SM  H23F11882   1.371   4.137  15.471 -1.3185  2.0067 -0.4891
   8823SM  H23G11883   1.218   4.143  15.373 -0.3108  0.3590 -1.7634
   8823SM  H23H11884   1.375   4.088  15.307  1.5024 -0.9079  0.7772
   8923SM     N11885   6.083   1.964  13.118  0.1122 -0.1241  0.0807
   8923SM   C1511886   6.155   1.911  12.996 -0.6071 -0.4649 -0.3955
   8923SM  H15A11887   6.083   1.861  12.932  0.3152 -0.3398 -1.5627
   8923SM  H15B11888   6.235   1.844  13.025 -1.1395 -0.4080  1.3468
   8923SM  H15C11889   6.185   1.989  12.928 -2.2632  1.3130  0.8054
   8923SM   C1411890   6.035   1.859  13.215  0.4770 -0.4891  0.1804
   8923SM  H14A11891   6.094   1.769  13.203  2.7274  0.9788 -0.4059
   8923SM  H14B11892   5.931   1.834  13.197  0.4102  0.0173 -0.1610
   8923SM  H14C11893   6.029   1.899  13.315  1.2763 -3.7958  1.7009
   8923SM   C1311894   6.191   2.048  13.179 -0.5678  0.1209 -0.0479
   8923SM  H13A11895   6.207   2.136  13.119  0.5991 -1.0080 -1.4457
   8923SM  H13B11896   6.285   1.997  13.192 -0.8135 -0.6609 -1.1659
   8923SM  H13C11897   6.153   2.077  13.276 -0.2761 -0.9618  0.4151
   8923SM   C1211898   5.971   2.053  13.082  0.2541 -0.5187 -1.1253
   8923SM  H12A11899   6.010   2.120  13.007  0.9136 -0.1695 -0.4868
   8923SM  H12B11900   5.942   2.115  13.166 -2.6180 -0.2166 -2.2354
   8923SM   C1111901   5.841   2.002  13.016  0.0186 -0.6403  0.0900
   8923SM  H11A11902   5.852   1.973  12.909 -0.9451 -0.5154 -0.0541
   8923SM  H11B11903   5.759   2.077  13.021 -1.3627 -2.0756 -0.0976
   8923SM     P11904   5.727   1.771  13.017  0.2536 -0.1047  0.2913
   8923SM   O1311905   5.638   1.824  12.917  0.2740  1.0693  1.0265
   8923SM   O1411906   5.829   1.681  12.976  0.5006 -0.0011 -0.0723
   8923SM   O1111907   5.634   1.701  13.122 -0.3872 -0.0284  0.5400
   8923SM   O1211908   5.783   1.893  13.098  0.6307 -0.0219 -0.4492
   8923SM   C1S11909   5.679   1.606  13.226  0.1103 -0.3034  0.7657
   8923SM   H1S11910   5.753   1.655  13.293 -0.0617 -0.0309  0.7588
   8923SM   H1T11911   5.722   1.514  13.181 -1.3120 -0.9510  0.7005
   8923SM    NF11912   5.608   1.466  13.424  0.3075 -0.1080 -0.0532
   8923SM   HNF11913   5.578   1.372  13.417 -2.3106  0.6753 -0.5552
   8923SM   C2S11914   5.558   1.561  13.321  0.3278 -0.2575 -0.1291
   8923SM   H2S11915   5.515   1.639  13.387 -1.3856 -0.0007 -1.4510
   8923SM   C3S11916   5.433   1.520  13.234  0.5684  0.6496  0.0268
   8923SM   H3S11917   5.470   1.427  13.187 -1.5936  0.2503 -0.9600
   8923SM    O311918   5.393   1.606  13.130  0.3426  0.0994  0.0714
   8923SM   HO311919   5.473   1.659  13.130 -0.7637  1.8751  1.1180
   8923SM   C4S11920   5.319   1.483  13.327 -0.6286 -0.1591  0.0298
   8923SM   H4S11921   5.324   1.378  13.359 -1.4905  0.2130  1.5156
   8923SM   C5S11922   5.203   1.550  13.351 -1.1047 -0.4261 -1.2412
   8923SM   H5S11923   5.191   1.654  13.315 -0.6103 -0.0228 -0.2959
   8923SM   C6S11924   5.080   1.505  13.432  0.0019  0.2313 -0.3059
   8923SM   H6S11925   5.000   1.480  13.360  0.9606 -0.7908 -1.0461
   8923SM   H6T11926   5.044   1.583  13.503  0.0115 -0.5514  0.5807
   8923SM   C7S11927   5.096   1.377  13.517 -0.8632  0.0416  0.4698
   8923SM   H7S11928   5.173   1.392  13.595  0.6079  0.7267 -1.0569
   8923SM   H7T11929   5.135   1.293  13.456 -1.2895  0.2289 -0.0705
   8923SM   C8S11930   4.964   1.336  13.587  0.0303 -0.4409  0.1437
   8923SM   H8S11931   4.898   1.308  13.502  0.8061  4.3541 -2.3666
   8923SM   H8T11932   4.923   1.427  13.637 -2.4096 -2.2552  1.6936
   8923SM   C9S11933   4.968   1.215  13.686 -0.1444 -0.3581 -0.0023
   8923SM   H9S11934   5.064   1.224  13.741  1.5490  0.2440 -2.8121
   8923SM   H9T11935   4.992   1.121  13.631  0.0761 -1.2588  1.5863
   8923SM  C10S11936   4.843   1.226  13.775 -0.0810  0.7692 -1.1643
   8923SM  H10S11937   4.749   1.240  13.718  0.0723  0.9700 -1.3704
   8923SM  H10T11938   4.856   1.319  13.834  2.2440 -0.7172  0.8946
   8923SM  C11S11939   4.839   1.119  13.888 -0.1301  0.8055 -0.6577
   8923SM  H11S11940   4.932   1.128  13.947 -0.9185  2.6807  0.3964
   8923SM  H11T11941   4.838   1.015  13.849 -1.2947 -0.6385  2.8532
   8923SM  C12S11942   4.715   1.120  13.968  0.6604 -0.2041  0.2193
   8923SM  H12S11943   4.620   1.113  13.910 -0.1683  1.8001  1.2135
   8923SM  H12T11944   4.715   1.223  14.011 -0.0698  1.3647 -3.1474
   8923SM  C13S11945   4.712   1.018  14.079 -0.4475 -0.4568 -0.0602
   8923SM  H13S11946   4.802   1.026  14.144  0.0134 -1.2635 -0.5782
   8923SM  H13T11947   4.715   0.919  14.028  0.9791  0.1063 -1.1353
   8923SM  C14S11948   4.591   1.037  14.171  0.4920  0.0673 -0.9190
   8923SM  H14S11949   4.512   1.085  14.109  0.5876  1.0196 -0.3222
   8923SM  H14T11950   4.624   1.093  14.261 -0.4924 -0.2898 -0.3263
   8923SM  C15S11951   4.545   0.906  14.236  0.0426  0.1291  0.2464
   8923SM  H15S11952   4.628   0.835  14.255  1.8365  1.6784 -1.4501
   8923SM  H15T11953   4.479   0.856  14.162  0.7750  0.5592 -0.7143
   8923SM  C16S11954   4.453   0.932  14.353  0.2443 -0.3201  0.2822
   8923SM  H16S11955   4.503   0.962  14.447 -2.0367 -1.0210  1.7999
   8923SM  H16T11956   4.407   0.835  14.383  0.0109 -0.6535 -1.0535
   8923SM  C17S11957   4.337   1.037  14.313 -0.5285 -0.4405 -0.5159
   8923SM  H17S11958   4.281   0.998  14.225 -2.9718  0.7119  0.4583
   8923SM  H17T11959   4.384   1.135  14.290 -0.2826 -0.1263  1.1799
   8923SM  C18S11960   4.237   1.041  14.428  0.9067 -0.7361 -0.7712
   8923SM  H18S11961   4.172   0.952  14.425 -1.2279  0.6562  0.6948
   8923SM  H18T11962   4.170   1.130  14.421  0.9183 -0.8039 -1.8266
   8923SM  H18U11963   4.284   1.053  14.528 -1.9448  0.0657  0.5976
   8923SM   C1F11964   5.691   1.503  13.527  0.3879 -0.0015 -0.5448
   8923SM    OF11965   5.731   1.614  13.552  0.6610 -0.8483 -0.2934
   8923SM   C2F11966   5.731   1.386  13.621 -0.2795 -0.0484 -0.8527
   8923SM   H2F11967   5.838   1.366  13.597 -0.5923  0.4633 -2.9134
   8923SM   H2G11968   5.676   1.293  13.594  0.4323 -0.3418 -1.3097
   8923SM   C3F11969   5.702   1.413  13.768  0.4801  0.0895 -0.5151
   8923SM   H3F11970   5.592   1.432  13.767  0.1493 -1.6236 -0.1491
   8923SM   H3G11971   5.753   1.503  13.807 -0.3695  1.3553 -2.1991
   8923SM   C4F11972   5.727   1.294  13.858 -0.1244  0.7250 -0.1635
   8923SM   H4F11973   5.813   1.316  13.925  0.1740  2.3593 -1.0472
   8923SM   H4G11974   5.751   1.203  13.799  0.3963 -0.4637  1.7793
   8923SM   C5F11975   5.595   1.265  13.937 -0.5160  0.3344 -0.2097
   8923SM   H5F11976   5.503   1.249  13.877  0.8102 -0.1147 -2.2344
   8923SM   H5G11977   5.568   1.354  13.999 -1.7405  0.4089 -0.8233
   8923SM   C6F11978   5.610   1.144  14.037  0.7492 -0.0981  0.0098
   8923SM   H6F11979   5.697   1.171  14.101  1.4137  2.6625 -1.8558
   8923SM   H6G11980   5.641   1.052  13.983 -2.3112 -0.9608 -0.4320
   8923SM   C7F11981   5.492   1.140  14.133 -0.2111  0.2120 -0.2055
   8923SM   H7F11982   5.407   1.090  14.081  0.7476 -1.6276 -0.0958
   8923SM   H7G11983   5.452   1.239  14.163 -2.9303 -0.5972 -0.8156
   8923SM   C8F11984   5.523   1.048  14.254  0.0444 -0.4284  0.1858
   8923SM   H8F11985   5.615   1.089  14.302  0.5830  0.8149 -1.7593
   8923SM   H8G11986   5.535   0.940  14.234 -2.2182 -0.5248 -0.9844
   8923SM   C9F11987   5.411   1.055  14.358  0.3276 -0.3660  0.1943
   8923SM   H9F11988   5.321   1.022  14.301  1.8662 -3.2522 -0.7575
   8923SM   H9G11989   5.396   1.161  14.389  0.8528 -0.7805  1.9555
   8923SM  C10F11990   5.431   0.975  14.487 -0.2682 -0.7808  0.3233
   8923SM  H10F11991   5.527   1.007  14.533  0.1517 -1.7014  0.1276
   8923SM  H10G11992   5.454   0.871  14.453 -1.0816 -0.9771  0.3573
   8923SM  C11F11993   5.325   0.987  14.592 -0.9625 -0.3251  0.7363
   8923SM  H11F11994   5.232   0.938  14.555  0.5160 -2.0444 -0.9109
   8923SM  H11G11995   5.295   1.091  14.620  0.1980 -0.1231  1.3044
   8923SM  C12F11996   5.366   0.914  14.718 -0.3786 -0.4618  0.5396
   8923SM  H12F11997   5.472   0.940  14.735 -0.2079  0.3651 -1.4295
   8923SM  H12G11998   5.378   0.807  14.692 -0.9639  0.2678 -3.4800
   8923SM  C13F11999   5.285   0.931  14.844 -0.0128  0.4209  0.2613
   8923SM  H13F12000   5.180   0.912  14.815  0.2505 -0.9082  0.1315
   8923SM  H13G12001   5.300   1.034  14.884 -0.4155  1.0308 -1.1031
   8923SM  C14F12002   5.339   0.844  14.958 -0.0512 -0.5062 -0.0638
   8923SM  H14F12003   5.442   0.874  14.986 -0.1606  0.0800 -0.2732
   8923SM  H14G12004   5.345   0.736  14.932 -0.6567 -1.5312  3.5285
   8923SM  C15F12005   5.247   0.858  15.075  0.4122 -0.6281 -0.5810
   8923SM  H15F12006   5.139   0.844  15.049  0.6424 -0.6627 -1.5778
   8923SM  H15G12007   5.271   0.953  15.127 -0.3219 -1.0718  0.6083
   8923SM  C16F12008   5.271   0.746  15.184  0.1494  0.3817 -0.2485
   8923SM  H16F12009   5.357   0.784  15.243  0.1277 -0.6345  0.4526
   8923SM  H16G12010   5.303   0.652  15.133  3.9014  1.5287 -0.3346
   8923SM  C17F12011   5.151   0.717  15.275 -0.4529  0.6746 -0.8719
   8923SM  H17F12012   5.072   0.642  15.254 -1.1197  0.4884  1.9698
   8923SM  H17G12013   5.090   0.809  15.286 -3.4518 -1.0234 -2.1381
   8923SM  C18F12014   5.194   0.700  15.423 -0.4279  0.5550  0.6289
   8923SM  H18F12015   5.254   0.791  15.445  0.8817  0.2774 -1.5113
   8923SM  H18G12016   5.258   0.612  15.448  0.0285  0.6644 -0.1291
   8923SM  C19F12017   5.082   0.693  15.532 -0.0698 -0.3602  0.4775
   8923SM  H19F12018   5.021   0.604  15.507  0.6714 -0.9061  0.5937
   8923SM  H19G12019   5.014   0.779  15.510  0.8716  0.5069  0.8610
   8923SM  C20F12020   5.126   0.706  15.679  0.0209  0.6814 -0.9659
   8923SM  H20F12021   5.163   0.810  15.689 -0.6842  0.8490  0.0053
   8923SM  H20G12022   5.210   0.634  15.693 -2.9102 -2.7714  0.6847
   8923SM  C21F12023   5.012   0.683  15.775  1.3740 -0.2276  0.0201
   8923SM  H21F12024   4.951   0.593  15.752 -0.7232  0.5388  2.2008
   8923SM  H21G12025   4.942   0.768  15.759  0.5500 -1.0032 -0.6459
   8923SM  C22F12026   5.053   0.682  15.923  0.1797 -0.2674 -0.2363
   8923SM  H22F12027   5.121   0.597  15.948  1.4659  0.7219 -0.3157
   8923SM  H22G12028   4.960   0.670  15.983  0.6955 -1.3318  0.3942
   8923SM  C23F12029   5.121   0.810  15.966  0.5781 -0.4395  0.2696
   8923SM  H23F12030   5.050   0.893  15.944  1.0152 -0.1294  0.0044
   8923SM  H23G12031   5.210   0.819  15.900  0.2488 -2.0440 -0.4360
   8923SM  H23H12032   5.138   0.817  16.076  0.2202 -0.6400  0.3400
   9023SM     N12033   5.699   1.513  12.671 -1.6493 -0.5308  0.1839
   9023SM   C1512034   5.649   1.410  12.569  0.4661 -0.6158 -0.4710
   9023SM  H15A12035   5.722   1.333  12.549 -0.6840 -1.8377 -0.1372
   9023SM  H15B12036   5.629   1.458  12.475  1.6745 -0.4819 -0.6699
   9023SM  H15C12037   5.555   1.366  12.599  1.5998 -1.1174  2.7669
   9023SM   C1412038   5.830   1.567  12.622  0.1152 -0.7518  0.1527
   9023SM  H14A12039   5.882   1.625  12.696  3.6314 -0.5974 -2.1984
   9023SM  H14B12040   5.807   1.619  12.530  1.4934 -1.6592 -0.7392
   9023SM  H14C12041   5.897   1.486  12.599  2.0285  0.0597  2.5446
   9023SM   C1312042   5.602   1.625  12.673 -1.1741  0.7481 -0.2892
   9023SM  H13A12043   5.506   1.591  12.711 -1.0935 -0.8419 -1.4192
   9023SM  H13B12044   5.600   1.667  12.574 -0.4067 -0.5535 -0.8826
   9023SM  H13C12045   5.636   1.702  12.741 -0.8540  1.5732 -1.3755
   9023SM   C1212046   5.737   1.452  12.812  0.5866 -0.1802  0.1885
   9023SM  H12A12047   5.785   1.525  12.877 -1.2886  0.9771  0.3400
   9023SM  H12B12048   5.801   1.366  12.801  3.0801  1.6739 -0.9048
   9023SM   C1112049   5.610   1.398  12.890 -0.0299 -0.4850 -0.5124
   9023SM  H11A12050   5.535   1.480  12.899  2.1404  1.4246  1.3951
   9023SM  H11B12051   5.647   1.383  12.993 -0.7925  0.4505 -0.0942
   9023SM     P12052   5.407   1.228  12.839 -0.1565 -0.2119  0.3000
   9023SM   O1312053   5.331   1.325  12.760  0.0653  0.1593 -0.1266
   9023SM   O1412054   5.404   1.091  12.790  0.7036 -0.4157  0.4601
   9023SM   O1112055   5.371   1.233  12.987  0.8785  0.3504  0.0763
   9023SM   O1212056   5.560   1.275  12.838 -0.0574  0.0238  0.4817
   9023SM   C1S12057   5.438   1.153  13.094 -0.7337  0.4807  0.6978
   9023SM   H1S12058   5.521   1.213  13.136 -0.1505  0.4685 -0.3835
   9023SM   H1T12059   5.481   1.064  13.044 -0.5644  0.4480  0.9015
   9023SM    NF12060   5.402   1.048  13.316  0.3450 -0.0545 -0.7942
   9023SM   HNF12061   5.403   0.948  13.314  2.2933 -0.0790 -1.1054
   9023SM   C2S12062   5.339   1.113  13.200  0.0133  0.6887 -0.1113
   9023SM   H2S12063   5.280   1.201  13.235  1.3173  2.6402 -2.5394
   9023SM   C3S12064   5.226   1.028  13.132 -0.2379  0.5300 -0.3778
   9023SM   H3S12065   5.270   0.942  13.075 -0.1709  0.9860 -1.0297
   9023SM    O312066   5.144   1.096  13.037  0.1494 -0.4743 -0.5369
   9023SM   HO312067   5.186   1.178  13.009  0.6514 -1.1411 -1.8320
   9023SM   C4S12068   5.130   0.966  13.230 -0.2938 -1.2203  0.1233
   9023SM   H4S12069   5.045   1.033  13.254  1.2448  0.6762  0.4993
   9023SM   C5S12070   5.129   0.848  13.297 -0.5509  0.2883  0.9261
   9023SM   H5S12071   5.210   0.778  13.275 -1.2553  0.4307 -2.7808
   9023SM   C6S12072   5.020   0.796  13.386 -0.1658 -0.4095 -0.0812
   9023SM   H6S12073   4.999   0.688  13.366  0.0573 -0.9042  2.1673
   9023SM   H6T12074   4.920   0.841  13.366 -0.9310 -2.7203 -2.0103
   9023SM   C7S12075   5.059   0.800  13.537 -0.0333 -0.8021  0.1130
   9023SM   H7S12076   5.087   0.904  13.563  2.2842 -1.6089  1.0581
   9023SM   H7T12077   5.153   0.745  13.555 -0.2411 -0.9140  0.8762
   9023SM   C8S12078   4.957   0.746  13.625  0.2911  0.0678 -0.5296
   9023SM   H8S12079   4.856   0.769  13.584  0.9201  1.3886 -1.4014
   9023SM   H8T12080   4.953   0.783  13.729 -1.1820  0.7522 -0.7982
   9023SM   C9S12081   4.966   0.593  13.634 -0.1913  0.3583 -0.5408
   9023SM   H9S12082   5.070   0.557  13.647 -0.9725 -1.2196  2.0923
   9023SM   H9T12083   4.934   0.556  13.534  1.6257 -1.4154 -0.5170
   9023SM  C10S12084   4.890   0.517  13.738 -0.0283 -0.2064 -0.2265
   9023SM  H10S12085   4.911   0.543  13.844 -0.6097  0.7578 -0.3358
   9023SM  H10T12086   4.902   0.409  13.714  2.1569  0.1853 -1.0999
   9023SM  C11S12087   4.740   0.545  13.735  0.0292 -0.2688 -0.1171
   9023SM  H11S12088   4.718   0.488  13.642  2.9976 -1.5548 -0.1427
   9023SM  H11T12089   4.721   0.655  13.730 -0.3751 -0.3304  0.0272
   9023SM  C12S12090   4.653   0.481  13.854  0.0004 -0.2200 -0.4125
   9023SM  H12S12091   4.678   0.524  13.953 -2.1987  1.4304 -0.4976
   9023SM  H12T12092   4.665   0.371  13.847  1.2617 -0.0571 -1.0978
   9023SM  C13S12093   4.506   0.525  13.839 -0.4187 -0.4231 -0.2484
   9023SM  H13S12094   4.460   0.473  13.752  0.0129  1.4760 -1.6805
   9023SM  H13T12095   4.505   0.635  13.821 -2.6462 -0.3356  0.0719
   9023SM  C14S12096   4.426   0.483  13.965  0.4635  0.0865  0.5150
   9023SM  H14S12097   4.477   0.399  14.017  2.9928  0.1450 -1.6413
   9023SM  H14T12098   4.319   0.463  13.947  0.5308 -0.3771  0.6344
   9023SM  C15S12099   4.433   0.595  14.067 -0.1488  0.4345 -0.1377
   9023SM  H15S12100   4.358   0.673  14.043 -0.6776 -0.2827 -0.8823
   9023SM  H15T12101   4.528   0.652  14.058 -0.0129  0.2579  0.1618
   9023SM  C16S12102   4.426   0.551  14.213 -0.4889  0.6418  0.3062
   9023SM  H16S12103   4.476   0.624  14.281 -2.1680  2.2927 -0.1439
   9023SM  H16T12104   4.494   0.464  14.227 -1.6637 -0.4704 -0.6209
   9023SM  C17S12105   4.287   0.530  14.262 -0.0105  0.9456 -0.4758
   9023SM  H17S12106   4.304   0.507  14.370  2.5878  2.6480 -0.4369
   9023SM  H17T12107   4.237   0.447  14.207 -1.8909  0.3023  2.0223
   9023SM  C18S12108   4.196   0.645  14.256  0.4838  0.3057  0.0065
   9023SM  H18S12109   4.096   0.612  14.293  1.1064 -1.0485  0.5691
   9023SM  H18T12110   4.189   0.680  14.151  0.5368 -1.3215 -0.5752
   9023SM  H18U12111   4.227   0.725  14.327 -0.1233  0.7134 -0.1807
   9023SM   C1F12112   5.476   1.111  13.401  0.1011 -0.2913 -0.1208
   9023SM    OF12113   5.499   1.231  13.382 -0.6366  0.2161 -0.7712
   9023SM   C2F12114   5.529   1.033  13.519 -0.2261  0.2310  0.2660
   9023SM   H2F12115   5.638   1.052  13.513 -0.6047  2.6812  0.0558
   9023SM   H2G12116   5.504   0.925  13.508  1.1227 -0.1878  1.1105
   9023SM   C3F12117   5.480   1.073  13.659 -0.3948 -0.3448 -0.3110
   9023SM   H3F12118   5.462   1.182  13.670  1.1724  0.0472 -1.3496
   9023SM   H3G12119   5.560   1.037  13.726 -0.2296 -1.0000 -0.8494
   9023SM   C4F12120   5.343   1.012  13.692 -0.1892  0.4031 -0.3330
   9023SM   H4F12121   5.323   0.912  13.647  0.0082 -0.1854  0.8647
   9023SM   H4G12122   5.263   1.074  13.646 -0.4230 -0.4712 -1.1558
   9023SM   C5F12123   5.311   0.985  13.837  0.1161 -0.7646 -0.4884
   9023SM   H5F12124   5.300   1.078  13.896  2.0713  0.5418 -2.0437
   9023SM   H5G12125   5.398   0.931  13.880 -1.3434 -2.8424 -0.0253
   9023SM   C6F12126   5.191   0.894  13.856  0.7529 -0.4270 -0.4163
   9023SM   H6F12127   5.224   0.792  13.827  1.7144 -0.0658 -0.6139
   9023SM   H6G12128   5.101   0.926  13.800  0.9571 -1.3779 -1.3218
   9023SM   C7F12129   5.167   0.885  14.009  0.3742  0.2250 -0.0935
   9023SM   H7F12130   5.144   0.989  14.037 -1.9009 -0.0514 -0.7579
   9023SM   H7G12131   5.255   0.837  14.057 -0.5588 -0.9078  0.5402
   9023SM   C8F12132   5.040   0.807  14.042 -0.1455  0.5052 -0.1024
   9023SM   H8F12133   5.044   0.702  14.008 -0.4783  0.4242  0.1031
   9023SM   H8G12134   4.957   0.847  13.980  0.3879  0.9841 -0.5152
   9023SM   C9F12135   4.996   0.814  14.192  0.1903 -0.0744 -0.3387
   9023SM   H9F12136   4.906   0.749  14.197  1.1637 -1.3595  3.1197
   9023SM   H9G12137   4.980   0.920  14.221 -1.3882 -0.5442  0.6175
   9023SM  C10F12138   5.094   0.767  14.295  0.1544 -0.4195  0.5406
   9023SM  H10F12139   5.185   0.831  14.296  0.5477 -0.7998 -2.5263
   9023SM  H10G12140   5.128   0.667  14.262  0.1126 -0.0775 -0.5864
   9023SM  C11F12141   5.022   0.760  14.428 -1.0983  0.1991 -0.0270
   9023SM  H11F12142   4.929   0.700  14.418 -0.6664 -0.8321  1.7170
   9023SM  H11G12143   4.993   0.858  14.473 -1.8018 -0.0271  0.0337
   9023SM  C12F12144   5.114   0.691  14.526 -0.3037  0.0236 -0.9583
   9023SM  H12F12145   5.216   0.733  14.516 -0.5051  0.2207 -2.4420
   9023SM  H12G12146   5.118   0.583  14.502  0.6255 -0.0173 -0.6398
   9023SM  C13F12147   5.071   0.707  14.669  0.7357  0.3711  0.2195
   9023SM  H13F12148   5.047   0.812  14.695  0.8086  0.7494 -1.1351
   9023SM  H13G12149   5.150   0.669  14.737  1.4608  1.2821 -0.0854
   9023SM  C14F12150   4.948   0.629  14.698  0.1567  0.2991  0.4979
   9023SM  H14F12151   4.976   0.522  14.698 -2.2408 -0.4334 -1.6119
   9023SM  H14G12152   4.871   0.629  14.618  1.3400 -2.8423 -0.7740
   9023SM  C15F12153   4.899   0.661  14.847 -0.4381  0.0100  0.1040
   9023SM  H15F12154   4.982   0.636  14.916 -0.2566 -0.7166 -0.3578
   9023SM  H15G12155   4.817   0.587  14.860 -0.3010 -0.3937 -1.1799
   9023SM  C16F12156   4.861   0.802  14.880  0.2412 -0.4556 -0.2462
   9023SM  H16F12157   4.947   0.871  14.862 -0.6053  0.4601 -0.8747
   9023SM  H16G12158   4.827   0.820  14.984  0.3520 -2.9329  0.2861
   9023SM  C17F12159   4.741   0.849  14.796 -0.5887  0.2358 -0.0211
   9023SM  H17F12160   4.751   0.844  14.685  2.1812 -1.4167  0.2059
   9023SM  H17G12161   4.718   0.956  14.809  0.2733  0.3703  0.4449
   9023SM  C18F12162   4.606   0.774  14.829 -0.2419 -0.2221  0.2911
   9023SM  H18F12163   4.569   0.817  14.925 -2.5067  1.9046 -1.3838
   9023SM  H18G12164   4.621   0.665  14.840 -0.9675 -0.2517  1.0602
   9023SM  C19F12165   4.503   0.813  14.717  0.0165 -0.0952  0.0434
   9023SM  H19F12166   4.515   0.745  14.629  0.7383 -1.8264  1.4176
   9023SM  H19G12167   4.519   0.917  14.681  1.3221 -1.2942 -3.2462
   9023SM  C20F12168   4.352   0.803  14.746  0.9633  0.1058 -0.1683
   9023SM  H20F12169   4.294   0.846  14.661  0.6867  0.0025 -0.0346
   9023SM  H20G12170   4.334   0.869  14.833 -1.3777 -1.1737  0.4122
   9023SM  C21F12171   4.295   0.666  14.800  0.4309 -0.4533  0.0280
   9023SM  H21F12172   4.353   0.630  14.888 -1.0140 -0.5078  0.9920
   9023SM  H21G12173   4.285   0.595  14.715 -0.3651 -1.7368  1.1525
   9023SM  C22F12174   4.159   0.696  14.861  0.8707  0.0759 -0.7507
   9023SM  H22F12175   4.095   0.742  14.783 -0.6789  1.0154  0.9806
   9023SM  H22G12176   4.169   0.778  14.935 -0.1993  0.1033 -0.6175
   9023SM  C23F12177   4.090   0.571  14.925  0.0823  0.2554 -0.4143
   9023SM  H23F12178   4.087   0.489  14.849  1.5796 -2.5081  2.2776
   9023SM  H23G12179   3.992   0.606  14.964  0.5593  0.5116  0.5855
   9023SM  H23H12180   4.149   0.524  15.006 -0.2078  0.8679  0.1567
   9123SM     N12181   6.105   4.395  12.829  0.5643  0.1261 -0.1072
   9123SM   C1512182   6.178   4.264  12.823 -0.3829  0.6633 -0.7038
   9123SM  H15A12183   6.281   4.277  12.854 -0.2098 -0.1166 -0.9330
   9123SM  H15B12184   6.176   4.219  12.725  3.7221  2.0874 -1.6676
   9123SM  H15C12185   6.139   4.205  12.904 -0.4154  1.1740 -0.3411
   9123SM   C1412186   6.160   4.485  12.725 -0.3867 -0.0031 -0.8459
   9123SM  H14A12187   6.095   4.568  12.702  1.5456  0.9748 -3.2316
   9123SM  H14B12188   6.187   4.444  12.629  2.6812 -1.1905  0.4280
   9123SM  H14C12189   6.254   4.528  12.756  0.2361 -2.9577  1.8909
   9123SM   C1312190   5.962   4.371  12.799  0.1697  0.3145 -0.0902
   9123SM  H13A12191   5.953   4.320  12.704  1.0654  1.3472 -0.7560
   9123SM  H13B12192   5.899   4.459  12.798 -0.9553 -0.4693 -0.9902
   9123SM  H13C12193   5.913   4.308  12.871 -2.1733  0.9208 -1.0508
   9123SM   C1212194   6.121   4.449  12.967 -0.4839 -1.0080 -0.5846
   9123SM  H12A12195   6.071   4.545  12.970  0.1363 -0.4960 -3.4715
   9123SM  H12B12196   6.225   4.468  12.987 -0.8796  0.2365  0.4545
   9123SM   C1112197   6.070   4.354  13.075  0.1910 -0.8241 -0.3184
   9123SM  H11A12198   5.976   4.296  13.057 -1.3757  0.9329  1.6540
   9123SM  H11B12199   6.035   4.418  13.159 -0.8268 -1.1022 -0.5109
   9123SM     P12200   6.290   4.287  13.199  0.3521  0.7174 -0.0325
   9123SM   O1312201   6.367   4.163  13.214  0.1024  0.3941  0.1735
   9123SM   O1412202   6.354   4.408  13.151 -0.0239  0.0639  0.1229
   9123SM   O1112203   6.233   4.323  13.340 -0.3411  0.1348 -0.4111
   9123SM   O1212204   6.164   4.254  13.114 -0.8025  0.1706 -0.4569
   9123SM   C1S12205   6.159   4.235  13.431 -0.3360 -0.2985  0.5235
   9123SM   H1S12206   6.226   4.147  13.443  0.2489 -0.0663 -0.8011
   9123SM   H1T12207   6.068   4.197  13.381 -0.0546 -0.7073  0.3149
   9123SM    NF12208   6.064   4.189  13.660  0.1054 -0.5716  0.1282
   9123SM   HNF12209   5.965   4.179  13.661  0.1500 -1.0696 -0.3720
   9123SM   C2S12210   6.128   4.294  13.574 -0.7595  0.2848 -1.1296
   9123SM   H2S12211   6.231   4.315  13.610 -0.7893  0.0421 -0.8989
   9123SM   C3S12212   6.055   4.424  13.552 -0.0166  0.6151  0.5089
   9123SM   H3S12213   5.960   4.397  13.500  1.5601  1.0444 -2.8233
   9123SM    O312214   6.112   4.517  13.456  0.2829  0.3047  0.2870
   9123SM   HO312215   6.165   4.455  13.405 -1.9365 -0.0293 -1.8272
   9123SM   C4S12216   6.030   4.505  13.677  0.1433  0.2152 -0.3053
   9123SM   H4S12217   6.114   4.534  13.741  1.2697 -3.0966 -0.1162
   9123SM   C5S12218   5.906   4.553  13.712  0.8046  0.0543 -0.1502
   9123SM   H5S12219   5.820   4.527  13.648  1.0083 -0.0845 -0.3690
   9123SM   C6S12220   5.879   4.648  13.824  0.4127  0.3297 -0.3000
   9123SM   H6S12221   5.769   4.657  13.836  0.1406  1.1940 -2.6825
   9123SM   H6T12222   5.906   4.753  13.798 -1.4107  0.8037 -0.3619
   9123SM   C7S12223   5.943   4.628  13.955 -0.2186 -0.4879 -0.4622
   9123SM   H7S12224   6.053   4.626  13.943 -0.4402 -1.5920 -2.7065
   9123SM   H7T12225   5.919   4.532  14.005 -1.0689 -0.1435 -0.1756
   9123SM   C8S12226   5.902   4.747  14.053 -0.2982 -0.8500 -0.0259
   9123SM   H8S12227   5.792   4.743  14.065 -0.4317 -1.6907 -1.3719
   9123SM   H8T12228   5.932   4.846  14.014  0.3448 -0.9520  0.1977
   9123SM   C9S12229   5.969   4.745  14.188 -0.0629 -0.8003 -0.0449
   9123SM   H9S12230   6.079   4.751  14.176 -0.2660 -0.6122 -2.3390
   9123SM   H9T12231   5.939   4.649  14.236  0.0611 -0.6812  0.2695
   9123SM  C10S12232   5.915   4.856  14.284  0.7462 -0.6450  1.0261
   9123SM  H10S12233   5.805   4.867  14.273  1.0589  1.3264 -0.6851
   9123SM  H10T12234   5.949   4.952  14.240 -2.3490 -0.5139 -1.3804
   9123SM  C11S12235   5.970   4.857  14.424  0.5514 -1.1867  0.1378
   9123SM  H11S12236   6.081   4.863  14.421  0.4988  0.3730  0.4907
   9123SM  H11T12237   5.949   4.766  14.483 -0.4420 -1.3527 -0.4503
   9123SM  C12S12238   5.913   4.972  14.506 -0.0112 -0.6051  0.4639
   9123SM  H12S12239   5.802   4.971  14.503 -0.0803  1.3366  1.0959
   9123SM  H12T12240   5.927   5.072  14.461 -2.7421  0.4193  1.6780
   9123SM  C13S12241   5.960   4.980  14.648 -0.3620 -0.8138 -0.1243
   9123SM  H13S12242   5.945   5.082  14.688 -1.9831 -0.9882 -0.2417
   9123SM  H13T12243   6.068   4.965  14.670  0.2725  0.2685 -2.2164
   9123SM  C14S12244   5.886   4.877  14.740  0.3430 -0.2518  0.0091
   9123SM  H14S12245   5.908   4.781  14.689 -0.0674 -0.4482  0.1990
   9123SM  H14T12246   5.776   4.887  14.738  0.3154  0.2387  1.7505
   9123SM  C15S12247   5.939   4.876  14.882  0.1507 -0.6192  0.9744
   9123SM  H15S12248   5.914   4.975  14.926 -0.1839 -0.2309 -0.0756
   9123SM  H15T12249   6.049   4.860  14.877  0.0903 -0.5605 -1.5376
   9123SM  C16S12250   5.877   4.765  14.963  0.8290 -0.1872 -0.0322
   9123SM  H16S12251   5.882   4.670  14.906 -0.0837  0.7602 -1.7693
   9123SM  H16T12252   5.771   4.791  14.986 -0.3212 -3.3007 -1.2669
   9123SM  C17S12253   5.940   4.748  15.103 -0.3524 -0.1940 -0.3116
   9123SM  H17S12254   5.934   4.853  15.141  0.0395  0.3621 -1.7350
   9123SM  H17T12255   6.047   4.727  15.080 -0.5239 -0.6339 -0.7111
   9123SM  C18S12256   5.868   4.649  15.188  0.2245 -0.2277 -0.4693
   9123SM  H18S12257   5.761   4.679  15.199 -0.0752 -0.5179 -2.3273
   9123SM  H18T12258   5.916   4.647  15.288  2.2471 -1.1833 -1.4052
   9123SM  H18U12259   5.874   4.546  15.148 -1.1224 -0.4741 -0.0891
   9123SM   C1F12260   6.144   4.097  13.718  0.3441 -0.3579 -0.1711
   9123SM    OF12261   6.268   4.106  13.701  0.2244 -0.1769 -0.5969
   9123SM   C2F12262   6.071   3.989  13.795  0.5921  0.1846 -0.6653
   9123SM   H2F12263   5.986   3.961  13.728  1.3027  2.2885 -2.5917
   9123SM   H2G12264   6.040   4.036  13.890  1.2699  0.0918 -0.3956
   9123SM   C3F12265   6.155   3.854  13.819  0.3906 -0.9508 -0.6044
   9123SM   H3F12266   6.238   3.877  13.889 -1.5805 -0.5907  1.7650
   9123SM   H3G12267   6.211   3.811  13.733 -0.5636 -1.7053 -0.8606
   9123SM   C4F12268   6.072   3.742  13.880  0.4006 -0.3002  0.7740
   9123SM   H4F12269   6.141   3.657  13.899  0.5005 -0.6077 -0.8185
   9123SM   H4G12270   6.004   3.716  13.797  0.4116  1.4169  0.1934
   9123SM   C5F12271   6.003   3.767  14.011  0.2005  0.4475  0.3497
   9123SM   H5F12272   5.912   3.831  14.003  0.2018  0.6805  1.9170
   9123SM   H5G12273   6.078   3.819  14.074  1.2276 -0.9143  0.3039
   9123SM   C6F12274   5.958   3.633  14.078  0.3991 -0.1968  0.0578
   9123SM   H6F12275   6.048   3.574  14.107  0.1530 -0.3986  0.4085
   9123SM   H6G12276   5.898   3.575  14.004  2.8399 -0.1497 -2.0993
   9123SM   C7F12277   5.877   3.650  14.207 -0.1084 -0.0556  0.1122
   9123SM   H7F12278   5.797   3.724  14.183  1.8561  1.8337 -0.9007
   9123SM   H7G12279   5.942   3.701  14.281 -0.7787 -0.6993  1.1728
   9123SM   C8F12280   5.821   3.517  14.264  0.0904 -0.3828  0.5010
   9123SM   H8F12281   5.905   3.458  14.305  1.0526  0.1232 -0.6846
   9123SM   H8G12282   5.782   3.455  14.181 -3.0181 -0.9326  2.2024
   9123SM   C9F12283   5.718   3.536  14.370  0.7696  0.4825 -0.0221
   9123SM   H9F12284   5.663   3.623  14.328  0.8155  0.5827  0.1232
   9123SM   H9G12285   5.760   3.572  14.467  0.8301 -0.7908  0.4522
   9123SM  C10F12286   5.614   3.422  14.369 -0.6456 -0.0170 -0.7069
   9123SM  H10F12287   5.657   3.332  14.417 -0.6904  0.1238 -0.3961
   9123SM  H10G12288   5.582   3.402  14.265 -0.9894 -1.0952 -0.4004
   9123SM  C11F12289   5.496   3.465  14.437  0.1976  0.0484  0.1197
   9123SM  H11F12290   5.421   3.386  14.419 -1.4100  1.3126  0.9319
   9123SM  H11G12291   5.440   3.559  14.415 -0.9504 -0.8003 -0.6389
   9123SM  C12F12292   5.522   3.476  14.587  0.4771 -0.4391 -0.4816
   9123SM  H12F12293   5.539   3.582  14.614  2.7131 -1.2659  1.7819
   9123SM  H12G12294   5.613   3.418  14.616  0.0713 -0.7395  0.2004
   9123SM  C13F12295   5.385   3.439  14.657  0.4175 -0.0597  0.0573
   9123SM  H13F12296   5.380   3.329  14.646 -3.4198  0.1150 -1.5367
   9123SM  H13G12297   5.295   3.475  14.604  1.4677 -2.6176 -3.8725
   9123SM  C14F12298   5.378   3.484  14.802  0.0731  0.2087 -0.3283
   9123SM  H14F12299   5.402   3.592  14.798 -2.3659  0.9061  1.6497
   9123SM  H14G12300   5.460   3.424  14.846  0.2647 -2.6839 -4.0329
   9123SM  C15F12301   5.247   3.463  14.872 -0.0770 -0.1527 -0.2484
   9123SM  H15F12302   5.215   3.357  14.872  1.0740 -0.5675  1.9316
   9123SM  H15G12303   5.173   3.520  14.812  1.3160  1.1941 -0.7609
   9123SM  C16F12304   5.246   3.524  15.012  0.5008 -0.4070 -0.0482
   9123SM  H16F12305   5.313   3.613  15.012 -1.2162  0.9359 -0.8426
   9123SM  H16G12306   5.282   3.455  15.092 -1.7358  0.8403  2.1587
   9123SM  C17F12307   5.106   3.573  15.060  0.0280 -0.5851 -0.2964
   9123SM  H17F12308   5.059   3.648  14.994 -1.1005 -0.7091  0.3413
   9123SM  H17G12309   5.124   3.634  15.151  2.8349  0.0894 -1.2101
   9123SM  C18F12310   4.999   3.461  15.091  0.0754 -0.1466 -0.4098
   9123SM  H18F12311   5.030   3.398  15.177 -0.6952  0.7728  0.5846
   9123SM  H18G12312   4.967   3.407  15.000  0.7064  0.1766 -0.8294
   9123SM  C19F12313   4.882   3.538  15.152 -0.0833  0.6076 -0.3842
   9123SM  H19F12314   4.844   3.614  15.080 -2.5101 -0.9124 -0.8138
   9123SM  H19G12315   4.922   3.591  15.241  2.1548  1.3911 -1.7842
   9123SM  C20F12316   4.751   3.454  15.187 -0.0033 -0.5713  0.4671
   9123SM  H20F12317   4.769   3.373  15.261 -1.0128 -0.2899  1.0495
   9123SM  H20G12318   4.700   3.412  15.098 -2.4626  0.5123  1.2616
   9123SM  C21F12319   4.642   3.551  15.242  0.1982 -0.2987  0.6413
   9123SM  H21F12320   4.626   3.641  15.180  2.2083  0.4847  1.1878
   9123SM  H21G12321   4.670   3.595  15.340 -2.7953  3.1138  0.1571
   9123SM  C22F12322   4.512   3.474  15.266  0.7911 -0.5478  0.8027
   9123SM  H22F12323   4.460   3.522  15.351 -1.7145 -3.6173  1.1864
   9123SM  H22G12324   4.538   3.372  15.303  0.8849 -0.4395  1.0353
   9123SM  C23F12325   4.428   3.459  15.144 -0.5809 -0.1234 -0.2269
   9123SM  H23F12326   4.343   3.395  15.173 -1.8539 -0.0270 -3.3534
   9123SM  H23G12327   4.481   3.410  15.059 -0.1156  2.5057 -1.5577
   9123SM  H23H12328   4.385   3.551  15.099 -0.6801 -0.5887 -1.1030
   9223SM     N12329   4.972   0.897  12.777 -0.4469 -0.0296  0.5693
   9223SM   C1512330   4.869   1.004  12.751 -0.9036 -0.2631  0.2292
   9223SM  H15A12331   4.775   0.980  12.799 -1.4746 -0.9535 -1.1997
   9223SM  H15B12332   4.852   1.025  12.647  1.6495  1.4081  0.0837
   9223SM  H15C12333   4.906   1.084  12.814 -0.3647 -0.1347 -0.2416
   9223SM   C1412334   4.951   0.782  12.685 -0.3118  0.4518 -0.1009
   9223SM  H14A12335   4.945   0.806  12.579  1.7872 -2.0457 -0.8895
   9223SM  H14B12336   4.856   0.741  12.717  0.3848  0.1059  1.6097
   9223SM  H14C12337   5.034   0.714  12.697  0.8307  1.8572  0.2691
   9223SM   C1312338   5.119   0.943  12.748  0.9764 -0.5495 -0.1602
   9223SM  H13A12339   5.155   0.986  12.840  0.1546 -2.8688  1.3536
   9223SM  H13B12340   5.114   1.010  12.664 -1.3448 -0.3991  0.0318
   9223SM  H13C12341   5.179   0.856  12.724 -2.3328 -2.4242 -2.4618
   9223SM   C1212342   4.974   0.849  12.922  0.5291 -0.2577 -0.2303
   9223SM  H12A12343   5.037   0.917  12.979  0.6535  0.4974 -1.2394
   9223SM  H12B12344   5.042   0.765  12.924  0.0606 -0.6552 -0.8357
   9223SM   C1112345   4.849   0.812  12.995  0.3431  0.3042 -0.0189
   9223SM  H11A12346   4.776   0.888  12.960 -1.8529 -0.6137  2.2397
   9223SM  H11B12347   4.844   0.817  13.106 -0.1560 -2.2845  0.1500
   9223SM     P12348   4.849   0.553  12.993  0.1321  0.0894 -0.1960
   9223SM   O1312349   4.754   0.451  12.948  0.0370 -0.2636  0.3816
   9223SM   O1412350   4.994   0.536  12.956  0.6186 -0.1469  0.0999
   9223SM   O1112351   4.845   0.571  13.146  0.1715  0.0501 -0.0326
   9223SM   O1212352   4.807   0.689  12.938 -0.0589  0.2651 -0.7957
   9223SM   C1S12353   4.726   0.598  13.209  0.0484  0.2386 -0.3588
   9223SM   H1S12354   4.664   0.675  13.158  0.7652  1.1531  0.1060
   9223SM   H1T12355   4.739   0.644  13.309 -4.5788  1.9838 -0.3346
   9223SM    NF12356   4.508   0.505  13.290 -0.6110  0.6885  0.6490
   9223SM   HNF12357   4.478   0.467  13.377 -1.9352  0.5304  0.1458
   9223SM   C2S12358   4.640   0.465  13.239 -0.2995  0.4565 -0.5514
   9223SM   H2S12359   4.627   0.424  13.137 -0.4394  1.8534 -1.1188
   9223SM   C3S12360   4.718   0.367  13.331  0.0161 -0.2302  0.0371
   9223SM   H3S12361   4.747   0.421  13.423 -0.7357 -2.3274  1.5911
   9223SM    O312362   4.841   0.324  13.272  0.4231 -0.0453 -0.1273
   9223SM   HO312363   4.865   0.400  13.219 -0.8839  1.0511  0.8024
   9223SM   C4S12364   4.638   0.244  13.368 -0.7729  0.2666  0.1428
   9223SM   H4S12365   4.594   0.196  13.280 -1.6250  0.9081  0.2068
   9223SM   C5S12366   4.625   0.186  13.494 -0.0697 -0.1848  0.2033
   9223SM   H5S12367   4.679   0.234  13.577  1.4676  0.4820 -1.1144
   9223SM   C6S12368   4.547   0.064  13.533  0.4694 -0.2611  1.3146
   9223SM   H6S12369   4.506   0.013  13.443  0.2612 -0.4589  1.5184
   9223SM   H6T12370   4.457   0.094  13.591 -0.9938  0.7094 -1.3225
   9223SM   C7S12371   4.634  -0.039  13.601 -0.4673  0.5924  0.0495
   9223SM   H7S12372   4.731  -0.063  13.553 -0.6321 -0.0524  0.0404
   9223SM   H7T12373   4.583  -0.137  13.593  0.7719 -0.2409  1.7853
   9223SM   C8S12374   4.664  -0.009  13.751  0.5006 -0.2106  0.0347
   9223SM   H8S12375   4.744   0.066  13.762  0.3062  0.0174 -0.1052
   9223SM   H8T12376   4.701  -0.103  13.797 -0.7624  0.0828  1.7341
   9223SM   C9S12377   4.543   0.047  13.831 -0.8845 -0.0293 -0.2620
   9223SM   H9S12378   4.469  -0.035  13.834  1.1626 -1.9893 -0.4337
   9223SM   H9T12379   4.511   0.139  13.777  2.5026 -0.4568 -3.4261
   9223SM  C10S12380   4.590   0.065  13.976  0.1274 -0.5296 -0.2126
   9223SM  H10S12381   4.643   0.163  13.974 -2.8676  1.2354  0.4373
   9223SM  H10T12382   4.657  -0.018  14.009 -0.0355 -0.9168 -0.8529
   9223SM  C11S12383   4.471   0.080  14.072 -0.8918 -0.9989 -1.1253
   9223SM  H11S12384   4.409  -0.011  14.060  0.1792 -1.9681  0.2948
   9223SM  H11T12385   4.412   0.167  14.035  0.8674  0.6406 -0.2837
   9223SM  C12S12386   4.510   0.108  14.218  0.3233  0.2568 -1.0065
   9223SM  H12S12387   4.565   0.204  14.230  0.3593  0.0751  0.5130
   9223SM  H12T12388   4.568   0.020  14.253 -0.9370 -0.0925  0.2870
   9223SM  C13S12389   4.383   0.129  14.306 -0.2963  0.0080  0.0768
   9223SM  H13S12390   4.311   0.048  14.282  0.8987 -0.9543 -0.3340
   9223SM  H13T12391   4.333   0.225  14.281  0.5708  0.1562 -1.1862
   9223SM  C14S12392   4.418   0.128  14.453  0.0991  0.3908  0.2440
   9223SM  H14S12393   4.519   0.171  14.469  0.1893  0.2810 -0.0327
   9223SM  H14T12394   4.407   0.021  14.480 -2.4921 -0.1267 -2.3107
   9223SM  C15S12395   4.314   0.215  14.525  0.1700  0.0728 -0.5040
   9223SM  H15S12396   4.213   0.191  14.485 -0.2651  1.2461 -0.1250
   9223SM  H15T12397   4.321   0.322  14.500  2.2069 -0.1431 -0.9895
   9223SM  C16S12398   4.330   0.192  14.677  0.6260  0.7192 -0.4340
   9223SM  H16S12399   4.303   0.089  14.709 -1.5100  1.5098  0.4705
   9223SM  H16T12400   4.255   0.255  14.729  0.2352  0.1482 -0.2919
   9223SM  C17S12401   4.466   0.231  14.732 -0.2970 -0.0107 -0.3808
   9223SM  H17S12402   4.548   0.172  14.686  0.2371 -0.6536  1.3109
   9223SM  H17T12403   4.479   0.209  14.841 -1.1716  0.4115 -0.1872
   9223SM  C18S12404   4.508   0.376  14.726  0.0921  0.1252 -0.8026
   9223SM  H18S12405   4.452   0.429  14.807 -0.2368  2.0202 -2.1936
   9223SM  H18T12406   4.461   0.409  14.631  1.3652  1.9671 -0.8389
   9223SM  H18U12407   4.616   0.398  14.721 -0.2531  1.7234 -1.7418
   9223SM   C1F12408   4.420   0.582  13.225  0.7090  0.1519  0.4089
   9223SM    OF12409   4.428   0.600  13.105 -0.0340 -0.0754  0.1728
   9223SM   C2F12410   4.295   0.619  13.295  0.1744  0.8088 -0.1571
   9223SM   H2F12411   4.309   0.581  13.398 -2.3924  1.3090  0.4487
   9223SM   H2G12412   4.210   0.559  13.257 -0.1982  0.0726  1.7451
   9223SM   C3F12413   4.282   0.775  13.291  0.2444 -0.4955 -0.1548
   9223SM   H3F12414   4.252   0.810  13.190  1.2576 -2.7974 -1.3415
   9223SM   H3G12415   4.375   0.832  13.313 -1.1065  1.7047  0.2079
   9223SM   C4F12416   4.180   0.830  13.389  0.3570  0.1250 -0.2980
   9223SM   H4F12417   4.204   0.800  13.494  0.4300  3.6298  0.7917
   9223SM   H4G12418   4.083   0.780  13.367  1.0878 -1.1290 -0.7846
   9223SM   C5F12419   4.186   0.987  13.389  0.5886  0.3367 -0.9549
   9223SM   H5F12420   4.203   1.008  13.282 -1.2799 -1.7206 -1.7288
   9223SM   H5G12421   4.275   1.021  13.447 -0.7296  0.2878  1.2495
   9223SM   C6F12422   4.066   1.058  13.445  0.1440  0.7439  0.9535
   9223SM   H6F12423   4.083   1.168  13.454 -1.2173  1.0003  0.6442
   9223SM   H6G12424   4.050   1.021  13.549  0.5493 -2.1290  0.0642
   9223SM   C7F12425   3.931   1.048  13.368  0.4724 -0.6145 -0.2336
   9223SM   H7F12426   3.889   0.947  13.389 -3.1739  0.2182 -2.6422
   9223SM   H7G12427   3.962   1.058  13.262  1.5320  0.3144  0.1427
   9223SM   C8F12428   3.839   1.162  13.415 -1.1821  0.5306 -0.1207
   9223SM   H8F12429   3.741   1.164  13.364 -0.2259 -0.5754 -2.1595
   9223SM   H8G12430   3.887   1.260  13.392 -1.6415  0.8131  0.1310
   9223SM   C9F12431   3.787   1.153  13.554 -0.2755  0.4135  0.2103
   9223SM   H9F12432   3.871   1.158  13.627  1.8986  0.7219 -2.1554
   9223SM   H9G12433   3.738   1.054  13.563  0.3153  0.0687 -0.2789
   9223SM  C10F12434   3.695   1.265  13.588  0.8374  0.2871 -0.5357
   9223SM  H10F12435   3.608   1.271  13.519  1.8244  0.6661 -1.7992
   9223SM  H10G12436   3.752   1.361  13.581  1.3554  0.3060  2.5630
   9223SM  C11F12437   3.647   1.254  13.738  0.1986 -0.0921 -0.3432
   9223SM  H11F12438   3.739   1.274  13.798  0.1667 -1.5650  0.2529
   9223SM  H11G12439   3.606   1.153  13.761 -1.3880  1.0722  2.3535
   9223SM  C12F12440   3.530   1.347  13.773  0.2493 -0.6217 -0.7271
   9223SM  H12F12441   3.442   1.331  13.707  0.2305 -0.5212 -0.7258
   9223SM  H12G12442   3.571   1.448  13.757  3.5100 -1.3393  1.8866
   9223SM  C13F12443   3.484   1.342  13.918  0.0999 -0.3454 -1.5239
   9223SM  H13F12444   3.462   1.236  13.942 -0.7738  0.1003 -0.1890
   9223SM  H13G12445   3.390   1.401  13.933 -0.2243 -1.1648 -0.1689
   9223SM  C14F12446   3.586   1.410  14.019 -0.2724 -0.7650  0.1312
   9223SM  H14F12447   3.614   1.513  13.988  1.4141 -0.7048  1.6771
   9223SM  H14G12448   3.686   1.363  14.030 -1.0012 -2.7109 -1.1620
   9223SM  C15F12449   3.530   1.438  14.163  0.1157  0.1343  0.0308
   9223SM  H15F12450   3.438   1.499  14.152  0.8195  1.0690 -0.7934
   9223SM  H15G12451   3.607   1.499  14.215  1.8706 -1.3411 -0.7348
   9223SM  C16F12452   3.509   1.310  14.236  0.4310 -0.4117  0.5101
   9223SM  H16F12453   3.608   1.269  14.266  0.5734  0.5323  1.3681
   9223SM  H16G12454   3.451   1.239  14.173  2.0145 -0.9815 -0.3725
   9223SM  C17F12455   3.432   1.344  14.358 -0.6837  0.6167  0.0891
   9223SM  H17F12456   3.328   1.361  14.323 -0.3383  1.5752 -0.5063
   9223SM  H17G12457   3.469   1.440  14.400  0.9527 -0.0832  0.3051
   9223SM  C18F12458   3.456   1.234  14.465  0.5889  0.3191  0.2112
   9223SM  H18F12459   3.390   1.267  14.548  0.3533  1.7808 -0.5212
   9223SM  H18G12460   3.560   1.232  14.505  1.1670 -1.9284 -1.2340
   9223SM  C19F12461   3.409   1.089  14.432  0.6393  0.0021  0.2670
   9223SM  H19F12462   3.489   1.039  14.373  0.9185  1.2834 -0.4876
   9223SM  H19G12463   3.314   1.092  14.374  1.6003  0.7629 -1.3435
   9223SM  C20F12464   3.380   1.005  14.559 -0.1503  0.5982  1.0434
   9223SM  H20F12465   3.467   1.009  14.628 -0.5751 -1.4483  1.7698
   9223SM  H20G12466   3.365   0.899  14.529  2.8298  0.1881  0.7147
   9223SM  C21F12467   3.259   1.044  14.637 -0.1638  0.0957  1.0477
   9223SM  H21F12468   3.167   1.069  14.579 -0.6811 -0.8039  1.4575
   9223SM  H21G12469   3.280   1.142  14.685 -0.2861  1.3056 -1.1884
   9223SM  C22F12470   3.211   0.949  14.751 -0.2581  0.1072  1.1004
   9223SM  H22F12471   3.298   0.904  14.803 -1.0996 -1.5221  1.1674
   9223SM  H22G12472   3.153   0.869  14.701  1.1570  1.0155 -2.3705
   9223SM  C23F12473   3.121   1.015  14.849 -0.0858  0.0443 -0.5824
   9223SM  H23F12474   3.021   1.041  14.810 -0.0088 -0.6978 -1.3079
   9223SM  H23G12475   3.177   1.103  14.887  2.2304 -1.8570  0.7355
   9223SM  H23H12476   3.095   0.944  14.931 -1.0576 -0.9195 -1.6944
   9323SM     N12477   5.583   2.931  13.477 -0.0147 -0.3473 -0.3361
   9323SM   C1512478   5.491   2.889  13.369  0.1854  0.3859  0.3233
   9323SM  H15A12479   5.427   2.964  13.325  1.5574  0.0772 -2.4567
   9323SM  H15B12480   5.431   2.801  13.390  0.1270  0.3082 -0.1469
   9323SM  H15C12481   5.553   2.854  13.287  0.5624 -0.7088  1.0508
   9323SM   C1412482   5.661   3.045  13.423  0.0293 -0.3350  0.0697
   9323SM  H14A12483   5.590   3.125  13.411  0.9026  0.3364 -0.7498
   9323SM  H14B12484   5.715   3.028  13.331  1.3230  2.7443  0.1315
   9323SM  H14C12485   5.739   3.068  13.494 -0.9195  0.5293  0.8524
   9323SM   C1312486   5.501   2.970  13.606 -0.4704  0.4853  0.2989
   9323SM  H13A12487   5.442   2.888  13.641  0.8133 -0.7931 -0.4132
   9323SM  H13B12488   5.438   3.056  13.588 -0.8646 -0.2901 -2.6638
   9323SM  H13C12489   5.566   2.995  13.689 -3.1476  1.1070  2.3527
   9323SM   C1212490   5.675   2.824  13.522 -0.6139  0.3715 -0.3701
   9323SM  H12A12491   5.609   2.762  13.582 -1.6385  2.3409  0.6554
   9323SM  H12B12492   5.751   2.863  13.588  0.9285 -0.2140 -1.7421
   9323SM   C1112493   5.756   2.749  13.417  0.3091  0.1531 -0.6122
   9323SM  H11A12494   5.698   2.711  13.330  1.9581 -0.2835 -1.5753
   9323SM  H11B12495   5.799   2.654  13.455  1.8180  1.0135 -0.1008
   9323SM     P12496   5.992   2.876  13.403 -0.0793 -0.0711 -0.0256
   9323SM   O1312497   6.101   2.787  13.343 -0.0881 -0.9661  0.4765
   9323SM   O1412498   6.004   3.023  13.376 -0.2059 -0.1570 -0.1950
   9323SM   O1112499   5.977   2.856  13.561  0.1569 -0.4019  0.1871
   9323SM   O1212500   5.853   2.826  13.354 -0.0148 -0.6455  0.6525
   9323SM   C1S12501   5.965   2.970  13.641 -0.6969 -0.0834 -0.3415
   9323SM   H1S12502   5.869   3.022  13.620 -1.3308 -0.0808  2.2317
   9323SM   H1T12503   6.046   3.042  13.616 -2.2848  1.6045 -0.8815
   9323SM    NF12504   5.933   3.039  13.870  0.3042  0.3173  0.2324
   9323SM   HNF12505   6.001   3.081  13.931  0.9364 -0.4681  0.0974
   9323SM   C2S12506   5.975   2.924  13.791 -0.5715 -0.2714  0.9061
   9323SM   H2S12507   5.903   2.843  13.813  0.3087 -1.3023  0.1443
   9323SM   C3S12508   6.114   2.861  13.822 -1.0210  0.0803 -0.3693
   9323SM   H3S12509   6.185   2.944  13.804 -2.4783  1.3756 -0.3967
   9323SM    O312510   6.147   2.749  13.742 -0.2338 -0.3248  0.0927
   9323SM   HO312511   6.099   2.760  13.660  0.9411  1.1627 -0.4409
   9323SM   C4S12512   6.128   2.827  13.967  0.8631 -0.0136 -0.5585
   9323SM   H4S12513   6.169   2.911  14.026 -0.0676  0.2973 -0.3423
   9323SM   C5S12514   6.099   2.702  14.021  0.3655 -0.7699  0.1002
   9323SM   H5S12515   6.091   2.615  13.954  1.6391 -0.9512  0.1579
   9323SM   C6S12516   6.100   2.671  14.172 -0.4015 -0.4340  0.1894
   9323SM   H6S12517   6.145   2.763  14.214 -1.1520  1.2140 -2.3905
   9323SM   H6T12518   6.174   2.591  14.195  0.2807  0.2006  0.2338
   9323SM   C7S12519   5.961   2.648  14.220  0.4510  0.3590 -0.0334
   9323SM   H7S12520   5.912   2.561  14.172 -0.8101  1.0741 -0.0681
   9323SM   H7T12521   5.896   2.737  14.210  0.0536 -0.1648 -3.0272
   9323SM   C8S12522   5.970   2.609  14.369 -0.4167 -0.2229 -0.4720
   9323SM   H8S12523   6.001   2.690  14.438 -1.7373 -1.2963  1.4840
   9323SM   H8T12524   6.034   2.518  14.375  2.4884  1.7222 -0.0081
   9323SM   C9S12525   5.833   2.567  14.434  0.0020 -0.3328  0.2514
   9323SM   H9S12526   5.809   2.466  14.397  1.4502 -0.9640  0.9620
   9323SM   H9T12527   5.751   2.630  14.392 -0.3930 -1.2713 -0.4097
   9323SM  C10S12528   5.849   2.560  14.583  0.7437 -0.0441  0.3363
   9323SM  H10S12529   5.926   2.633  14.617  0.3543 -0.6872  2.7945
   9323SM  H10T12530   5.883   2.458  14.608 -0.8727 -0.2388  1.9151
   9323SM  C11S12531   5.721   2.571  14.662  0.7617 -0.0060 -0.8673
   9323SM  H11S12532   5.660   2.488  14.619  0.9826  0.4437 -2.0934
   9323SM  H11T12533   5.663   2.664  14.641  0.1728 -0.3502 -0.8092
   9323SM  C12S12534   5.739   2.544  14.816 -0.2251  0.1103  0.2089
   9323SM  H12S12535   5.817   2.616  14.847 -0.2880  0.4290 -0.3520
   9323SM  H12T12536   5.763   2.437  14.834 -3.1873 -0.4599  1.5011
   9323SM  C13S12537   5.607   2.544  14.887  0.4029  0.3007  0.6311
   9323SM  H13S12538   5.576   2.650  14.890 -0.0818  0.1477  1.1551
   9323SM  H13T12539   5.628   2.492  14.983 -1.2936 -3.1176 -0.6786
   9323SM  C14S12540   5.498   2.461  14.821  0.1642  0.0775  0.0510
   9323SM  H14S12541   5.529   2.354  14.828 -0.4493 -0.1138 -0.1062
   9323SM  H14T12542   5.485   2.476  14.711  0.5795  1.1843  0.1396
   9323SM  C15S12543   5.362   2.469  14.881 -0.4083  0.1348 -0.2976
   9323SM  H15S12544   5.340   2.569  14.925  0.2644 -0.3085  1.0993
   9323SM  H15T12545   5.281   2.445  14.808 -0.1657 -1.2950 -0.1197
   9323SM  C16S12546   5.346   2.357  14.991 -0.4329 -0.0297 -0.4964
   9323SM  H16S12547   5.429   2.367  15.064  0.1420 -1.2278 -0.9555
   9323SM  H16T12548   5.364   2.260  14.939  1.5949 -0.7504  1.3828
   9323SM  C17S12549   5.211   2.350  15.070 -0.8884  0.2415  0.4914
   9323SM  H17S12550   5.213   2.434  15.143 -0.5809 -0.2670  1.0756
   9323SM  H17T12551   5.207   2.251  15.120  1.5323 -1.0123 -1.5734
   9323SM  C18S12552   5.090   2.381  14.984 -0.3024 -0.1400  0.2970
   9323SM  H18S12553   5.003   2.339  15.039 -0.3034  0.2988  0.6333
   9323SM  H18T12554   5.095   2.324  14.889  1.2675 -1.7122  1.2683
   9323SM  H18U12555   5.078   2.490  14.966 -0.1077 -0.2267 -0.4040
   9323SM   C1F12556   5.803   3.079  13.870 -0.2319 -0.5100 -0.0927
   9323SM    OF12557   5.720   3.009  13.813  1.0381  0.1167 -0.3949
   9323SM   C2F12558   5.779   3.220  13.936  0.7372 -0.4436  0.4365
   9323SM   H2F12559   5.845   3.291  13.882 -2.1805  0.4721 -2.1918
   9323SM   H2G12560   5.815   3.216  14.041 -0.5359  0.4553  0.9325
   9323SM   C3F12561   5.634   3.285  13.942 -0.7208  0.1025 -0.3881
   9323SM   H3F12562   5.598   3.290  13.837 -1.1408 -0.8276 -0.2965
   9323SM   H3G12563   5.647   3.389  13.979 -1.5475  0.0130  0.1987
   9323SM   C4F12564   5.542   3.220  14.043 -0.0229  0.3062 -0.6744
   9323SM   H4F12565   5.576   3.235  14.148 -0.8258 -1.4965 -0.1278
   9323SM   H4G12566   5.554   3.112  14.021 -1.5735 -0.1362  0.4860
   9323SM   C5F12567   5.390   3.270  14.040 -0.6840 -0.6563 -0.4406
   9323SM   H5F12568   5.329   3.196  14.096 -0.9450  0.7669  1.2547
   9323SM   H5G12569   5.365   3.282  13.933  0.2469  0.6287 -0.5365
   9323SM   C6F12570   5.366   3.409  14.101 -0.0358 -0.3478 -1.3984
   9323SM   H6F12571   5.443   3.470  14.049  1.3935 -1.1928 -0.3494
   9323SM   H6G12572   5.385   3.415  14.210 -0.0849 -2.0060 -1.2793
   9323SM   C7F12573   5.223   3.453  14.089  0.3742  0.2073 -0.2548
   9323SM   H7F12574   5.159   3.363  14.088  1.2266 -0.4448  0.7952
   9323SM   H7G12575   5.213   3.498  13.989 -1.6376  1.5268  0.4889
   9323SM   C8F12576   5.176   3.572  14.182  0.5595 -0.0424  1.1186
   9323SM   H8F12577   5.216   3.672  14.153 -2.2295  1.6941  2.7644
   9323SM   H8G12578   5.208   3.554  14.286  1.2571  0.1704  0.9461
   9323SM   C9F12579   5.024   3.598  14.165 -0.5613  0.1903  0.5714
   9323SM   H9F12580   4.983   3.497  14.186  2.2103 -1.3712 -0.8746
   9323SM   H9G12581   4.995   3.618  14.060 -0.8592  2.1681  0.9869
   9323SM  C10F12582   4.961   3.703  14.258  0.4297 -0.0094 -0.0359
   9323SM  H10F12583   4.962   3.809  14.225 -2.2574  0.4930  1.2236
   9323SM  H10G12584   5.014   3.704  14.355 -0.2487  0.1192  0.3347
   9323SM  C11F12585   4.804   3.673  14.273  0.0697 -0.0418  0.4798
   9323SM  H11F12586   4.800   3.572  14.320  1.3661 -0.1865  0.3075
   9323SM  H11G12587   4.751   3.668  14.175 -3.5489 -0.4290  2.2936
   9323SM  C12F12588   4.737   3.772  14.364  0.1733  0.5420 -0.1060
   9323SM  H12F12589   4.745   3.875  14.321 -2.1524  0.3753 -1.0775
   9323SM  H12G12590   4.791   3.770  14.461  1.5712 -2.8418 -0.8047
   9323SM  C13F12591   4.597   3.727  14.390 -0.6327 -0.2873 -0.7182
   9323SM  H13F12592   4.599   3.618  14.412 -1.0920 -0.4205 -1.3153
   9323SM  H13G12593   4.534   3.735  14.299  1.2326 -0.0713 -2.0496
   9323SM  C14F12594   4.526   3.806  14.504  0.6976  1.0914 -0.7068
   9323SM  H14F12595   4.542   3.913  14.482 -2.3871  1.7033 -0.4594
   9323SM  H14G12596   4.592   3.777  14.589  0.4636 -3.3892 -1.7690
   9323SM  C15F12597   4.379   3.766  14.535 -0.4764 -0.9613 -0.0332
   9323SM  H15F12598   4.381   3.656  14.549  0.9460 -0.9109  0.3318
   9323SM  H15G12599   4.313   3.798  14.452 -1.2249  1.4534  1.4013
   9323SM  C16F12600   4.326   3.828  14.662 -0.1384 -0.5050  0.6427
   9323SM  H16F12601   4.217   3.805  14.668 -0.4292  0.7316  0.4606
   9323SM  H16G12602   4.324   3.939  14.652 -0.7243 -0.5333  0.4116
   9323SM  C17F12603   4.407   3.803  14.804 -0.1826 -0.3523  0.3292
   9323SM  H17F12604   4.510   3.843  14.797 -0.0261 -1.0454 -2.5387
   9323SM  H17G12605   4.416   3.693  14.817 -1.6114 -0.5371 -0.0213
   9323SM  C18F12606   4.339   3.875  14.922  0.2915  0.5888  0.2560
   9323SM  H18F12607   4.377   3.837  15.019 -0.4233  0.4464  0.4841
   9323SM  H18G12608   4.228   3.874  14.917  0.3578 -0.3809 -1.8253
   9323SM  C19F12609   4.379   4.028  14.934  0.3667 -0.5367 -0.5080
   9323SM  H19F12610   4.401   4.056  14.829  1.0133 -1.5643 -0.6633
   9323SM  H19G12611   4.468   4.031  15.001 -0.5981  0.5980  0.7659
   9323SM  C20F12612   4.258   4.094  15.009 -0.2651 -0.2114 -0.9988
   9323SM  H20F12613   4.163   4.070  14.957 -1.3913  0.9912  0.4053
   9323SM  H20G12614   4.264   4.205  14.997 -3.8286 -0.0416 -2.3968
   9323SM  C21F12615   4.245   4.047  15.156 -0.1977 -0.2321  0.5385
   9323SM  H21F12616   4.338   4.033  15.215 -1.4095  0.3879  2.7205
   9323SM  H21G12617   4.193   3.949  15.161  1.2611 -1.0736 -0.1075
   9323SM  C22F12618   4.160   4.154  15.231 -0.2628  0.1635  0.2843
   9323SM  H22F12619   4.061   4.148  15.181 -0.1055  2.1971 -0.3423
   9323SM  H22G12620   4.208   4.251  15.207 -0.2527  0.2499  0.6404
   9323SM  C23F12621   4.151   4.129  15.383 -0.0544 -0.1325 -0.1574
   9323SM  H23F12622   4.065   4.184  15.427  0.9098  0.4124  1.0927
   9323SM  H23G12623   4.237   4.180  15.430 -0.9663  0.7821  0.5548
   9323SM  H23H12624   4.147   4.022  15.412 -2.7513 -0.2013 -0.4563
   9423SM     N12625   6.069   5.897  12.819 -0.2012 -0.5657 -0.4831
   9423SM   C1512626   6.199   5.887  12.750 -0.3865 -0.3539  0.4329
   9423SM  H15A12627   6.243   5.789  12.755  0.3215 -0.0204  1.0108
   9423SM  H15B12628   6.271   5.951  12.800 -0.7621  0.3135  0.1363
   9423SM  H15C12629   6.189   5.919  12.648 -3.0466  1.3172  1.1179
   9423SM   C1412630   6.023   6.036  12.835 -1.0837  0.3649 -0.7721
   9423SM  H14A12631   6.011   6.089  12.741  0.0713 -0.0619 -1.1761
   9423SM  H14B12632   6.085   6.098  12.897 -1.0473 -0.8993  0.4940
   9423SM  H14C12633   5.929   6.028  12.887 -0.2481 -1.6961  0.5407
   9423SM   C1312634   5.973   5.810  12.740 -0.2248 -0.3619 -0.5124
   9423SM  H13A12635   5.947   5.853  12.644  0.8100  0.6938 -0.3440
   9423SM  H13B12636   5.882   5.801  12.798  0.0249 -0.2303 -0.0980
   9423SM  H13C12637   6.023   5.716  12.720  1.1442  0.1277  0.4738
   9423SM   C1212638   6.080   5.834  12.959  0.2554 -0.2095  0.8477
   9423SM  H12A12639   6.127   5.740  12.932 -0.0290  0.1339 -0.9996
   9423SM  H12B12640   5.980   5.822  12.999 -0.3689  0.2326 -0.5039
   9423SM   C1112641   6.167   5.905  13.062 -0.3236 -0.0722 -0.6982
   9423SM  H11A12642   6.161   5.853  13.160  1.3375  0.2552 -0.3820
   9423SM  H11B12643   6.129   6.009  13.076 -0.3759 -0.2304  0.3954
   9423SM     P12644   6.409   5.804  13.047  0.0953 -0.4736 -0.2283
   9423SM   O1312645   6.363   5.680  12.989 -0.2079  0.3664 -0.1555
   9423SM   O1412646   6.541   5.864  13.006  0.2184 -0.5045 -0.1935
   9423SM   O1112647   6.406   5.797  13.200 -0.3270  0.0377  0.1938
   9423SM   O1212648   6.300   5.920  13.014 -0.2548 -0.1898 -0.0835
   9423SM   C1S12649   6.422   5.913  13.284  0.2157  0.0289  0.2700
   9423SM   H1S12650   6.373   5.998  13.231 -1.6534 -1.5849 -0.7652
   9423SM   H1T12651   6.528   5.938  13.303 -1.0233  5.1182  2.0099
   9423SM    NF12652   6.349   6.033  13.486  0.2324 -0.3558  0.4063
   9423SM   HNF12653   6.425   6.054  13.547  0.7997 -1.2062  0.0004
   9423SM   C2S12654   6.348   5.904  13.418 -0.6461 -0.2343 -0.1941
   9423SM   H2S12655   6.242   5.881  13.391 -0.6888  0.6823 -0.8604
   9423SM   C3S12656   6.405   5.791  13.509  0.4207  0.1495 -0.2755
   9423SM   H3S12657   6.508   5.815  13.545 -0.4994  0.4337  2.4443
   9423SM    O312658   6.426   5.672  13.432  0.1004 -0.0208 -0.2207
   9423SM   HO312659   6.410   5.712  13.346 -0.4323 -4.7540 -2.6347
   9423SM   C4S12660   6.314   5.779  13.622 -0.1778  0.4234  0.2165
   9423SM   H4S12661   6.341   5.832  13.714  0.7960 -1.5849  1.1507
   9423SM   C5S12662   6.195   5.708  13.628 -0.0519  0.4239 -0.0912
   9423SM   H5S12663   6.145   5.662  13.541 -1.6627  2.3036 -0.2240
   9423SM   C6S12664   6.116   5.700  13.753 -0.2882 -0.0437 -0.0001
   9423SM   H6S12665   6.026   5.761  13.728  0.3707  0.9710  0.0437
   9423SM   H6T12666   6.176   5.753  13.830  0.0536  2.5680 -1.9014
   9423SM   C7S12667   6.074   5.560  13.796 -0.0030  0.4015  0.1736
   9423SM   H7S12668   6.150   5.494  13.842 -0.0004  0.4234  0.2004
   9423SM   H7T12669   6.042   5.505  13.704  1.9799  1.5226 -1.2482
   9423SM   C8S12670   5.963   5.559  13.903  0.3220 -0.0518 -0.4178
   9423SM   H8S12671   5.911   5.461  13.904 -1.1928  0.6908  1.7499
   9423SM   H8T12672   5.886   5.629  13.863  1.1573  0.5953 -0.9467
   9423SM   C9S12673   6.024   5.601  14.037 -0.8943 -0.7130 -0.0728
   9423SM   H9S12674   6.125   5.645  14.025 -0.3587 -1.2292  2.1007
   9423SM   H9T12675   6.047   5.521  14.111 -1.7788  0.5497  1.6371
   9423SM  C10S12676   5.938   5.699  14.125  0.2791 -0.2398  0.2731
   9423SM  H10S12677   5.971   5.699  14.231  0.3257  1.1281  0.2732
   9423SM  H10T12678   5.836   5.655  14.130 -0.7794  1.5833 -2.4893
   9423SM  C11S12679   5.919   5.845  14.075 -0.3925  0.6110 -0.6046
   9423SM  H11S12680   5.848   5.905  14.137 -0.4598  0.1557 -0.2344
   9423SM  H11T12681   5.880   5.836  13.971 -0.4471  0.7317 -0.5958
   9423SM  C12S12682   6.053   5.918  14.065 -0.9491  0.0116 -0.0950
   9423SM  H12S12683   6.045   5.987  13.979  0.0271  1.1377  0.6754
   9423SM  H12T12684   6.136   5.847  14.043 -0.8768  0.3948 -1.0923
   9423SM  C13S12685   6.090   6.015  14.179  0.3069  0.3465 -0.2042
   9423SM  H13S12686   6.183   6.062  14.144  0.0063  0.4861 -0.8294
   9423SM  H13T12687   6.117   5.965  14.275  2.9595  0.8187 -0.6505
   9423SM  C14S12688   5.986   6.116  14.222  0.7715 -0.3855 -0.4756
   9423SM  H14S12689   5.909   6.072  14.289 -1.1061  3.3369  0.0638
   9423SM  H14T12690   5.932   6.150  14.131  2.8493  0.8115 -1.3192
   9423SM  C15S12691   6.052   6.237  14.282  0.3574  0.5857 -0.5532
   9423SM  H15S12692   5.981   6.319  14.304  2.0394  1.7944  0.5602
   9423SM  H15T12693   6.126   6.275  14.209  2.1566 -0.7105  0.5135
   9423SM  C16S12694   6.134   6.205  14.409  0.3957 -0.1739  0.6492
   9423SM  H16S12695   6.222   6.140  14.385  0.6019  0.4003 -0.1853
   9423SM  H16T12696   6.056   6.156  14.471 -0.6275 -0.1893 -0.6190
   9423SM  C17S12697   6.170   6.329  14.475 -0.2191  0.0350 -0.4757
   9423SM  H17S12698   6.079   6.393  14.475 -0.1193  0.2808  1.8567
   9423SM  H17T12699   6.249   6.378  14.415 -0.2191 -0.1719 -0.6470
   9423SM  C18S12700   6.235   6.315  14.616 -0.9039  0.1882  0.1642
   9423SM  H18S12701   6.316   6.239  14.620 -0.7815  0.3221  0.2698
   9423SM  H18T12702   6.160   6.270  14.685  0.5182 -2.1004  0.2992
   9423SM  H18U12703   6.268   6.414  14.656  2.8354 -0.1123 -1.7984
   9423SM   C1F12704   6.264   6.127  13.440 -0.1520  0.4055  0.3526
   9423SM    OF12705   6.175   6.098  13.360  0.1635 -0.3793 -0.1761
   9423SM   C2F12706   6.276   6.270  13.496 -0.8923  0.3800 -0.7551
   9423SM   H2F12707   6.239   6.343  13.421 -0.0067  2.9570  1.1382
   9423SM   H2G12708   6.381   6.298  13.521 -2.4887  4.7828  2.3351
   9423SM   C3F12709   6.199   6.280  13.633  0.3176 -0.4391 -0.3851
   9423SM   H3F12710   6.097   6.242  13.614 -0.8952  2.0350  0.7443
   9423SM   H3G12711   6.188   6.385  13.668 -0.3329 -1.2147  1.9342
   9423SM   C4F12712   6.246   6.185  13.747  0.1618 -0.4234  0.2844
   9423SM   H4F12713   6.237   6.078  13.716  0.2540 -0.6447  1.0025
   9423SM   H4G12714   6.183   6.196  13.837 -0.7072 -0.5057 -0.3022
   9423SM   C5F12715   6.391   6.208  13.801 -1.0943  0.3331 -0.0061
   9423SM   H5F12716   6.462   6.157  13.733  1.2425  0.6656  2.0378
   9423SM   H5G12717   6.406   6.157  13.899 -1.1158 -1.1222 -0.7280
   9423SM   C6F12718   6.426   6.351  13.821  0.3310  0.2486 -0.6403
   9423SM   H6F12719   6.402   6.403  13.725 -0.6330  0.7404 -0.1432
   9423SM   H6G12720   6.534   6.372  13.837  0.0573  0.2195  1.5191
   9423SM   C7F12721   6.356   6.415  13.943  0.3046  0.1484 -0.0087
   9423SM   H7F12722   6.363   6.344  14.027 -2.0405  0.9427  0.9617
   9423SM   H7G12723   6.245   6.419  13.933  0.1922  0.3218  1.1787
   9423SM   C8F12724   6.408   6.556  13.980 -0.6000 -0.5528  0.0289
   9423SM   H8F12725   6.417   6.617  13.888  0.5196 -1.8990 -0.8017
   9423SM   H8G12726   6.509   6.534  14.019 -1.0371 -1.6139  0.6071
   9423SM   C9F12727   6.325   6.625  14.095 -0.1536  0.9214 -0.3573
   9423SM   H9F12728   6.297   6.540  14.160  0.2351  0.6310 -0.5642
   9423SM   H9G12729   6.229   6.654  14.046 -0.0884 -0.7772 -1.6016
   9423SM  C10F12730   6.406   6.720  14.176 -0.1411  0.1059  0.0705
   9423SM  H10F12731   6.443   6.796  14.103  2.0747  1.4890  2.4535
   9423SM  H10G12732   6.493   6.666  14.220  0.6035  1.1953 -0.0272
   9423SM  C11F12733   6.335   6.788  14.299 -0.1457  0.2363  0.4307
   9423SM  H11F12734   6.405   6.868  14.332  0.6020  0.2348 -1.0293
   9423SM  H11G12735   6.321   6.709  14.376 -1.6952 -1.0824 -1.1162
   9423SM  C12F12736   6.200   6.847  14.248 -0.7153  0.4224  0.2150
   9423SM  H12F12737   6.138   6.769  14.198  0.2276 -0.2720  0.0985
   9423SM  H12G12738   6.223   6.928  14.175 -0.9365  1.0184  0.8016
   9423SM  C13F12739   6.112   6.911  14.355  0.2506  0.5038 -0.1497
   9423SM  H13F12740   6.026   6.956  14.301  1.1131 -0.2159 -2.2534
   9423SM  H13G12741   6.169   6.998  14.394 -0.9047  1.4796 -0.5531
   9423SM  C14F12742   6.079   6.818  14.470 -0.5263 -0.7491 -0.2656
   9423SM  H14F12743   6.168   6.779  14.525  0.5409  1.5300 -0.2676
   9423SM  H14G12744   6.018   6.731  14.437  1.3264 -1.7014 -1.3656
   9423SM  C15F12745   5.987   6.883  14.575  0.1088  0.0201  0.7835
   9423SM  H15F12746   5.893   6.915  14.527 -1.1197 -1.0650  2.3587
   9423SM  H15G12747   6.028   6.975  14.623 -1.9362  1.6489 -0.4559
   9423SM  C16F12748   5.958   6.789  14.692  0.2891 -0.0265 -0.1338
   9423SM  H16F12749   5.940   6.852  14.782  0.8477  1.7333 -1.2019
   9423SM  H16G12750   6.046   6.725  14.712 -0.2430 -0.0738  2.3136
   9423SM  C17F12751   5.840   6.689  14.681 -0.4704 -0.7575  0.0350
   9423SM  H17F12752   5.851   6.597  14.620 -1.4396 -0.9021  0.0584
   9423SM  H17G12753   5.758   6.752  14.638 -0.4377  0.1510  1.2478
   9423SM  C18F12754   5.775   6.649  14.818 -0.0695 -0.1594 -0.2789
   9423SM  H18F12755   5.856   6.637  14.893 -0.7144  1.1182  0.6568
   9423SM  H18G12756   5.722   6.553  14.802  0.3636 -0.5354  0.4965
   9423SM  C19F12757   5.681   6.751  14.881  0.0560  0.2982  0.3916
   9423SM  H19F12758   5.631   6.700  14.966  0.1125 -1.3612 -0.5433
   9423SM  H19G12759   5.610   6.767  14.797  0.1615 -1.0668  0.0194
   9423SM  C20F12760   5.735   6.886  14.938 -0.0518  0.1779  0.1918
   9423SM  H20F12761   5.648   6.950  14.962  1.0692  2.2441 -0.9280
   9423SM  H20G12762   5.777   6.951  14.857 -1.0614 -1.3995 -1.6677
   9423SM  C21F12763   5.824   6.878  15.061 -0.6451 -0.2970  0.5793
   9423SM  H21F12764   5.924   6.844  15.024 -0.4862  0.4461  0.3056
   9423SM  H21G12765   5.780   6.809  15.136 -1.1310 -1.2177 -0.5270
   9423SM  C22F12766   5.846   7.018  15.124 -0.1164 -0.1028  0.7792
   9423SM  H22F12767   5.863   7.087  15.038 -1.0397 -2.3598 -1.3288
   9423SM  H22G12768   5.934   7.009  15.191  0.2117 -0.7604  0.2694
   9423SM  C23F12769   5.728   7.067  15.205 -0.4718  0.2365 -0.5683
   9423SM  H23F12770   5.711   7.003  15.294  2.9812  0.7330  0.6177
   9423SM  H23G12771   5.638   7.065  15.140 -1.1313 -0.7994  0.3553
   9423SM  H23H12772   5.747   7.163  15.258  1.6670 -0.5795  0.2513
   9523SM     N12773   0.824   1.546  12.585  0.3363 -0.6091 -0.1389
   9523SM   C1512774   0.708   1.553  12.497  0.3935  0.4000 -0.2900
   9523SM  H15A12775   0.630   1.613  12.542  1.7985  0.7763  1.7981
   9523SM  H15B12776   0.669   1.453  12.486 -2.0709  1.2596 -0.0008
   9523SM  H15C12777   0.732   1.599  12.401  0.6746  0.3344 -0.2544
   9523SM   C1412778   0.912   1.442  12.526  0.3686 -0.2852  0.4666
   9523SM  H14A12779   0.852   1.366  12.479  0.0269  0.1592  0.1868
   9523SM  H14B12780   0.993   1.412  12.592  2.1470 -1.4986 -2.1148
   9523SM  H14C12781   0.960   1.485  12.440 -0.2909 -0.5878 -0.0534
   9523SM   C1312782   0.900   1.680  12.578  0.4543  0.4511  0.6804
   9523SM  H13A12783   0.938   1.698  12.479  1.6418 -2.2349  0.5636
   9523SM  H13B12784   0.975   1.680  12.656  1.0088  1.5460  0.1630
   9523SM  H13C12785   0.831   1.751  12.622  0.1927  1.0643 -0.6750
   9523SM   C1212786   0.781   1.514  12.719  0.9781  1.0895  0.0265
   9523SM  H12A12787   0.726   1.422  12.710  1.5453  0.8444 -1.1437
   9523SM  H12B12788   0.708   1.585  12.757 -0.5861  0.5825 -1.9135
   9523SM   C1112789   0.899   1.482  12.823 -0.6184  0.4932  0.3498
   9523SM  H11A12790   0.852   1.462  12.921 -1.4177  0.8270  0.0432
   9523SM  H11B12791   0.954   1.578  12.836 -0.9823  0.6510  0.7106
   9523SM     P12792   1.117   1.345  12.855 -0.1784 -0.0425  0.0538
   9523SM   O1312793   1.166   1.217  12.804  0.1337  0.4596  0.2251
   9523SM   O1412794   1.209   1.461  12.825 -0.5175  0.3873 -0.3769
   9523SM   O1112795   1.083   1.340  13.008  0.5746  0.2479  0.1706
   9523SM   O1212796   0.983   1.376  12.786 -0.0728  0.0808 -0.1995
   9523SM   C1S12797   1.184   1.357  13.102  0.5989 -0.2595 -0.0194
   9523SM   H1S12798   1.233   1.455  13.084  0.2462 -0.2418 -0.9142
   9523SM   H1T12799   1.266   1.281  13.096  1.6880  0.9760 -1.5638
   9523SM    NF12800   1.264   1.382  13.333  0.1875 -0.5027  0.5132
   9523SM   HNF12801   1.314   1.301  13.363 -1.0528 -1.9128 -1.0166
   9523SM   C2S12802   1.142   1.364  13.255 -0.7353  0.2290 -0.4925
   9523SM   H2S12803   1.079   1.455  13.257 -1.5579 -0.2933  2.2531
   9523SM   C3S12804   1.060   1.243  13.300  0.3391  0.5904  0.8981
   9523SM   H3S12805   1.122   1.150  13.302  0.1939  0.4833  0.5163
   9523SM    O312806   0.964   1.203  13.208  0.7248  0.6293  0.5477
   9523SM   HO312807   0.975   1.260  13.131 -0.8051  1.0115  0.5821
   9523SM   C4S12808   1.003   1.256  13.431 -0.4510 -0.4291 -0.1385
   9523SM   H4S12809   0.916   1.324  13.429 -0.2464  0.0061  2.1802
   9523SM   C5S12810   1.051   1.199  13.550  0.3663  0.4172 -0.1344
   9523SM   H5S12811   1.139   1.135  13.545 -0.4503 -0.8006  0.5975
   9523SM   C6S12812   0.983   1.233  13.680 -0.2262  0.8029 -0.0016
   9523SM   H6S12813   0.874   1.242  13.663 -0.1397  1.7105 -0.0849
   9523SM   H6T12814   1.025   1.331  13.710  0.9058  0.6088 -0.8802
   9523SM   C7S12815   1.010   1.123  13.788 -1.1231  0.2645 -0.1034
   9523SM   H7S12816   1.120   1.110  13.796 -0.8435  1.5707 -1.3788
   9523SM   H7T12817   0.965   1.033  13.741 -1.1196  0.5595 -0.6775
   9523SM   C8S12818   0.951   1.143  13.927 -0.1892 -0.0442 -0.7559
   9523SM   H8S12819   0.964   1.050  13.986 -1.0605  1.2297  1.5537
   9523SM   H8T12820   0.843   1.169  13.922 -0.0162  0.7311 -0.6314
   9523SM   C9S12821   1.027   1.252  14.018 -0.4584 -0.0674 -0.6777
   9523SM   H9S12822   1.021   1.351  13.967 -0.9339 -0.8516 -2.2233
   9523SM   H9T12823   1.133   1.225  14.037  0.4012  2.9364 -0.6360
   9523SM  C10S12824   0.975   1.267  14.157  0.3265 -0.0442  0.2312
   9523SM  H10S12825   0.870   1.300  14.152  0.3117  0.2898  2.0737
   9523SM  H10T12826   1.041   1.344  14.201  0.2364  0.3873 -0.3786
   9523SM  C11S12827   0.975   1.139  14.243  0.2872  0.2489 -0.5990
   9523SM  H11S12828   1.072   1.088  14.226  0.5008  0.5500 -0.2854
   9523SM  H11T12829   0.892   1.072  14.212  0.7001 -0.6345  0.1533
   9523SM  C12S12830   0.974   1.177  14.389  0.1353 -0.2053 -0.5279
   9523SM  H12S12831   0.877   1.222  14.422  0.6646  0.8217 -0.3104
   9523SM  H12T12832   1.047   1.259  14.407  1.4149 -1.0979 -1.5114
   9523SM  C13S12833   0.999   1.061  14.485  0.0120  0.8208  0.5712
   9523SM  H13S12834   1.087   0.997  14.465 -2.6315 -2.7266 -0.6387
   9523SM  H13T12835   0.920   0.987  14.461  1.7488 -0.3886 -1.7853
   9523SM  C14S12836   1.002   1.094  14.634 -0.1676 -0.3808  0.3194
   9523SM  H14S12837   0.987   0.998  14.690 -0.7864 -0.0777  0.6859
   9523SM  H14T12838   0.906   1.140  14.667 -0.0777 -0.7639  1.1555
   9523SM  C15S12839   1.126   1.169  14.689 -0.1313  0.4833  0.2854
   9523SM  H15S12840   1.154   1.247  14.615  2.2175 -0.4968  0.0659
   9523SM  H15T12841   1.219   1.111  14.701  0.1949  1.1220  0.9118
   9523SM  C16S12842   1.101   1.242  14.824 -0.0716  0.1461  0.5238
   9523SM  H16S12843   1.012   1.307  14.809  1.1479  1.4469 -1.6865
   9523SM  H16T12844   1.181   1.316  14.843  0.0764  0.1372 -0.0302
   9523SM  C17S12845   1.077   1.146  14.945 -0.7068 -0.2349 -0.2364
   9523SM  H17S12846   1.159   1.072  14.951  1.9413  2.6064  1.6450
   9523SM  H17T12847   0.980   1.097  14.924 -0.8647 -0.7941  1.6237
   9523SM  C18S12848   1.079   1.231  15.074  0.5064  0.7658 -0.3670
   9523SM  H18S12849   1.043   1.175  15.163 -0.0960 -1.6621 -2.0187
   9523SM  H18T12850   1.018   1.322  15.054 -0.5347  0.0218 -0.6610
   9523SM  H18U12851   1.182   1.255  15.107  0.7328  0.9648 -1.1849
   9523SM   C1F12852   1.326   1.493  13.348  0.4999 -1.0885  0.6950
   9523SM    OF12853   1.269   1.598  13.303 -0.2380  0.4766  0.1253
   9523SM   C2F12854   1.458   1.495  13.415  0.3053  0.7500 -0.1213
   9523SM   H2F12855   1.516   1.404  13.390  0.8500  0.9317  0.4658
   9523SM   H2G12856   1.440   1.504  13.524 -0.9401 -0.6476 -0.1779
   9523SM   C3F12857   1.550   1.617  13.371  0.4105 -0.0986 -0.5574
   9523SM   H3F12858   1.524   1.711  13.423 -1.5083  0.6760 -2.7751
   9523SM   H3G12859   1.532   1.643  13.264 -1.8360 -0.8352 -0.4133
   9523SM   C4F12860   1.705   1.603  13.406  0.1642  0.1349 -0.3693
   9523SM   H4F12861   1.762   1.673  13.341  0.1449 -0.5870 -1.1935
   9523SM   H4G12862   1.738   1.498  13.391  0.4348 -0.1170  1.7676
   9523SM   C5F12863   1.742   1.630  13.560  0.1550  0.6954 -0.3261
   9523SM   H5F12864   1.704   1.548  13.625 -0.8385  0.2562 -1.4168
   9523SM   H5G12865   1.687   1.722  13.588  2.2681  1.6228  0.9468
   9523SM   C6F12866   1.890   1.638  13.581 -0.1995 -0.2962  0.1728
   9523SM   H6F12867   1.932   1.708  13.505  0.5736 -1.2436 -0.3010
   9523SM   H6G12868   1.938   1.539  13.570 -0.2550 -0.3518  0.4313
   9523SM   C7F12869   1.918   1.702  13.720  0.5646 -0.0495  0.2267
   9523SM   H7F12870   1.844   1.655  13.789 -0.1005 -0.7976 -0.9725
   9523SM   H7G12871   1.888   1.808  13.709  0.7811 -0.0156 -0.0140
   9523SM   C8F12872   2.060   1.677  13.766 -0.4657  0.1376  0.0575
   9523SM   H8F12873   2.116   1.722  13.682 -1.4248  2.5636  0.6340
   9523SM   H8G12874   2.087   1.569  13.764  0.3875  0.3372 -2.2241
   9523SM   C9F12875   2.090   1.737  13.903 -0.0776 -0.5457  0.0373
   9523SM   H9F12876   2.048   1.839  13.893 -1.2922 -1.1768 -2.1989
   9523SM   H9G12877   2.197   1.732  13.930 -0.4021  0.9112  1.7418
   9523SM  C10F12878   2.003   1.670  14.011 -0.4837  0.5283 -0.4905
   9523SM  H10F12879   2.016   1.560  13.998 -1.7908  0.2743  0.2056
   9523SM  H10G12880   1.897   1.701  14.004 -0.2444  1.3157 -0.7192
   9523SM  C11F12881   2.058   1.700  14.154 -0.3789 -0.5090  0.5437
   9523SM  H11F12882   2.039   1.809  14.157  1.2504 -0.1844  0.2781
   9523SM  H11G12883   2.166   1.679  14.170 -0.2314 -0.0658  0.1450
   9523SM  C12F12884   1.969   1.639  14.256  0.4070  0.4048  0.0273
   9523SM  H12F12885   1.982   1.529  14.240 -0.6575 -0.1673  2.6382
   9523SM  H12G12886   1.865   1.672  14.240  0.8622  1.0831 -1.7425
   9523SM  C13F12887   2.022   1.678  14.400  0.0633  0.1114  0.1091
   9523SM  H13F12888   1.964   1.766  14.437 -1.3358 -0.6579 -0.1837
   9523SM  H13G12889   2.127   1.709  14.385  0.2249 -0.7322 -0.5843
   9523SM  C14F12890   2.021   1.564  14.507  0.0121 -0.1565 -0.3409
   9523SM  H14F12891   2.098   1.489  14.478 -0.8739 -1.4847  0.5619
   9523SM  H14G12892   1.923   1.512  14.500  0.4178 -0.8503 -0.9657
   9523SM  C15F12893   2.067   1.623  14.645  0.2511  0.2942  0.1878
   9523SM  H15F12894   1.976   1.635  14.709  0.2859  0.3467  0.2275
   9523SM  H15G12895   2.116   1.722  14.646  1.4402 -0.2737  1.5652
   9523SM  C16F12896   2.160   1.534  14.724  0.2442 -0.4491  0.3190
   9523SM  H16F12897   2.261   1.528  14.677  0.3022  3.1059 -0.3105
   9523SM  H16G12898   2.112   1.434  14.716 -2.5444  0.8566 -0.6581
   9523SM  C17F12899   2.180   1.559  14.870 -0.2947 -0.3276 -0.2380
   9523SM  H17F12900   2.082   1.578  14.919  0.4472  0.7947  0.8757
   9523SM  H17G12901   2.238   1.654  14.875 -0.8368  0.0547 -1.0211
   9523SM  C18F12902   2.257   1.452  14.937  0.3470  0.9229 -0.2323
   9523SM  H18F12903   2.362   1.433  14.906  0.8449 -0.1563  1.9414
   9523SM  H18G12904   2.199   1.360  14.916 -0.3765  1.2856  0.1678
   9523SM  C19F12905   2.266   1.468  15.085  1.1399  0.4491  0.2508
   9523SM  H19F12906   2.268   1.573  15.121 -0.3548 -0.0545  1.9491
   9523SM  H19G12907   2.345   1.410  15.136  1.3490 -0.3094 -0.9019
   9523SM  C20F12908   2.136   1.434  15.152  0.6804 -0.3019 -1.1704
   9523SM  H20F12909   2.122   1.324  15.144  1.2546 -0.3704 -1.2502
   9523SM  H20G12910   2.044   1.470  15.101 -0.0777 -2.3724 -1.3272
   9523SM  C21F12911   2.131   1.488  15.300 -1.3370 -0.3084  0.1062
   9523SM  H21F12912   2.132   1.599  15.289  0.2747 -0.4294 -1.5977
   9523SM  H21G12913   2.230   1.459  15.340  0.9260  3.7888 -1.8325
   9523SM  C22F12914   2.018   1.435  15.386  0.0087 -0.3483 -0.6122
   9523SM  H22F12915   2.022   1.464  15.493 -1.7690 -0.8325 -0.3721
   9523SM  H22G12916   2.021   1.324  15.377  3.7000 -0.2941 -1.4545
   9523SM  C23F12917   1.887   1.485  15.336  0.2312  0.1070  0.3710
   9523SM  H23F12918   1.884   1.595  15.325 -0.6821  0.1594  1.0043
   9523SM  H23G12919   1.809   1.451  15.408 -0.0643 -1.1616 -0.5213
   9523SM  H23H12920   1.860   1.460  15.231 -0.0606  2.0744 -0.0538
   9623SM     N12921   4.077   5.499  12.018 -0.1964  0.0012  0.3326
   9623SM   C1512922   4.119   5.411  11.903 -0.8439 -0.2782 -0.9638
   9623SM  H15A12923   4.192   5.335  11.929 -1.5537 -1.0388 -1.1419
   9623SM  H15B12924   4.166   5.480  11.835  1.6533  0.7035  1.5291
   9623SM  H15C12925   4.034   5.353  11.870 -0.5784 -1.7188  0.6832
   9623SM   C1412926   3.975   5.593  11.969  0.5558  0.0334  0.0869
   9623SM  H14A12927   3.889   5.543  11.927 -0.1485  0.9402  0.4166
   9623SM  H14B12928   4.019   5.668  11.904  1.8696  0.4279  1.3810
   9623SM  H14C12929   3.940   5.654  12.050  0.6263  0.3238 -0.1000
   9623SM   C1312930   4.014   5.399  12.117  0.4787 -0.0209 -0.9660
   9623SM  H13A12931   3.924   5.346  12.087 -0.3045 -1.2823  3.0461
   9623SM  H13B12932   3.984   5.455  12.204 -0.8229  3.7930 -3.5910
   9623SM  H13C12933   4.079   5.317  12.145  0.5575 -0.4010 -2.1944
   9623SM   C1212934   4.189   5.573  12.086  0.1590 -0.9295 -0.1475
   9623SM  H12A12935   4.241   5.625  12.007 -1.4022 -1.7537 -1.7988
   9623SM  H12B12936   4.262   5.500  12.117  1.2816  0.5880  0.9125
   9623SM   C1112937   4.158   5.665  12.216 -0.3027 -0.2431  0.8186
   9623SM  H11A12938   4.253   5.708  12.255  1.1771 -2.0736 -0.5183
   9623SM  H11B12939   4.120   5.600  12.297 -2.1934  0.4483  0.5194
   9623SM     P12940   4.075   5.906  12.161 -0.0738 -0.1844  0.0899
   9623SM   O1312941   4.176   5.913  12.056  0.1529 -0.3930  0.0635
   9623SM   O1412942   3.940   5.962  12.135 -0.4471  0.5835  0.0279
   9623SM   O1112943   4.133   5.972  12.292 -0.3354  0.4734  0.1368
   9623SM   O1212944   4.060   5.761  12.197 -0.1526 -0.4582  0.0174
   9623SM   C1S12945   4.048   5.954  12.407 -0.5765  1.0037 -0.4118
   9623SM   H1S12946   4.057   5.847  12.433  1.2287  1.4186  0.8456
   9623SM   H1T12947   3.941   5.974  12.387 -1.3249 -1.1069  1.1162
   9623SM    NF12948   4.007   6.026  12.642 -0.0384  0.2980  0.2118
   9623SM   HNF12949   3.945   6.096  12.677  1.2983  1.5893  0.0891
   9623SM   C2S12950   4.092   6.042  12.523  0.1355  0.5762 -0.5153
   9623SM   H2S12951   4.198   6.016  12.542  0.3395  1.2376 -0.7279
   9623SM   C3S12952   4.101   6.194  12.489  0.0005  0.0367 -0.6192
   9623SM   H3S12953   4.009   6.250  12.462 -1.2190 -1.3833  0.4456
   9623SM    O312954   4.188   6.217  12.378  0.6142 -0.0453  0.0688
   9623SM   HO312955   4.206   6.134  12.333 -0.5253  0.3759 -1.2164
   9623SM   C4S12956   4.169   6.273  12.606 -0.2268 -0.4288  0.9435
   9623SM   H4S12957   4.272   6.239  12.619 -0.0949  0.4379  2.2919
   9623SM   C5S12958   4.106   6.359  12.690  0.2963 -0.4408  0.0204
   9623SM   H5S12959   4.010   6.406  12.665  0.8274  0.1737 -0.9655
   9623SM   C6S12960   4.167   6.416  12.815 -0.2289  0.0466  0.1938
   9623SM   H6S12961   4.078   6.442  12.875 -1.4959 -0.8978 -1.2150
   9623SM   H6T12962   4.232   6.505  12.802  0.3289 -0.3844 -0.0354
   9623SM   C7S12963   4.253   6.315  12.901 -1.2508  0.1622  0.0935
   9623SM   H7S12964   4.326   6.265  12.833 -2.1699 -1.4556  0.2547
   9623SM   H7T12965   4.195   6.240  12.958 -1.0893  2.0532  2.9703
   9623SM   C8S12966   4.316   6.383  13.026 -0.1614 -0.2142  0.0787
   9623SM   H8S12967   4.407   6.439  12.999 -0.8304  2.4835  2.8582
   9623SM   H8T12968   4.342   6.307  13.103 -0.6882  0.3649  0.8542
   9623SM   C9S12969   4.225   6.490  13.090  0.3371  0.9593  0.5443
   9623SM   H9S12970   4.118   6.461  13.084  0.4037  0.9630 -1.1612
   9623SM   H9T12971   4.232   6.585  13.033 -0.1587  0.9687  0.4957
   9623SM  C10S12972   4.266   6.519  13.236 -0.1491 -0.8036  0.0133
   9623SM  H10S12973   4.370   6.559  13.235 -1.2514  2.3178 -0.8532
   9623SM  H10T12974   4.267   6.423  13.292  1.6600 -0.5735  0.4427
   9623SM  C11S12975   4.187   6.629  13.312  1.4437  0.0281  0.1541
   9623SM  H11S12976   4.080   6.601  13.312  1.4171  0.1261 -0.4620
   9623SM  H11T12977   4.200   6.728  13.264  1.0842 -0.8232 -1.7988
   9623SM  C12S12978   4.238   6.639  13.457  0.1450 -0.4304 -0.9197
   9623SM  H12S12979   4.342   6.676  13.456  0.6259 -1.7193 -2.4819
   9623SM  H12T12980   4.233   6.542  13.511 -0.2599 -0.1342 -0.4138
   9623SM  C13S12981   4.149   6.729  13.549  0.3953  0.2568 -0.5336
   9623SM  H13S12982   4.052   6.674  13.555  0.4806  0.1177 -0.3850
   9623SM  H13T12983   4.135   6.828  13.501  0.2471  0.5199  0.0466
   9623SM  C14S12984   4.199   6.722  13.702  0.2430  0.0160 -0.4701
   9623SM  H14S12985   4.300   6.767  13.706  0.8126 -1.3068  0.5986
   9623SM  H14T12986   4.228   6.617  13.722  1.2674  0.2238 -0.8139
   9623SM  C15S12987   4.106   6.783  13.803 -0.3524 -0.3426 -0.3446
   9623SM  H15S12988   4.157   6.765  13.899  0.7858  0.3397 -0.8073
   9623SM  H15T12989   4.005   6.737  13.812 -0.1447 -0.5378  1.2374
   9623SM  C16S12990   4.093   6.936  13.776  0.1690 -0.3743 -0.5203
   9623SM  H16S12991   4.057   6.968  13.676  0.4309  1.6504 -0.0149
   9623SM  H16T12992   4.194   6.982  13.778 -0.7725  1.9168 -1.5472
   9623SM  C17S12993   4.030   7.014  13.900  0.1206 -0.2872  0.5314
   9623SM  H17S12994   3.928   6.975  13.920  0.8200 -1.3830  2.2820
   9623SM  H17T12995   4.020   7.120  13.871 -0.2747 -0.5697 -0.3864
   9623SM  C18S12996   4.100   7.008  14.037  0.1280  0.4559 -0.2000
   9623SM  H18S12997   4.095   6.903  14.074  0.4164  0.1082 -1.1316
   9623SM  H18T12998   4.058   7.067  14.121  2.0404 -0.2478  1.3396
   9623SM  H18U12999   4.207   7.037  14.023  0.4477 -0.8514 -0.6057
   9623SM   C1F13000   4.010   5.912  12.699 -0.0724  0.1882 -0.0692
   9623SM    OF13001   4.100   5.835  12.683  0.3938  0.3326 -0.1066
   9623SM   C2F13002   3.887   5.874  12.782  0.0472 -0.4985 -0.6991
   9623SM   H2F13003   3.897   5.765  12.803 -1.1600 -0.5651 -0.3546
   9623SM   H2G13004   3.797   5.874  12.717  1.5724 -1.5055 -2.9487
   9623SM   C3F13005   3.861   5.958  12.910 -0.4972  0.4415  0.4911
   9623SM   H3F13006   3.774   5.919  12.966 -1.5949  0.8382 -0.8880
   9623SM   H3G13007   3.834   6.063  12.887  0.0925  0.7286  1.0523
   9623SM   C4F13008   3.983   5.962  13.011 -0.0415  0.3541 -0.3106
   9623SM   H4F13009   4.071   6.001  12.955 -0.4222 -0.3052 -1.3980
   9623SM   H4G13010   4.030   5.862  13.027 -1.4091 -0.4205 -1.0020
   9623SM   C5F13011   3.965   6.047  13.138  0.2180 -0.1361  1.3564
   9623SM   H5F13012   4.055   6.033  13.201  0.2492 -1.4168  1.0432
   9623SM   H5G13013   3.882   6.001  13.197  1.9835 -2.3510  2.2381
   9623SM   C6F13014   3.941   6.195  13.109 -0.6828  0.1355 -0.3152
   9623SM   H6F13015   3.840   6.212  13.067  1.0379  3.1150 -3.7822
   9623SM   H6G13016   4.005   6.241  13.030  0.3217  0.7726  0.8272
   9623SM   C7F13017   3.958   6.279  13.244 -0.3677 -0.4486 -0.2628
   9623SM   H7F13018   3.942   6.385  13.216  0.8298  0.3795  1.9435
   9623SM   H7G13019   4.068   6.284  13.262 -0.4779 -0.1098  0.3470
   9623SM   C8F13020   3.881   6.229  13.361  0.4059  0.2577 -0.0697
   9623SM   H8F13021   3.926   6.131  13.386  0.7522 -0.3067 -2.6081
   9623SM   H8G13022   3.773   6.216  13.337 -0.2201  1.2424  1.9663
   9623SM   C9F13023   3.892   6.329  13.472 -0.3884  0.7452 -0.4392
   9623SM   H9F13024   3.867   6.429  13.429 -0.7589  0.9986  0.3571
   9623SM   H9G13025   3.995   6.322  13.512 -0.0613  0.2211 -1.3417
   9623SM  C10F13026   3.793   6.284  13.585  0.3291 -0.3209  0.1539
   9623SM  H10F13027   3.816   6.182  13.623  2.2859  0.0934  0.1956
   9623SM  H10G13028   3.690   6.273  13.546  0.2652  0.6435  0.0238
   9623SM  C11F13029   3.781   6.379  13.697 -0.2521  0.3234  0.4913
   9623SM  H11F13030   3.710   6.460  13.669 -0.9062  0.0580  1.3147
   9623SM  H11G13031   3.874   6.436  13.717  0.8899 -0.8765 -1.2066
   9623SM  C12F13032   3.723   6.306  13.820 -0.2707  0.1936  0.5897
   9623SM  H12F13033   3.804   6.255  13.877 -0.0185  0.2598  0.2905
   9623SM  H12G13034   3.647   6.234  13.781 -0.1231  0.7329 -0.7329
   9623SM  C13F13035   3.657   6.405  13.926 -0.0790  0.2261  0.1237
   9623SM  H13F13036   3.590   6.467  13.863  0.4258 -0.2396 -0.8897
   9623SM  H13G13037   3.747   6.454  13.968  0.2359 -0.8421  0.7324
   9623SM  C14F13038   3.593   6.337  14.045  0.3882 -0.2201  0.3776
   9623SM  H14F13039   3.668   6.289  14.111  1.3242 -0.8685 -1.1070
   9623SM  H14G13040   3.534   6.251  14.007  0.7753 -0.1729 -0.3590
   9623SM  C15F13041   3.522   6.439  14.129  0.2346 -0.0382 -0.1480
   9623SM  H15F13042   3.425   6.472  14.088 -0.1812 -0.0200  0.8371
   9623SM  H15G13043   3.588   6.527  14.146 -1.1890  0.8299  1.1439
   9623SM  C16F13044   3.481   6.397  14.272  0.0532 -0.4275  0.4512
   9623SM  H16F13045   3.574   6.380  14.331  0.9882  0.0879 -0.8426
   9623SM  H16G13046   3.428   6.301  14.255 -1.0909  0.1843  0.4160
   9623SM  C17F13047   3.377   6.485  14.342  0.1612  0.2873  0.4504
   9623SM  H17F13048   3.338   6.442  14.436 -0.5086 -0.3300 -0.0983
   9623SM  H17G13049   3.283   6.491  14.283 -0.1832  2.2295  1.1232
   9623SM  C18F13050   3.427   6.634  14.365  0.2074  0.1339  0.4591
   9623SM  H18F13051   3.441   6.687  14.269  1.3453 -0.8091  0.0866
   9623SM  H18G13052   3.524   6.619  14.416 -0.2185 -0.5776  1.0870
   9623SM  C19F13053   3.331   6.699  14.462  0.8616  0.5666 -0.4130
   9623SM  H19F13054   3.346   6.635  14.551 -0.8904 -0.2191 -0.6418
   9623SM  H19G13055   3.225   6.679  14.435  0.9938 -1.9097  0.6697
   9623SM  C20F13056   3.346   6.850  14.493  0.0925  0.2619 -0.5895
   9623SM  H20F13057   3.298   6.905  14.409  1.3245 -0.3395 -1.7181
   9623SM  H20G13058   3.455   6.868  14.496  0.4116 -1.6255  1.4736
   9623SM  C21F13059   3.296   6.905  14.622 -0.4847 -0.0271 -0.5950
   9623SM  H21F13060   3.354   6.864  14.707  1.0171  0.5763 -1.2954
   9623SM  H21G13061   3.191   6.871  14.632 -0.2894 -0.2533  0.9104
   9623SM  C22F13062   3.308   7.057  14.626  0.2757  0.8287 -0.5632
   9623SM  H22F13063   3.280   7.098  14.725  0.3760 -2.7093  1.0705
   9623SM  H22G13064   3.225   7.089  14.559  0.7061  0.3905 -1.3253
   9623SM  C23F13065   3.443   7.117  14.588 -0.0434 -0.0770 -0.1682
   9623SM  H23F13066   3.458   7.102  14.479  2.4243  0.7724 -0.0146
   9623SM  H23G13067   3.527   7.076  14.647  0.2220 -0.2473 -0.6575
   9623SM  H23H13068   3.434   7.227  14.599 -1.1719 -0.2068  0.2960
   9723SM     N13069   5.311   6.254  12.363 -0.1863 -0.0535 -0.5247
   9723SM   C1513070   5.319   6.107  12.363 -0.1261 -0.4898  0.0264
   9723SM  H15A13071   5.222   6.060  12.351 -1.0514  0.6734  2.2569
   9723SM  H15B13072   5.348   6.069  12.460  1.8972 -0.1555 -0.4105
   9723SM  H15C13073   5.383   6.068  12.286  0.6483 -0.8722  0.8521
   9723SM   C1413074   5.436   6.311  12.405 -0.1074  0.0134  0.3437
   9723SM  H14A13075   5.524   6.281  12.351 -0.3787  0.7131 -0.5155
   9723SM  H14B13076   5.452   6.295  12.511 -0.0681 -1.3293  0.1421
   9723SM  H14C13077   5.440   6.419  12.409  2.7835 -0.0216 -0.0295
   9723SM   C1313078   5.276   6.297  12.220 -0.5979  0.8485 -0.1667
   9723SM  H13A13079   5.210   6.224  12.176 -0.1751 -0.4162  1.2095
   9723SM  H13B13080   5.368   6.295  12.164  0.8510  3.1532  1.9222
   9723SM  H13C13081   5.236   6.397  12.218  0.7768  1.4004 -0.7413
   9723SM   C1213082   5.186   6.300  12.456 -0.7089  0.0138  0.2988
   9723SM  H12A13083   5.102   6.245  12.417 -0.7253  0.7069 -0.6866
   9723SM  H12B13084   5.174   6.407  12.445 -0.8608 -0.1596 -1.5077
   9723SM   C1113085   5.200   6.280  12.608  0.3156 -0.1773  0.1375
   9723SM  H11A13086   5.238   6.176  12.623  0.3096 -0.3825 -1.1987
   9723SM  H11B13087   5.099   6.293  12.651 -0.6494 -1.2094 -1.7118
   9723SM     P13088   5.274   6.523  12.712  0.2231 -0.0381 -0.0557
   9723SM   O1313089   5.401   6.597  12.692 -0.3646 -0.2748  0.9743
   9723SM   O1413090   5.154   6.583  12.647 -0.0228  0.1406 -0.7172
   9723SM   O1113091   5.239   6.499  12.865  0.4432 -0.0674 -0.0197
   9723SM   O1213092   5.293   6.375  12.665 -0.3714  0.2251 -0.1603
   9723SM   C1S13093   5.109   6.446  12.895 -0.0577 -0.4758 -0.3312
   9723SM   H1S13094   5.108   6.335  12.882 -0.1843 -0.8141  2.1356
   9723SM   H1T13095   5.032   6.487  12.826 -0.1587 -1.2494 -0.6950
   9723SM    NF13096   4.930   6.449  13.060 -0.0496  0.2653  0.4700
   9723SM   HNF13097   4.872   6.530  13.055  1.5006  1.4616  1.0457
   9723SM   C2S13098   5.066   6.481  13.043 -0.4156 -0.2656  0.6484
   9723SM   H2S13099   5.129   6.426  13.116 -2.2913 -0.8995  1.8466
   9723SM   C3S13100   5.092   6.630  13.074 -0.4414 -0.5228  0.2936
   9723SM   H3S13101   5.041   6.695  13.000 -0.0533  1.1063  1.4068
   9723SM    O313102   5.226   6.672  13.064 -0.0824  0.7538  0.0143
   9723SM   HO313103   5.264   6.610  13.001 -2.1445 -1.0804  0.4824
   9723SM   C4S13104   5.027   6.675  13.204  0.3775 -0.7225 -0.8848
   9723SM   H4S13105   5.078   6.632  13.292 -0.2360  1.4344  0.6102
   9723SM   C5S13106   4.936   6.773  13.229 -0.1651  0.2680  0.8671
   9723SM   H5S13107   4.904   6.830  13.141  0.3641 -1.0252 -0.1891
   9723SM   C6S13108   4.885   6.815  13.359  0.5329 -0.0571 -0.0155
   9723SM   H6S13109   4.790   6.766  13.390  1.7175 -2.7789 -0.3147
   9723SM   H6T13110   4.871   6.924  13.369 -1.1021 -0.4163  2.6207
   9723SM   C7S13111   4.981   6.780  13.484  0.1513  0.2032  0.3066
   9723SM   H7S13112   5.083   6.805  13.449  0.1946  1.1814  1.0789
   9723SM   H7T13113   4.974   6.670  13.498  0.0294  0.4231  2.2566
   9723SM   C8S13114   4.952   6.845  13.625  0.3896 -0.2042  0.1762
   9723SM   H8S13115   4.844   6.835  13.650  0.0481 -0.8530 -1.4432
   9723SM   H8T13116   4.987   6.950  13.635  0.5924  0.0617 -2.6258
   9723SM   C9S13117   5.023   6.775  13.740  0.4298 -0.1291 -0.3513
   9723SM   H9S13118   5.124   6.743  13.705  1.9891  0.5437  3.0706
   9723SM   H9T13119   4.967   6.683  13.766  0.1446  0.1102 -0.1233
   9723SM  C10S13120   5.044   6.864  13.864  0.0697  0.2948  0.2877
   9723SM  H10S13121   5.078   6.963  13.828  0.2033  0.6403  1.3180
   9723SM  H10T13122   5.122   6.823  13.932  0.3138 -0.9726 -0.7227
   9723SM  C11S13123   4.909   6.879  13.941  0.2754 -0.1591 -0.5486
   9723SM  H11S13124   4.865   6.779  13.965  0.1128  0.4172  1.7682
   9723SM  H11T13125   4.825   6.924  13.884  0.6362  0.9418 -0.2321
   9723SM  C12S13126   4.932   6.957  14.072  0.4448 -0.2782 -0.4852
   9723SM  H12S13127   4.977   7.056  14.050 -2.8256  1.6366  0.7447
   9723SM  H12T13128   5.005   6.897  14.130  0.8610 -0.0884 -0.8139
   9723SM  C13S13129   4.814   6.983  14.173  0.0461 -0.3320  0.0168
   9723SM  H13S13130   4.771   6.884  14.198 -0.5602  0.4928  2.5225
   9723SM  H13T13131   4.728   7.034  14.125 -0.3513 -1.8848 -0.9800
   9723SM  C14S13132   4.856   7.036  14.310  0.7309  0.0732  0.3364
   9723SM  H14S13133   4.908   7.131  14.284 -2.9111  1.9206 -0.8877
   9723SM  H14T13134   4.925   6.965  14.360 -0.0610 -0.0478  1.2898
   9723SM  C15S13135   4.734   7.062  14.400  0.7092  0.1368 -0.4437
   9723SM  H15S13136   4.720   6.957  14.434 -0.7224 -0.3920 -2.5002
   9723SM  H15T13137   4.644   7.095  14.345 -0.6111  1.5970  2.3689
   9723SM  C16S13138   4.753   7.162  14.518  0.0162 -0.0249  0.3227
   9723SM  H16S13139   4.659   7.186  14.574  2.0002  1.1671  3.4285
   9723SM  H16T13140   4.792   7.259  14.481  2.5303 -1.0751  0.0449
   9723SM  C17S13141   4.879   7.122  14.605  0.2868  0.7780  0.6470
   9723SM  H17S13142   4.977   7.127  14.554  0.9896  0.5477  1.9294
   9723SM  H17T13143   4.860   7.015  14.630 -1.1772  0.6684 -0.7113
   9723SM  C18S13144   4.883   7.197  14.740 -0.1975  0.0982  0.5542
   9723SM  H18S13145   4.885   7.305  14.718  0.3216 -0.4749 -2.7194
   9723SM  H18T13146   4.969   7.173  14.806 -0.7468  1.5362  1.8550
   9723SM  H18U13147   4.789   7.167  14.792  0.5547 -1.5967  0.9971
   9723SM   C1F13148   4.888   6.324  13.069  0.9442  0.0214 -0.1440
   9723SM    OF13149   4.960   6.227  13.082 -0.0252  0.5773 -0.1599
   9723SM   C2F13150   4.742   6.304  13.045 -0.2909  0.1160  0.0601
   9723SM   H2F13151   4.727   6.235  12.959  0.8356 -0.0017 -0.0562
   9723SM   H2G13152   4.697   6.396  13.002 -1.9222  0.3448  2.1214
   9723SM   C3F13153   4.653   6.251  13.158  0.3973  0.3378 -0.1815
   9723SM   H3F13154   4.695   6.151  13.182 -1.5350 -1.6536 -4.2786
   9723SM   H3G13155   4.558   6.228  13.106  0.1464  2.3507 -0.7018
   9723SM   C4F13156   4.646   6.345  13.280  0.2441 -0.0317 -0.9980
   9723SM   H4F13157   4.547   6.343  13.330  0.0241  0.3334 -1.4088
   9723SM   H4G13158   4.658   6.448  13.241  1.1293  0.1070 -0.3750
   9723SM   C5F13159   4.746   6.323  13.392 -0.5753  1.0675  0.7661
   9723SM   H5F13160   4.846   6.307  13.345 -1.5901 -1.8399 -0.6565
   9723SM   H5G13161   4.712   6.230  13.441 -0.2448  0.1049 -0.7632
   9723SM   C6F13162   4.741   6.433  13.499  0.2516 -0.2952 -0.3839
   9723SM   H6F13163   4.735   6.523  13.434  0.3233 -0.0844 -0.1000
   9723SM   H6G13164   4.838   6.434  13.553  1.2239 -0.3001 -2.0576
   9723SM   C7F13165   4.623   6.429  13.596 -0.3132 -0.0172 -0.2177
   9723SM   H7F13166   4.610   6.323  13.626 -0.4400 -0.4014 -1.5645
   9723SM   H7G13167   4.525   6.459  13.553 -0.4838  0.6819  0.6324
   9723SM   C8F13168   4.651   6.504  13.724  0.2398  0.1738  0.1527
   9723SM   H8F13169   4.693   6.605  13.705  1.3910 -0.4188 -0.6385
   9723SM   H8G13170   4.725   6.455  13.792  1.6368  1.7548 -0.1565
   9723SM   C9F13171   4.533   6.516  13.813 -0.1119 -0.6869 -1.1784
   9723SM   H9F13172   4.478   6.422  13.834  1.7829 -1.0493  3.3173
   9723SM   H9G13173   4.457   6.582  13.768 -0.6204  0.0527  0.6680
   9723SM  C10F13174   4.556   6.578  13.953  0.8533 -0.6406 -0.0782
   9723SM  H10F13175   4.635   6.654  13.937  0.2595  0.4014  1.6839
   9723SM  H10G13176   4.606   6.498  14.012 -1.7312 -0.8235  2.0934
   9723SM  C11F13177   4.443   6.643  14.029 -0.1523  0.3724 -0.0793
   9723SM  H11F13178   4.366   6.567  14.055 -0.8040  1.1650  0.3692
   9723SM  H11G13179   4.389   6.720  13.970 -1.5623 -0.3752  0.1948
   9723SM  C12F13180   4.493   6.710  14.163  0.8507  0.4779 -0.3167
   9723SM  H12F13181   4.556   6.799  14.140  0.0149  0.8755 -1.1644
   9723SM  H12G13182   4.552   6.637  14.222 -0.5594 -1.2755 -0.9768
   9723SM  C13F13183   4.372   6.742  14.255 -0.0285 -0.2619  0.4948
   9723SM  H13F13184   4.314   6.647  14.262 -1.2878  0.5595  1.9173
   9723SM  H13G13185   4.308   6.815  14.200  2.9495  2.4423  0.3841
   9723SM  C14F13186   4.398   6.788  14.401  0.6929  0.1007  0.5425
   9723SM  H14F13187   4.449   6.887  14.397 -0.8535  0.9872  1.7226
   9723SM  H14G13188   4.472   6.715  14.441  0.4945 -0.6545 -0.4197
   9723SM  C15F13189   4.275   6.785  14.491 -0.4296 -1.2128  0.1499
   9723SM  H15F13190   4.242   6.679  14.500 -1.5186 -0.9045 -0.0672
   9723SM  H15G13191   4.202   6.838  14.426  3.0989  1.0634 -2.3199
   9723SM  C16F13192   4.285   6.850  14.631 -0.6846 -0.3011 -0.0295
   9723SM  H16F13193   4.367   6.792  14.678 -0.5870  0.0245  0.2088
   9723SM  H16G13194   4.189   6.826  14.681 -1.4673 -0.5783 -1.6018
   9723SM  C17F13195   4.321   6.996  14.618  0.2401  0.5045  0.0556
   9723SM  H17F13196   4.235   7.051  14.574  0.0698 -0.8781 -1.4442
   9723SM  H17G13197   4.414   7.011  14.559 -0.6551  0.6747 -1.3668
   9723SM  C18F13198   4.338   7.060  14.753  0.2211 -0.5248  0.4447
   9723SM  H18F13199   4.422   7.028  14.819  1.9345 -1.2431 -1.9695
   9723SM  H18G13200   4.242   7.039  14.805 -1.1297 -0.1824 -1.7803
   9723SM  C19F13201   4.333   7.213  14.740 -0.5169 -0.2061 -0.1489
   9723SM  H19F13202   4.239   7.246  14.692  0.0239  0.7584 -0.5651
   9723SM  H19G13203   4.418   7.244  14.675 -0.2945 -1.2522 -0.3826
   9723SM  C20F13204   4.321   7.280  14.875 -0.0398  0.0506  0.1290
   9723SM  H20F13205   4.414   7.281  14.936 -0.4735  0.6589  0.7867
   9723SM  H20G13206   4.234   7.249  14.937 -0.7032  0.7662 -0.4229
   9723SM  C21F13207   4.307   7.433  14.860 -0.0140  0.3891  1.1923
   9723SM  H21F13208   4.226   7.451  14.786  0.8209 -0.2466  0.1005
   9723SM  H21G13209   4.402   7.475  14.822 -0.2570  0.1526  0.2988
   9723SM  C22F13210   4.286   7.505  14.994 -0.7087 -0.6614 -0.6241
   9723SM  H22F13211   4.373   7.492  15.062  0.0678  1.6211 -1.0962
   9723SM  H22G13212   4.202   7.456  15.047  0.6002  0.0461  2.2972
   9723SM  C23F13213   4.235   7.656  14.991 -0.4654 -0.2485  0.3169
   9723SM  H23F13214   4.220   7.686  15.097 -2.2170  1.0119 -0.2435
   9723SM  H23G13215   4.143   7.660  14.928  1.6848  2.2667 -2.9958
   9723SM  H23H13216   4.309   7.723  14.943 -0.8665 -0.1125 -0.1187
   9823SM     N13217   7.057   6.439  12.911  0.8199  0.3657 -0.0126
   9823SM   C1513218   7.047   6.324  12.818  0.2025 -0.0838 -0.0161
   9823SM  H15A13219   7.145   6.302  12.779  0.4850  1.4309 -0.2319
   9823SM  H15B13220   6.978   6.336  12.735  0.9234 -0.2365 -0.6520
   9823SM  H15C13221   7.008   6.236  12.865 -1.6514 -0.2781 -1.7695
   9823SM   C1413222   7.068   6.563  12.827  0.2672 -0.0550 -0.1180
   9823SM  H14A13223   6.986   6.588  12.762  1.4476  3.3782 -0.5052
   9823SM  H14B13224   7.152   6.567  12.760  1.1066 -2.0077  0.7354
   9823SM  H14C13225   7.078   6.650  12.890 -0.3379 -0.0054 -0.0849
   9823SM   C1313226   6.926   6.452  12.993  0.6932  0.9988  0.8143
   9823SM  H13A13227   6.916   6.536  13.060  2.4611  1.3244  0.7192
   9823SM  H13B13228   6.902   6.363  13.049  0.9201  0.6158  0.3166
   9823SM  H13C13229   6.846   6.459  12.921  1.6147 -0.0338 -0.3413
   9823SM   C1213230   7.170   6.422  13.004  0.1001 -0.1668  0.0666
   9823SM  H12A13231   7.162   6.495  13.084  2.8420 -0.2780  0.5388
   9823SM  H12B13232   7.267   6.430  12.957  0.1364  0.3341  0.2198
   9823SM   C1113233   7.178   6.280  13.069 -0.6603  0.4011 -0.7253
   9823SM  H11A13234   7.078   6.232  13.065  0.1197 -1.4731  0.8798
   9823SM  H11B13235   7.203   6.296  13.176 -2.2022  1.5162 -0.4935
   9823SM     P13236   7.425   6.211  13.028  0.0180 -0.1708 -0.3061
   9823SM   O1313237   7.486   6.086  12.980 -0.3751  0.0842  0.2099
   9823SM   O1413238   7.468   6.333  12.958  0.1066  0.1916  0.1855
   9823SM   O1113239   7.455   6.227  13.176  0.8742  0.7807 -0.4527
   9823SM   O1213240   7.273   6.193  13.005  1.1493 -0.6025  0.0486
   9823SM   C1S13241   7.465   6.352  13.243  0.9244  0.2437 -0.1528
   9823SM   H1S13242   7.390   6.423  13.201  0.7444  0.0563 -0.1456
   9823SM   H1T13243   7.569   6.390  13.230  2.8833 -3.8845  1.5819
   9823SM    NF13244   7.439   6.471  13.469 -0.3469 -0.3015 -0.0788
   9823SM   HNF13245   7.519   6.500  13.521 -0.9881  1.4622 -0.0035
   9823SM   C2S13246   7.438   6.343  13.401 -0.2266 -0.1087 -0.1717
   9823SM   H2S13247   7.336   6.302  13.415 -0.1975 -0.1088  0.0532
   9823SM   C3S13248   7.545   6.246  13.467 -0.0324 -0.5787  0.0689
   9823SM   H3S13249   7.648   6.287  13.461 -0.0534 -0.6331 -0.9371
   9823SM    O313250   7.555   6.126  13.391 -0.1688 -0.0260 -0.5471
   9823SM   HO313251   7.499   6.140  13.314 -2.1152 -0.1520  0.7663
   9823SM   C4S13252   7.517   6.202  13.605  1.0415 -0.0536  0.3111
   9823SM   H4S13253   7.429   6.137  13.602  0.3201  0.9224 -1.8364
   9823SM   C5S13254   7.580   6.235  13.719  0.4484  0.5717  0.2952
   9823SM   H5S13255   7.664   6.305  13.713  0.2791  0.6702 -5.0433
   9823SM   C6S13256   7.540   6.201  13.863 -0.4090  0.4674 -0.6668
   9823SM   H6S13257   7.615   6.135  13.911 -0.2271  0.8138 -0.4786
   9823SM   H6T13258   7.439   6.156  13.878 -1.1187  2.9053  3.0871
   9823SM   C7S13259   7.542   6.336  13.943  0.1359  0.8256 -0.2704
   9823SM   H7S13260   7.483   6.420  13.899  0.3095 -0.2186 -2.6467
   9823SM   H7T13261   7.644   6.379  13.948  0.6565 -0.3771 -0.2954
   9823SM   C8S13262   7.506   6.308  14.094  0.0030  0.1445  0.3080
   9823SM   H8S13263   7.408   6.255  14.101  0.2248 -0.3367 -0.1976
   9823SM   H8T13264   7.497   6.407  14.143  1.2014 -1.0136  3.0942
   9823SM   C9S13265   7.616   6.232  14.167 -0.1270 -0.2160  0.3102
   9823SM   H9S13266   7.702   6.301  14.179 -0.3711 -0.3090  3.5340
   9823SM   H9T13267   7.645   6.140  14.112  0.8479 -0.1235  0.6494
   9823SM  C10S13268   7.569   6.181  14.309 -0.0501 -0.0664  0.1939
   9823SM  H10S13269   7.618   6.085  14.336 -1.1516 -1.0585 -1.2166
   9823SM  H10T13270   7.460   6.160  14.308 -0.1996  0.6463  0.7284
   9823SM  C11S13271   7.593   6.275  14.429  0.2960 -0.3370  0.8380
   9823SM  H11S13272   7.534   6.361  14.392 -1.1591 -2.1539 -1.3276
   9823SM  H11T13273   7.699   6.306  14.432  0.1866  0.0157  1.1153
   9823SM  C12S13274   7.538   6.231  14.564  0.1195  0.1972 -0.3528
   9823SM  H12S13275   7.428   6.236  14.547  0.1831  0.6023 -0.6547
   9823SM  H12T13276   7.568   6.307  14.639  4.2314 -0.0275 -1.5230
   9823SM  C13S13277   7.600   6.097  14.616  0.5875  1.0452 -0.4823
   9823SM  H13S13278   7.710   6.109  14.625  1.0269 -1.5422 -1.3349
   9823SM  H13T13279   7.572   6.025  14.536  1.7657 -3.3461  2.6456
   9823SM  C14S13280   7.542   6.024  14.736 -0.0496 -0.1089 -0.3623
   9823SM  H14S13281   7.547   5.914  14.725  0.3867 -0.0193 -1.1691
   9823SM  H14T13282   7.433   6.048  14.741 -0.0021 -0.1174  1.2528
   9823SM  C15S13283   7.613   6.071  14.866  0.8301 -0.8540  0.1990
   9823SM  H15S13284   7.611   6.182  14.872 -1.2386 -0.7754 -0.9762
   9823SM  H15T13285   7.721   6.056  14.843  0.5397 -1.5605 -0.8042
   9823SM  C16S13286   7.563   6.008  14.992 -0.0897 -0.8134 -0.3037
   9823SM  H16S13287   7.453   6.008  14.981  0.0223  0.2150 -1.5882
   9823SM  H16T13288   7.587   6.075  15.078 -1.3886 -0.2765 -0.3337
   9823SM  C17S13289   7.605   5.873  15.027 -0.4236  0.5605 -0.2286
   9823SM  H17S13290   7.715   5.874  15.043 -0.4835 -0.1369  0.2446
   9823SM  H17T13291   7.580   5.804  14.944  1.7440  0.3400 -0.7579
   9823SM  C18S13292   7.528   5.819  15.149  0.1082 -0.3356  0.3728
   9823SM  H18S13293   7.419   5.814  15.126  0.2396 -1.5120 -0.1103
   9823SM  H18T13294   7.550   5.857  15.251  1.1144 -1.6721  0.6785
   9823SM  H18U13295   7.557   5.711  15.147 -3.0459 -1.3334  1.3030
   9823SM   C1F13296   7.358   6.574  13.437  0.9923  0.0583 -0.1193
   9823SM    OF13297   7.270   6.549  13.353  0.8496 -0.2396  0.2149
   9823SM   C2F13298   7.381   6.710  13.498  0.5976  0.3964  0.2314
   9823SM   H2F13299   7.391   6.783  13.415  0.5084  1.6021  1.2522
   9823SM   H2G13300   7.485   6.718  13.536  1.1105 -2.4630 -0.3323
   9823SM   C3F13301   7.282   6.748  13.610 -0.1299 -0.5498 -0.2655
   9823SM   H3F13302   7.176   6.744  13.577 -0.3797  0.4549  0.3739
   9823SM   H3G13303   7.307   6.852  13.638 -0.7795 -0.8638  1.5815
   9823SM   C4F13304   7.299   6.659  13.732  0.2750  0.0859  0.2569
   9823SM   H4F13305   7.404   6.622  13.730  1.6576  3.5212  1.7178
   9823SM   H4G13306   7.238   6.568  13.710  0.5792  0.0312 -0.3756
   9823SM   C5F13307   7.274   6.727  13.870  0.5520  0.3770 -0.5298
   9823SM   H5F13308   7.311   6.832  13.875  0.9273  0.1728  1.5421
   9823SM   H5G13309   7.339   6.670  13.939  1.5471 -1.0612 -2.5332
   9823SM   C6F13310   7.128   6.726  13.919 -0.8863  0.3878 -0.1946
   9823SM   H6F13311   7.103   6.624  13.954  4.1860 -1.8688 -2.1780
   9823SM   H6G13312   7.059   6.759  13.839 -0.6348  2.5919  0.4227
   9823SM   C7F13313   7.089   6.821  14.038  0.4198  0.0815 -0.0611
   9823SM   H7F13314   7.098   6.927  14.008  0.2129  0.1959  0.2749
   9823SM   H7G13315   7.148   6.797  14.129 -1.1878  0.0144  1.0032
   9823SM   C8F13316   6.940   6.795  14.078 -0.0754  0.0705 -0.6909
   9823SM   H8F13317   6.907   6.689  14.073 -0.9119  0.1184  1.9062
   9823SM   H8G13318   6.870   6.845  14.007 -1.9305 -1.1301  0.2305
   9823SM   C9F13319   6.924   6.847  14.228 -0.0744  0.5516  0.1946
   9823SM   H9F13320   6.957   6.952  14.236 -1.6736  1.1251 -0.3547
   9823SM   H9G13321   6.990   6.777  14.285  2.5559  2.0803 -0.8005
   9823SM  C10F13322   6.783   6.836  14.290  0.0347 -0.2698 -0.3794
   9823SM  H10F13323   6.759   6.728  14.302  0.3058 -0.2276  0.6226
   9823SM  H10G13324   6.712   6.873  14.213  0.6835  1.4792 -0.1853
   9823SM  C11F13325   6.783   6.908  14.426  0.0723 -0.0949  0.1911
   9823SM  H11F13326   6.830   7.008  14.413  0.8825 -0.6264 -1.1762
   9823SM  H11G13327   6.857   6.857  14.492  2.5669  1.1072 -1.5219
   9823SM  C12F13328   6.647   6.927  14.503  0.0789  0.2761 -0.7008
   9823SM  H12F13329   6.581   6.838  14.497 -0.1238  0.5384 -3.6168
   9823SM  H12G13330   6.583   6.998  14.447 -1.1370  0.8946  1.3354
   9823SM  C13F13331   6.674   6.989  14.635 -0.0814 -0.1936 -0.0544
   9823SM  H13F13332   6.578   7.039  14.659  0.6870  1.7907 -0.8945
   9823SM  H13G13333   6.753   7.067  14.630  0.9117 -1.2128 -0.9061
   9823SM  C14F13334   6.700   6.888  14.747  0.3952 -0.2578 -0.0036
   9823SM  H14F13335   6.798   6.839  14.730  1.4305  0.2338  3.6358
   9823SM  H14G13336   6.628   6.803  14.742  2.5164 -2.3032  1.7448
   9823SM  C15F13337   6.713   6.960  14.879  0.1068  1.1398 -0.0457
   9823SM  H15F13338   6.612   7.000  14.899 -0.5813  0.5510 -2.1274
   9823SM  H15G13339   6.786   7.044  14.886  2.3152 -0.6516 -0.3736
   9823SM  C16F13340   6.768   6.859  14.986  0.2352  0.2840 -0.2827
   9823SM  H16F13341   6.870   6.829  14.954  0.9195 -0.9033  2.7054
   9823SM  H16G13342   6.709   6.766  14.972 -2.1532  1.7587 -0.6517
   9823SM  C17F13343   6.777   6.914  15.122 -0.3296  0.4653 -0.0052
   9823SM  H17F13344   6.676   6.952  15.151 -0.7282  1.0904 -2.0734
   9823SM  H17G13345   6.845   7.000  15.110  0.0225  0.3542  1.0394
   9823SM  C18F13346   6.850   6.822  15.227 -0.8547 -0.2750 -0.3451
   9823SM  H18F13347   6.848   6.878  15.322 -0.3842 -0.6406 -0.1116
   9823SM  H18G13348   6.957   6.806  15.201 -0.1704  2.0451  0.7947
   9823SM  C19F13349   6.775   6.695  15.237 -0.2879  0.1940  0.0172
   9823SM  H19F13350   6.759   6.647  15.138  2.7142  0.2276 -0.5709
   9823SM  H19G13351   6.675   6.715  15.281 -0.6613  1.5366 -1.3629
   9823SM  C20F13352   6.841   6.580  15.322 -0.1104  0.9949  0.3754
   9823SM  H20F13353   6.766   6.500  15.336 -0.9623  1.1241 -2.7307
   9823SM  H20G13354   6.890   6.617  15.415  2.0876 -1.1487  0.1522
   9823SM  C21F13355   6.965   6.519  15.253 -0.1078  0.8250  0.0129
   9823SM  H21F13356   7.008   6.598  15.187  2.1830 -1.4689 -1.4456
   9823SM  H21G13357   6.907   6.459  15.180 -0.8722  2.3236 -0.6685
   9823SM  C22F13358   7.081   6.452  15.329  0.4767 -0.2735 -0.2759
   9823SM  H22F13359   7.146   6.394  15.260  1.5425  0.2638  0.2477
   9823SM  H22G13360   7.040   6.381  15.404  0.3557  2.0548  2.0196
   9823SM  C23F13361   7.160   6.565  15.400 -0.3085 -0.1515  0.0747
   9823SM  H23F13362   7.241   6.519  15.461 -0.2081  0.5154  0.4474
   9823SM  H23G13363   7.088   6.625  15.459 -0.4567 -0.3207  0.0699
   9823SM  H23H13364   7.190   6.639  15.323 -0.1057 -0.7914 -0.4799
   9923SM     N13365   6.797   7.276  12.930 -0.0001 -0.3598 -0.2036
   9923SM   C1513366   6.851   7.153  12.860  0.5232  0.1345 -0.3446
   9923SM  H15A13367   6.934   7.174  12.793  1.2325  1.4308  0.8844
   9923SM  H15B13368   6.771   7.094  12.819  0.2277 -0.2934  0.8045
   9923SM  H15C13369   6.894   7.084  12.931 -0.6591  0.1793  0.4434
   9923SM   C1413370   6.722   7.344  12.825 -0.5286  0.3498 -0.0883
   9923SM  H14A13371   6.778   7.325  12.735  1.0230 -1.2518  1.1566
   9923SM  H14B13372   6.709   7.447  12.855  0.8899 -0.1877  2.7350
   9923SM  H14C13373   6.631   7.292  12.799 -0.3356  0.4895 -1.0825
   9923SM   C1313374   6.699   7.232  13.035  0.3848 -0.3442  0.6796
   9923SM  H13A13375   6.676   7.315  13.101 -0.5410  2.7063 -3.0777
   9923SM  H13B13376   6.731   7.139  13.078  2.4878  1.1043  2.4794
   9923SM  H13C13377   6.606   7.210  12.986  1.0817 -1.6689 -0.0972
   9923SM   C1213378   6.905   7.364  12.988  0.7880 -0.6397  1.0113
   9923SM  H12A13379   6.855   7.442  13.044  0.7424  0.5927 -0.6676
   9923SM  H12B13380   6.974   7.411  12.920 -1.0071  0.4456 -0.1353
   9923SM   C1113381   6.998   7.305  13.092 -0.5759  0.0493 -0.2408
   9923SM  H11A13382   7.041   7.203  13.078  2.5725  1.4758 -2.2532
   9923SM  H11B13383   6.940   7.300  13.187  1.4374 -0.5143  1.0223
   9923SM     P13384   7.232   7.407  13.052  0.2182  0.0981  0.1068
   9923SM   O1313385   7.301   7.281  13.075  0.2478 -0.0554  0.1397
   9923SM   O1413386   7.211   7.440  12.911 -0.3215 -0.3358  0.2937
   9923SM   O1113387   7.320   7.515  13.110 -0.3172  0.2149  0.0103
   9923SM   O1213388   7.098   7.403  13.125  0.3052  0.1249  0.2847
   9923SM   C1S13389   7.281   7.596  13.221  0.3561  0.3504 -0.2485
   9923SM   H1S13390   7.184   7.562  13.261 -0.3920  1.9432 -0.6481
   9923SM   H1T13391   7.275   7.702  13.188 -0.3871 -0.1464 -1.8092
   9923SM    NF13392   7.341   7.671  13.452  0.1557  0.2375  0.5267
   9923SM   HNF13393   7.397   7.753  13.457 -0.4289  0.9788 -2.8485
   9923SM   C2S13394   7.375   7.583  13.343 -0.6690  0.0431 -0.5622
   9923SM   H2S13395   7.382   7.476  13.371 -2.5950  0.2362  0.8899
   9923SM   C3S13396   7.520   7.612  13.284  0.1614  0.3266 -0.4135
   9923SM   H3S13397   7.526   7.697  13.213 -0.8698 -0.9198 -2.0555
   9923SM    O313398   7.567   7.513  13.202  0.5124 -0.5626 -0.3166
   9923SM   HO313399   7.482   7.494  13.162 -1.1626  0.4458  2.4603
   9923SM   C4S13400   7.626   7.620  13.388  0.5456 -0.0400  0.3666
   9923SM   H4S13401   7.622   7.538  13.461  0.9358 -0.3183  0.0777
   9923SM   C5S13402   7.708   7.722  13.401  0.7902 -0.4070 -0.5951
   9923SM   H5S13403   7.704   7.801  13.324  1.6825  0.9269  0.6704
   9923SM   C6S13404   7.793   7.745  13.525  0.1114 -0.1033 -0.3873
   9923SM   H6S13405   7.832   7.849  13.524  0.7159 -0.3110 -1.9691
   9923SM   H6T13406   7.888   7.686  13.519  0.9751  1.3113 -1.0061
   9923SM   C7S13407   7.731   7.711  13.668  0.1519 -0.1755  0.7489
   9923SM   H7S13408   7.717   7.601  13.665  2.0134 -0.4128 -1.6491
   9923SM   H7T13409   7.637   7.769  13.666 -0.4095 -0.9108  2.9109
   9923SM   C8S13410   7.810   7.756  13.786 -0.4505  0.3787 -0.3690
   9923SM   H8S13411   7.830   7.865  13.797 -1.6521  0.4409  1.6426
   9923SM   H8T13412   7.914   7.717  13.787 -0.1167  1.2338  1.1032
   9923SM   C9S13413   7.760   7.707  13.925  0.0944  0.6118  0.2716
   9923SM   H9S13414   7.765   7.596  13.937  0.0737  0.6499  0.6302
   9923SM   H9T13415   7.650   7.722  13.934  0.1728  0.6236  1.2705
   9923SM  C10S13416   7.838   7.762  14.046  1.1598  0.3541 -0.2976
   9923SM  H10S13417   7.851   7.870  14.021 -1.9842  0.9829  0.3461
   9923SM  H10T13418   7.940   7.723  14.025  0.5424 -0.3071 -2.2545
   9923SM  C11S13419   7.771   7.750  14.186 -0.3730  0.2740  0.2877
   9923SM  H11S13420   7.728   7.647  14.184  0.7914 -0.2119 -1.4562
   9923SM  H11T13421   7.686   7.820  14.200 -1.5086 -0.3863 -2.5951
   9923SM  C12S13422   7.877   7.761  14.299  0.2493  0.1377  0.8459
   9923SM  H12S13423   7.912   7.866  14.288  0.1818  0.0790  0.0276
   9923SM  H12T13424   7.970   7.705  14.272 -0.5992 -1.4642  1.1515
   9923SM  C13S13425   7.822   7.749  14.443 -0.3106  0.4344  0.2964
   9923SM  H13S13426   7.782   7.645  14.441  0.0680  0.2875 -1.2336
   9923SM  H13T13427   7.742   7.823  14.462 -0.9727 -0.3888  0.7557
   9923SM  C14S13428   7.933   7.772  14.548  0.4803  0.6130  0.2081
   9923SM  H14S13429   7.995   7.861  14.525  0.6481  0.8086  1.3688
   9923SM  H14T13430   8.018   7.699  14.549  0.4653  0.5975  0.8560
   9923SM  C15S13431   7.871   7.765  14.688  0.1448 -0.1097 -0.3442
   9923SM  H15S13432   7.822   7.665  14.694 -1.0010  0.3821 -1.2132
   9923SM  H15T13433   7.791   7.835  14.719  0.6800 -0.1410  1.2154
   9923SM  C16S13434   7.980   7.769  14.798 -0.3968 -0.2391  0.2088
   9923SM  H16S13435   8.038   7.860  14.772 -0.0082 -0.8019 -0.9484
   9923SM  H16T13436   8.035   7.678  14.766 -0.4319  0.4384 -1.9290
   9923SM  C17S13437   7.934   7.753  14.942  0.4478  0.0988 -0.5145
   9923SM  H17S13438   7.827   7.725  14.939 -0.7531  3.9866  0.6380
   9923SM  H17T13439   7.934   7.853  14.990 -0.8192 -0.4589  0.7090
   9923SM  C18S13440   8.033   7.664  15.029  0.9703 -0.0114  0.0412
   9923SM  H18S13441   8.134   7.712  15.026  1.6642 -1.4672 -0.6587
   9923SM  H18T13442   8.032   7.562  14.986 -1.6252 -0.8213  1.8160
   9923SM  H18U13443   7.998   7.649  15.133 -0.4028  0.8050 -0.2701
   9923SM   C1F13444   7.235   7.651  13.524  0.2866 -0.4128 -0.5808
   9923SM    OF13445   7.185   7.540  13.529 -0.3776 -0.0948 -0.3756
   9923SM   C2F13446   7.185   7.773  13.604 -0.2452 -0.4143 -0.1947
   9923SM   H2F13447   7.084   7.806  13.573  0.5883  1.0616 -1.4853
   9923SM   H2G13448   7.255   7.858  13.589  0.1053 -1.1287 -3.4932
   9923SM   C3F13449   7.185   7.736  13.756 -0.1174 -0.1424  0.6519
   9923SM   H3F13450   7.270   7.673  13.790  0.2350  0.1368  0.2988
   9923SM   H3G13451   7.100   7.665  13.763 -0.8699  0.4941 -1.2516
   9923SM   C4F13452   7.157   7.845  13.854  0.2242  0.5049  0.6228
   9923SM   H4F13453   7.159   7.797  13.954  0.3289  0.1832  0.4673
   9923SM   H4G13454   7.053   7.881  13.836 -0.3670 -1.4065  0.0029
   9923SM   C5F13455   7.267   7.954  13.872  0.1644 -0.7219  0.5151
   9923SM   H5F13456   7.240   8.029  13.949  1.5062  2.1106 -1.6037
   9923SM   H5G13457   7.272   8.021  13.783  0.5688  0.2275  1.2336
   9923SM   C6F13458   7.403   7.899  13.901 -0.8527 -0.4768  0.4626
   9923SM   H6F13459   7.458   7.859  13.813  0.1382  1.5534  0.1061
   9923SM   H6G13460   7.402   7.821  13.981  1.2808 -1.9549 -0.8325
   9923SM   C7F13461   7.499   8.004  13.960  0.0877  0.0714  0.1495
   9923SM   H7F13462   7.486   8.095  13.898  2.3565  0.2874 -0.0888
   9923SM   H7G13463   7.604   7.972  13.945 -0.0728 -1.9289  2.5382
   9923SM   C8F13464   7.469   8.016  14.107  0.4112  0.3871 -0.1383
   9923SM   H8F13465   7.484   7.920  14.161 -2.7410 -0.4236 -0.5155
   9923SM   H8G13466   7.367   8.045  14.138  1.3920  2.8681  1.0188
   9923SM   C9F13467   7.559   8.125  14.174  0.5045 -0.2548  0.4437
   9923SM   H9F13468   7.546   8.206  14.099 -3.6809 -1.0576  0.0241
   9923SM   H9G13469   7.664   8.088  14.169  1.2858  1.9452 -2.3437
   9923SM  C10F13470   7.516   8.166  14.312 -0.2255  0.7042  0.3927
   9923SM  H10F13471   7.411   8.199  14.296 -0.5631 -0.3840  0.3201
   9923SM  H10G13472   7.579   8.249  14.351 -0.8814  1.3420  0.1135
   9923SM  C11F13473   7.526   8.047  14.412 -0.6028 -0.2140  0.0188
   9923SM  H11F13474   7.631   8.013  14.425  0.0921  1.9158  0.4265
   9923SM  H11G13475   7.466   7.956  14.389  1.4938 -1.2262 -1.8653
   9923SM  C12F13476   7.478   8.085  14.554 -0.1869  0.0535 -0.5140
   9923SM  H12F13477   7.455   7.989  14.606 -0.0770 -0.5716 -1.5885
   9923SM  H12G13478   7.390   8.152  14.550 -0.4141 -0.0551  1.7487
   9923SM  C13F13479   7.597   8.153  14.626  0.0727  0.3740 -0.1551
   9923SM  H13F13480   7.606   8.255  14.582 -0.7564  0.5878  0.1695
   9923SM  H13G13481   7.694   8.102  14.606 -0.7810 -0.6037 -2.1192
   9923SM  C14F13482   7.571   8.180  14.775  0.6430  0.0880 -0.1422
   9923SM  H14F13483   7.466   8.208  14.794  0.8903 -0.4642  2.3816
   9923SM  H14G13484   7.629   8.262  14.822 -1.8182  1.0552  1.3883
   9923SM  C15F13485   7.597   8.051  14.860  0.2445  0.7231  0.0908
   9923SM  H15F13486   7.706   8.028  14.863  0.4427  1.6917  1.0756
   9923SM  H15G13487   7.555   7.960  14.813  0.7279  0.2422  0.5715
   9923SM  C16F13488   7.541   8.057  15.009  0.4140  0.7993  0.4758
   9923SM  H16F13489   7.576   7.965  15.061  0.3018 -0.2139 -1.1695
   9923SM  H16G13490   7.431   8.043  15.011  0.5552 -0.3503  0.8634
   9923SM  C17F13491   7.578   8.193  15.079 -0.0347  0.3205 -0.3457
   9923SM  H17F13492   7.507   8.273  15.048  0.1329  0.4505 -0.3954
   9923SM  H17G13493   7.678   8.227  15.044  1.3905 -1.8194  1.3462
   9923SM  C18F13494   7.580   8.175  15.239  0.0602 -0.3634  0.1469
   9923SM  H18F13495   7.580   8.275  15.287  2.5200 -0.4465  0.4298
   9923SM  H18G13496   7.682   8.140  15.265  0.4865  1.3042  0.7970
   9923SM  C19F13497   7.471   8.097  15.305  0.1231  0.2229  0.0444
   9923SM  H19F13498   7.451   7.997  15.262 -0.6702  0.3262  0.1653
   9923SM  H19G13499   7.371   8.143  15.294  0.4556  1.0459  0.3260
   9923SM  C20F13500   7.500   8.088  15.461  0.2562  0.3587  0.2331
   9923SM  H20F13501   7.521   8.192  15.493  0.9203  0.2991  0.0134
   9923SM  H20G13502   7.591   8.025  15.477 -0.1914 -0.2217  0.5284
   9923SM  C21F13503   7.384   8.013  15.548 -0.6700  0.1055 -0.4243
   9923SM  H21F13504   7.384   7.903  15.536  0.8162  0.0517 -0.1324
   9923SM  H21G13505   7.281   8.044  15.519 -0.3536  1.5375 -0.1113
   9923SM  C22F13506   7.413   8.033  15.698  0.2324  0.5369  0.3881
   9923SM  H22F13507   7.386   8.133  15.736  4.3450  2.0294 -0.0699
   9923SM  H22G13508   7.523   8.020  15.707  0.0997 -0.3887  0.8362
   9923SM  C23F13509   7.353   7.921  15.799  0.2012  0.6426  0.4730
   9923SM  H23F13510   7.246   7.907  15.773  0.9595  0.3632 -2.9587
   9923SM  H23G13511   7.369   7.964  15.901  0.5412  1.7524 -0.0258
   9923SM  H23H13512   7.413   7.828  15.794 -0.9869 -0.1685  1.0707
  10023SM     N13513   7.086   0.205  12.786  0.0029 -0.0288 -0.3359
  10023SM   C1513514   7.157   0.265  12.662  0.1321 -0.4219 -0.3172
  10023SM  H15A13515   7.080   0.310  12.601 -0.3669  0.4008  0.8785
  10023SM  H15B13516   7.210   0.198  12.597  1.6424 -0.2061  0.6393
  10023SM  H15C13517   7.221   0.344  12.699 -1.0186  0.9559 -1.1700
  10023SM   C1413518   7.003   0.307  12.852 -0.0159 -0.0914 -0.7380
  10023SM  H14A13519   7.064   0.385  12.895 -0.1214  0.8079 -2.1464
  10023SM  H14B13520   6.950   0.254  12.930 -1.7133  0.2030 -1.6485
  10023SM  H14C13521   6.931   0.351  12.784 -1.9252  0.3452  1.4187
  10023SM   C1313522   7.010   0.084  12.737  0.0906  0.1192 -0.4841
  10023SM  H13A13523   7.076   0.001  12.716  1.4408  1.0169  0.0330
  10023SM  H13B13524   6.964   0.122  12.646  1.5214  0.6368 -1.0300
  10023SM  H13C13525   6.931   0.059  12.805 -1.2761  0.1943 -1.9921
  10023SM   C1213526   7.187   0.155  12.889 -0.4993  0.1262 -0.5666
  10023SM  H12A13527   7.237   0.073  12.840 -0.9002  0.4225 -1.4979
  10023SM  H12B13528   7.123   0.122  12.969 -1.2936 -0.9342 -1.6119
  10023SM   C1113529   7.294   0.250  12.954 -0.1756 -0.5881  0.8062
  10023SM  H11A13530   7.344   0.298  12.868  0.5857  0.5866  1.8630
  10023SM  H11B13531   7.369   0.196  13.017  0.3829 -0.3326  0.3633
  10023SM     P13532   7.173   0.344  13.167  0.3267 -0.2174 -0.0423
  10023SM   O1313533   7.108   0.483  13.188 -0.6080  0.3636 -0.2774
  10023SM   O1413534   7.083   0.225  13.175 -0.3242  0.3071 -0.5409
  10023SM   O1113535   7.300   0.330  13.266  0.0990 -0.3419 -0.3933
  10023SM   O1213536   7.234   0.356  13.024  0.0698  0.1427  0.6164
  10023SM   C1S13537   7.412   0.425  13.228  1.2635  0.3301 -0.4177
  10023SM   H1S13538   7.378   0.504  13.158 -0.2828  1.0759  1.1011
  10023SM   H1T13539   7.490   0.364  13.176 -0.0201 -2.6390  0.8943
  10023SM    NF13540   7.557   0.622  13.303  0.4314 -0.0707 -0.0041
  10023SM   HNF13541   7.657   0.620  13.309  0.3708  0.8945  2.6406
  10023SM   C2S13542   7.475   0.507  13.349  0.8367 -0.8112  0.6717
  10023SM   H2S13543   7.381   0.541  13.398  0.3549 -0.5085 -0.4207
  10023SM   C3S13544   7.538   0.407  13.430 -0.5623  0.1028 -0.8865
  10023SM   H3S13545   7.622   0.359  13.376 -0.6859 -2.0066  0.6870
  10023SM    O313546   7.446   0.311  13.477  0.0171 -0.2111 -0.7589
  10023SM   HO313547   7.373   0.324  13.415 -0.8322 -0.7597  0.0999
  10023SM   C4S13548   7.603   0.465  13.560  0.1176 -0.3278 -0.3862
  10023SM   H4S13549   7.527   0.487  13.637 -0.9981  1.0284 -1.8046
  10023SM   C5S13550   7.730   0.477  13.587 -0.5444  0.1675 -0.0829
  10023SM   H5S13551   7.807   0.445  13.515  0.5926 -0.5701  1.4241
  10023SM   C6S13552   7.781   0.535  13.719  0.3360  0.2328 -0.1345
  10023SM   H6S13553   7.889   0.557  13.721  0.4000 -0.1032  1.2042
  10023SM   H6T13554   7.763   0.453  13.792  0.4862  0.6937  0.4259
  10023SM   C7S13555   7.706   0.666  13.752 -0.7480 -0.4799 -0.6504
  10023SM   H7S13556   7.602   0.655  13.791 -0.6520 -0.0061 -0.2478
  10023SM   H7T13557   7.686   0.734  13.667 -0.4573  2.2363  1.3126
  10023SM   C8S13558   7.779   0.751  13.861 -0.0520 -0.1629 -0.0367
  10023SM   H8S13559   7.704   0.823  13.902  0.0969  0.4625 -0.8511
  10023SM   H8T13560   7.866   0.807  13.822 -0.5859  2.4874  2.1913
  10023SM   C9S13561   7.844   0.659  13.970  0.4237  0.2804  0.8587
  10023SM   H9S13562   7.938   0.609  13.938 -0.5802 -0.4687 -1.0723
  10023SM   H9T13563   7.773   0.574  13.981  0.6901 -0.4821 -2.2791
  10023SM  C10S13564   7.869   0.742  14.097  0.2392 -0.5229  0.2869
  10023SM  H10S13565   7.772   0.788  14.127 -0.7467  0.5674 -3.8260
  10023SM  H10T13566   7.940   0.824  14.074 -1.3478  0.8201  0.0190
  10023SM  C11S13567   7.923   0.646  14.200  0.1751 -0.1604  0.6327
  10023SM  H11S13568   8.019   0.614  14.155 -0.3547  0.5512 -1.0807
  10023SM  H11T13569   7.861   0.554  14.214  1.0140 -0.8716 -0.1965
  10023SM  C12S13570   7.939   0.718  14.334  0.1727 -0.2306  0.3193
  10023SM  H12S13571   7.839   0.757  14.363 -1.3265 -2.7667 -1.0712
  10023SM  H12T13572   8.006   0.802  14.305 -0.5698 -0.0631 -0.9582
  10023SM  C13S13573   7.999   0.631  14.445  0.6021 -0.3163  0.4498
  10023SM  H13S13574   7.938   0.540  14.459  0.8934 -0.7581 -1.0542
  10023SM  H13T13575   8.012   0.682  14.544  1.3767 -0.2492  0.3221
  10023SM  C14S13576   8.145   0.584  14.415  0.1317  0.3262 -0.3641
  10023SM  H14S13577   8.215   0.664  14.444  0.1723 -0.9356  3.7997
  10023SM  H14T13578   8.155   0.571  14.305 -0.9034 -0.0487 -0.4335
  10023SM  C15S13579   8.192   0.453  14.481  0.0556  0.7277  0.7911
  10023SM  H15S13580   8.287   0.433  14.426 -0.0417  2.6630 -0.1758
  10023SM  H15T13581   8.116   0.376  14.457  0.2373  0.5078  0.9183
  10023SM  C16S13582   8.215   0.451  14.633 -0.4965  0.4933  0.5507
  10023SM  H16S13583   8.254   0.356  14.676  1.0929  0.2370 -1.3220
  10023SM  H16T13584   8.117   0.473  14.681 -0.1091  1.8063  0.7693
  10023SM  C17S13585   8.310   0.569  14.671 -0.7742 -0.4057 -0.2643
  10023SM  H17S13586   8.282   0.673  14.644 -0.0383 -0.5741 -1.7574
  10023SM  H17T13587   8.403   0.548  14.615 -0.4030 -2.1201  0.8962
  10023SM  C18S13588   8.346   0.575  14.819 -0.1801 -0.6423 -0.4746
  10023SM  H18S13589   8.421   0.654  14.843  0.3174 -1.1943 -0.1831
  10023SM  H18T13590   8.372   0.477  14.865 -0.3736 -1.5033 -2.1349
  10023SM  H18U13591   8.253   0.611  14.869  0.0673 -0.3392 -0.2280
  10023SM   C1F13592   7.495   0.736  13.262  0.0165  0.6601 -0.5048
  10023SM    OF13593   7.375   0.735  13.226 -0.6968  0.4072  0.1009
  10023SM   C2F13594   7.588   0.848  13.232  0.8827  0.0961  0.1741
  10023SM   H2F13595   7.609   0.832  13.124 -0.0017  1.2781 -0.1956
  10023SM   H2G13596   7.686   0.846  13.286  1.9211  2.1726 -1.4599
  10023SM   C3F13597   7.511   0.982  13.263 -0.1283  0.5300 -0.0930
  10023SM   H3F13598   7.418   0.996  13.205  0.7815  4.1796 -0.9624
  10023SM   H3G13599   7.588   1.059  13.240  1.0349 -0.1019  1.5010
  10023SM   C4F13600   7.489   1.011  13.415  0.2992  0.1577  0.6752
  10023SM   H4F13601   7.423   0.932  13.457  0.6470 -1.1928 -1.2039
  10023SM   H4G13602   7.429   1.105  13.410 -1.8823 -1.2005 -0.6181
  10023SM   C5F13603   7.616   1.027  13.495 -0.1930  0.0904  0.3512
  10023SM   H5F13604   7.685   1.097  13.444  0.2018 -0.5516 -0.0071
  10023SM   H5G13605   7.670   0.930  13.495 -1.2917 -0.5460  1.0861
  10023SM   C6F13606   7.609   1.072  13.644 -0.6507  0.0304 -0.7426
  10023SM   H6F13607   7.548   1.005  13.707 -0.6438  0.6114 -0.1021
  10023SM   H6G13608   7.565   1.174  13.648  1.2496  0.8851  2.7501
  10023SM   C7F13609   7.749   1.073  13.729  0.3779 -0.1853  0.1406
  10023SM   H7F13610   7.811   1.143  13.668 -3.2058  0.8734 -2.5820
  10023SM   H7G13611   7.802   0.976  13.720 -0.5029 -0.7368  0.8403
  10023SM   C8F13612   7.739   1.109  13.874 -0.0288  0.2191 -0.4695
  10023SM   H8F13613   7.667   1.040  13.922  0.1753 -0.4857 -1.1710
  10023SM   H8G13614   7.699   1.213  13.876 -2.0757 -0.5156 -1.2462
  10023SM   C9F13615   7.878   1.113  13.944  0.5631 -0.1820  0.0976
  10023SM   H9F13616   7.929   1.191  13.885 -3.2346  0.7725 -2.2964
  10023SM   H9G13617   7.925   1.014  13.928 -2.3802 -1.7418  0.3543
  10023SM  C10F13618   7.879   1.164  14.094 -0.8896  0.4923 -0.3557
  10023SM  H10F13619   7.819   1.078  14.132 -1.2901 -0.0415 -2.1420
  10023SM  H10G13620   7.837   1.265  14.111  1.3875  1.9645 -2.7293
  10023SM  C11F13621   8.027   1.144  14.142  0.3448  0.3861 -0.1722
  10023SM  H11F13622   8.095   1.210  14.083  0.3367  2.3255  1.8558
  10023SM  H11G13623   8.058   1.040  14.120  2.2571  0.6362  1.1441
  10023SM  C12F13624   8.045   1.158  14.290 -0.4036 -0.1427 -0.3775
  10023SM  H12F13625   7.977   1.082  14.333 -2.2407  0.7725 -1.5305
  10023SM  H12G13626   7.999   1.257  14.312 -2.1403 -0.9080 -0.4017
  10023SM  C13F13627   8.197   1.134  14.332 -0.6617  0.1524 -0.3430
  10023SM  H13F13628   8.253   1.225  14.304  3.5300 -1.2943  2.3856
  10023SM  H13G13629   8.241   1.044  14.284 -1.4498 -0.2685 -0.2956
  10023SM  C14F13630   8.212   1.124  14.486 -0.7357  0.1844  0.9110
  10023SM  H14F13631   8.147   1.207  14.522 -1.1189  1.2347 -1.9400
  10023SM  H14G13632   8.318   1.150  14.506  0.9649 -4.4990 -0.7617
  10023SM  C15F13633   8.186   0.983  14.547  0.4505 -0.2339 -0.1395
  10023SM  H15F13634   8.202   0.911  14.464 -3.9165 -2.8085  0.9524
  10023SM  H15G13635   8.081   0.977  14.582  0.9025 -1.8568  1.0502
  10023SM  C16F13636   8.286   0.958  14.658 -0.7744  0.7116  0.4074
  10023SM  H16F13637   8.389   0.952  14.616 -1.3223 -0.3827 -0.8455
  10023SM  H16G13638   8.261   0.867  14.718 -0.3735  1.0161  1.0504
  10023SM  C17F13639   8.294   1.066  14.771  0.5474  0.4193  0.3912
  10023SM  H17F13640   8.195   1.111  14.792 -0.4844 -2.0454  1.1828
  10023SM  H17G13641   8.356   1.147  14.726 -1.1714  0.5655 -1.8978
  10023SM  C18F13642   8.372   1.019  14.893  1.2759 -0.0560 -0.3710
  10023SM  H18F13643   8.400   1.107  14.954 -0.3987 -0.2424  0.7188
  10023SM  H18G13644   8.459   0.951  14.880  0.9368 -0.5188 -0.2523
  10023SM  C19F13645   8.274   0.946  14.996 -0.5636 -0.2155  0.3016
  10023SM  H19F13646   8.252   0.854  14.937  0.2459 -1.0964  1.3437
  10023SM  H19G13647   8.184   1.010  15.011  2.2795  4.0401  1.0235
  10023SM  C20F13648   8.334   0.914  15.136 -0.7223 -1.2297  0.4163
  10023SM  H20F13649   8.442   0.896  15.118 -0.6732  0.6248 -1.5534
  10023SM  H20G13650   8.285   0.825  15.181  0.2096 -1.8947  0.1300
  10023SM  C21F13651   8.317   1.017  15.248 -0.2264 -0.7134 -0.6101
  10023SM  H21F13652   8.230   0.996  15.314  0.3863  1.7356  1.1365
  10023SM  H21G13653   8.297   1.115  15.201 -0.1017 -0.2182  0.3437
  10023SM  C22F13654   8.451   1.024  15.323 -0.3242 -0.1967 -0.0913
  10023SM  H22F13655   8.448   1.116  15.385 -1.8699 -0.7048  0.6314
  10023SM  H22G13656   8.532   1.015  15.247  0.0780 -2.9229  0.5585
  10023SM  C23F13657   8.473   0.899  15.405 -0.5449  0.0786  0.7175
  10023SM  H23F13658   8.385   0.886  15.472 -1.1885  2.9186  0.5488
  10023SM  H23G13659   8.567   0.920  15.460  0.6325 -3.1041  0.0969
  10023SM  H23H13660   8.481   0.817  15.331  1.0129  1.5146 -0.7761
  101CHL1    C313661   2.738   4.409  16.259  0.4400  0.0601  0.6557
  101CHL1    H313662   2.834   4.379  16.211  0.9069  0.6008  1.2399
  101CHL1    O313663   2.739   4.386  16.397 -0.2818  0.2427  0.3973
  101CHL1   H3'13664   2.653   4.421  16.422 -0.6919  0.0355 -0.6828
  101CHL1    C413665   2.731   4.558  16.247  0.0965  0.6781  0.1420
  101CHL1   H4A13666   2.639   4.591  16.300 -0.2475  1.3871 -0.8866
  101CHL1   H4B13667   2.812   4.613  16.300 -0.8977  1.9991  0.3524
  101CHL1    C513668   2.726   4.605  16.101 -0.5856  0.6976  0.3106
  101CHL1    C613669   2.807   4.698  16.048  0.1630 -0.8231 -0.2413
  101CHL1    H613670   2.876   4.756  16.111 -0.4836  2.4525 -2.3178
  101CHL1    C713671   2.790   4.756  15.919  0.5813  0.2840  0.1085
  101CHL1   H7A13672   2.784   4.866  15.936 -2.4372  0.2245 -0.0935
  101CHL1   H7B13673   2.877   4.723  15.859  1.5826 -1.7203  2.4897
  101CHL1    C813674   2.670   4.709  15.836  0.3417  0.2608 -0.2625
  101CHL1    H813675   2.581   4.756  15.883 -0.7760 -2.6035  0.7292
  101CHL1   C1413676   2.673   4.739  15.684 -0.6414  0.0367 -0.5311
  101CHL1   H1413677   2.754   4.673  15.645 -0.5279 -0.3813  0.3882
  101CHL1   C1513678   2.720   4.880  15.643  0.0389 -0.1581  0.1985
  101CHL1  H15A13679   2.671   4.955  15.709 -2.9446 -0.0603 -1.9234
  101CHL1  H15B13680   2.829   4.897  15.652  0.1730 -0.8629 -0.0314
  101CHL1   C1613681   2.677   4.878  15.492  0.4955 -0.7422 -0.7462
  101CHL1  H16A13682   2.610   4.965  15.475 -0.9176 -0.8578  3.2743
  101CHL1  H16B13683   2.768   4.880  15.427  2.4167  0.5895  1.7947
  101CHL1   C1713684   2.607   4.743  15.457  0.1551  0.2152  0.8066
  101CHL1   H1713685   2.681   4.666  15.428  0.9487  0.6071  1.7285
  101CHL1   C1313686   2.553   4.696  15.597 -0.0321 -0.1633  0.3459
  101CHL1   C1813687   2.425   4.765  15.649 -0.9969  0.1978  0.0025
  101CHL1  H18A13688   2.434   4.875  15.667 -1.8501 -0.1429  2.9981
  101CHL1  H18B13689   2.346   4.760  15.571 -2.7600 -0.8360  1.7511
  101CHL1  H18C13690   2.382   4.722  15.742  0.4271  0.2210  0.7027
  101CHL1   C1213691   2.546   4.542  15.624  0.5975 -1.0528  0.2870
  101CHL1  H12A13692   2.457   4.507  15.567 -1.3693  2.6849  0.7136
  101CHL1  H12B13693   2.634   4.490  15.583  2.0808  1.6490 -0.2123
  101CHL1   C1113694   2.531   4.500  15.771  0.2982  0.0868  0.6237
  101CHL1  H11A13695   2.430   4.535  15.802  0.1636  0.8508 -0.6173
  101CHL1  H11B13696   2.521   4.389  15.781  0.5071  0.1707  2.1232
  101CHL1    C913697   2.644   4.557  15.865  0.1106 -0.2488 -0.2424
  101CHL1    H913698   2.735   4.504  15.828  1.0915  0.6259  0.8581
  101CHL1   C1013699   2.620   4.533  16.014 -0.1003  0.0602  0.1587
  101CHL1   C1913700   2.483   4.583  16.066  0.8730  0.0251  0.6199
  101CHL1  H19A13701   2.458   4.547  16.167  1.5328 -0.0508  0.7620
  101CHL1  H19B13702   2.469   4.691  16.047  0.6228  0.0890  1.1580
  101CHL1  H19C13703   2.404   4.527  16.011 -0.4366  2.1035  0.2807
  101CHL1    C113704   2.624   4.373  16.044 -0.2149 -0.1390 -0.4715
  101CHL1   H1A13705   2.528   4.333  16.005 -0.3241  2.2409 -2.9297
  101CHL1   H1B13706   2.716   4.328  16.000  0.3202 -0.4359  0.8719
  101CHL1    C213707   2.625   4.335  16.197  0.5061 -0.1011 -0.4063
  101CHL1   H2A13708   2.632   4.225  16.200  1.8505 -0.0798 -1.9646
  101CHL1   H2B13709   2.537   4.375  16.253  1.3915  2.7075 -0.8737
  101CHL1   C2013710   2.514   4.741  15.336  0.0064 -0.7078 -0.3665
  101CHL1   H2013711   2.434   4.817  15.350  0.9454  0.3456 -0.6361
  101CHL1   C2113712   2.442   4.602  15.327 -0.1389 -0.2283  0.0646
  101CHL1  H21A13713   2.506   4.516  15.357 -0.5683  0.2803  2.7390
  101CHL1  H21B13714   2.416   4.586  15.220  4.7223 -3.0914 -1.0481
  101CHL1  H21C13715   2.348   4.580  15.382 -0.1762 -0.1044  0.0519
  101CHL1   C2213716   2.590   4.785  15.205  0.2081  0.4811 -0.2181
  101CHL1  H22A13717   2.646   4.879  15.220 -0.2219  1.2537 -2.8477
  101CHL1  H22B13718   2.659   4.701  15.182  0.5951 -0.1973  3.0094
  101CHL1   C2313719   2.501   4.810  15.086 -0.0906  0.1802  0.0378
  101CHL1  H23A13720   2.466   4.714  15.041  2.5953 -0.0911 -1.7733
  101CHL1  H23B13721   2.421   4.880  15.115 -0.9649 -1.2166  1.1133
  101CHL1   C2413722   2.574   4.875  14.969  0.0273  0.8911  0.7280
  101CHL1  H24A13723   2.616   4.970  15.007  0.6405  1.3219 -0.9438
  101CHL1  H24B13724   2.664   4.813  14.951  0.7454  1.1541  3.1030
  101CHL1   C2513725   2.484   4.898  14.850 -0.0826  0.1775  0.4413
  101CHL1   H2513726   2.383   4.937  14.876 -0.0730  0.8112 -0.4368
  101CHL1   C2613727   2.550   4.993  14.744 -0.4829  0.2808  0.4646
  101CHL1  H26A13728   2.551   5.098  14.782 -1.0882  0.0048  1.2897
  101CHL1  H26B13729   2.655   4.971  14.715 -0.6903  1.3817 -1.2291
  101CHL1  H26C13730   2.494   5.002  14.649  2.2665  3.1053 -1.0787
  101CHL1   C2713731   2.454   4.766  14.780 -0.5698 -0.1247  0.2452
  101CHL1  H27A13732   2.397   4.699  14.848  4.3082 -1.5020  3.4593
  101CHL1  H27B13733   2.392   4.781  14.689  0.4174  1.7501 -0.1668
  101CHL1  H27C13734   2.544   4.711  14.746 -1.2075 -2.4860  2.1014
  102CHL1    C313735   2.352   4.114  16.366 -0.1718  0.1691 -0.1422
  102CHL1    H313736   2.437   4.185  16.355  1.6629 -2.0723 -1.4489
  102CHL1    O313737   2.325   4.108  16.505  0.2034 -0.0515 -0.0481
  102CHL1   H3'13738   2.407   4.087  16.551  0.3666 -1.3748 -0.8825
  102CHL1    C413739   2.228   4.161  16.292 -0.0184 -0.1668 -0.0952
  102CHL1   H4A13740   2.144   4.095  16.321  0.4412 -0.2314  1.1336
  102CHL1   H4B13741   2.193   4.259  16.330  0.1066 -0.2718  0.2913
  102CHL1    C513742   2.242   4.162  16.145 -0.6284  0.0623  0.5544
  102CHL1    C613743   2.209   4.272  16.078 -0.0552  0.0352  0.0803
  102CHL1    H613744   2.164   4.356  16.134 -0.8515 -0.2409 -0.1249
  102CHL1    C713745   2.217   4.281  15.928 -0.0624 -0.2065  0.4789
  102CHL1   H7A13746   2.122   4.321  15.887 -1.2149 -1.2415  2.0130
  102CHL1   H7B13747   2.295   4.356  15.904  1.0187 -0.7099  2.2101
  102CHL1    C813748   2.228   4.146  15.858  0.6347 -0.5627  0.4557
  102CHL1    H813749   2.124   4.108  15.853  0.8055 -0.9147 -0.6212
  102CHL1   C1413750   2.278   4.170  15.717  0.0036  0.4733  0.2004
  102CHL1   H1413751   2.380   4.213  15.720 -0.3024  1.1736  3.1313
  102CHL1   C1513752   2.190   4.264  15.633 -1.4536 -0.4764 -0.4609
  102CHL1  H15A13753   2.082   4.250  15.652 -1.9225  1.8092 -1.0971
  102CHL1  H15B13754   2.213   4.371  15.652 -1.0715 -0.5870 -0.2838
  102CHL1   C1613755   2.219   4.225  15.489 -0.4852 -0.5824 -0.4016
  102CHL1  H16A13756   2.122   4.211  15.437 -2.6725  0.8195  2.9229
  102CHL1  H16B13757   2.270   4.309  15.436 -3.4248  1.3347 -0.4553
  102CHL1   C1713758   2.319   4.100  15.501  0.0435 -0.3812  0.5331
  102CHL1   H1713759   2.420   4.145  15.501  0.5836 -1.5662  0.4537
  102CHL1   C1313760   2.295   4.038  15.631  0.3231 -0.0992 -0.3471
  102CHL1   C1813761   2.160   3.963  15.619  0.1803  0.1106  0.3093
  102CHL1  H18A13762   2.120   3.944  15.721  1.1778 -0.0933  0.6696
  102CHL1  H18B13763   2.084   4.030  15.574  0.5245  0.4289  0.1949
  102CHL1  H18C13764   2.161   3.867  15.563  0.0264  0.8342 -0.9707
  102CHL1   C1213765   2.406   3.955  15.700 -0.0066  0.3612 -0.5810
  102CHL1  H12A13766   2.417   3.860  15.642 -0.0482 -0.6618  1.0327
  102CHL1  H12B13767   2.503   4.005  15.720  0.8441 -1.7566  1.0140
  102CHL1   C1113768   2.354   3.920  15.848  0.1757 -0.0557  0.3770
  102CHL1  H11A13769   2.277   3.841  15.846 -0.8957  0.9444  1.1634
  102CHL1  H11B13770   2.437   3.867  15.900  0.8952  0.1377 -0.5253
  102CHL1    C913771   2.323   4.051  15.929 -0.0918 -0.1873 -0.2728
  102CHL1    H913772   2.415   4.113  15.920  0.4070 -0.3163  2.8586
  102CHL1   C1013773   2.286   4.032  16.083 -0.0459 -0.3361 -0.1321
  102CHL1   C1913774   2.169   3.940  16.099 -0.1281 -0.3237 -0.0256
  102CHL1  H19A13775   2.162   3.887  16.197 -0.2382  2.0991  1.3427
  102CHL1  H19B13776   2.068   3.983  16.080 -0.9564 -2.5472 -1.0560
  102CHL1  H19C13777   2.185   3.854  16.031  0.3026 -0.7689  0.6283
  102CHL1    C113778   2.414   3.976  16.166 -0.2997 -0.3329  0.4721
  102CHL1   H1A13779   2.421   3.869  16.137 -3.0026 -0.2810 -0.5940
  102CHL1   H1B13780   2.502   4.030  16.125 -0.3752  0.3919  1.2406
  102CHL1    C213781   2.405   3.976  16.317 -0.4329 -0.6662  0.1308
  102CHL1   H2A13782   2.506   3.954  16.356  0.5709  3.2690  0.1911
  102CHL1   H2B13783   2.331   3.905  16.359  0.1681 -0.7809  1.0294
  102CHL1   C2013784   2.301   4.010  15.370  1.0590  0.2529 -0.1415
  102CHL1   H2013785   2.198   3.969  15.370  1.5131 -1.0213 -2.0211
  102CHL1   C2113786   2.415   3.900  15.361  0.3075 -0.2927  0.2613
  102CHL1  H21A13787   2.512   3.953  15.354  0.7511 -1.1496 -0.2098
  102CHL1  H21B13788   2.418   3.854  15.260 -0.4594 -1.9350  0.9563
  102CHL1  H21C13789   2.404   3.825  15.442 -1.0918 -2.1950 -1.5750
  102CHL1   C2213790   2.294   4.085  15.232 -0.7076 -0.5003  0.3245
  102CHL1  H22A13791   2.291   4.004  15.156  0.2303 -0.2069 -0.0422
  102CHL1  H22B13792   2.200   4.144  15.230 -0.7557 -0.5879 -0.1256
  102CHL1   C2313793   2.409   4.183  15.203  0.0891 -0.7395  0.1738
  102CHL1  H23A13794   2.447   4.251  15.282 -0.4255 -0.0324 -0.1764
  102CHL1  H23B13795   2.496   4.120  15.174  0.0343 -0.6441 -0.1988
  102CHL1   C2413796   2.369   4.279  15.096 -0.3656  1.0537  0.2637
  102CHL1  H24A13797   2.274   4.332  15.117 -0.9325 -0.1403  0.8206
  102CHL1  H24B13798   2.454   4.350  15.088  0.7483 -0.1658  0.8432
  102CHL1   C2513799   2.362   4.201  14.955 -0.6577 -0.3939 -0.2022
  102CHL1   H2513800   2.282   4.124  14.963 -2.9787  1.8847 -0.2175
  102CHL1   C2613801   2.310   4.314  14.855  0.4257  0.3417  0.4031
  102CHL1  H26A13802   2.293   4.267  14.755  1.9579  0.9728 -0.1736
  102CHL1  H26B13803   2.220   4.348  14.911  1.2522  1.2210  1.2184
  102CHL1  H26C13804   2.384   4.396  14.850  0.9972 -0.2279 -1.6046
  102CHL1   C2713805   2.489   4.141  14.907 -0.3870 -0.1240  0.8443
  102CHL1  H27A13806   2.538   4.060  14.965  0.6189  0.1239  0.3670
  102CHL1  H27B13807   2.487   4.109  14.801  1.4783  0.5515  0.5590
  102CHL1  H27C13808   2.570   4.218  14.902 -0.7284  0.1709 -1.8175
  103CHL1    C313809   2.163   3.012  15.925 -0.4256 -0.3755 -0.1382
  103CHL1    H313810   2.274   3.010  15.917 -0.4282  0.3693 -0.4989
  103CHL1    O313811   2.131   3.072  16.045 -0.1585 -0.1962  0.0230
  103CHL1   H3'13812   2.036   3.062  16.050 -0.2959  0.9290  0.0082
  103CHL1    C413813   2.092   3.092  15.818  0.3636  0.2951  0.3482
  103CHL1   H4A13814   1.986   3.082  15.850  0.5998 -3.2233  0.4642
  103CHL1   H4B13815   2.123   3.198  15.831  0.5806  0.0328  2.2233
  103CHL1    C513816   2.108   3.030  15.680  0.3722  0.6895 -0.5527
  103CHL1    C613817   2.156   3.092  15.580 -0.7098  0.1774  0.0541
  103CHL1    H613818   2.187   3.198  15.582 -1.3931  0.3796  0.2061
  103CHL1    C713819   2.150   3.037  15.439  0.6202  0.2037 -0.3923
  103CHL1   H7A13820   2.069   3.099  15.393 -1.5317 -0.5967  2.0496
  103CHL1   H7B13821   2.247   3.043  15.386  1.1766 -1.4019  0.3847
  103CHL1    C813822   2.074   2.904  15.423  0.0918  0.8362  0.4846
  103CHL1    H813823   1.965   2.924  15.413 -0.0015  0.4194  0.6597
  103CHL1   C1413824   2.117   2.832  15.291 -0.3393 -0.6199  0.5055
  103CHL1   H1413825   2.222   2.795  15.299  0.3707  1.2871  0.6122
  103CHL1   C1513826   2.128   2.911  15.159 -0.2868 -0.2836 -0.5465
  103CHL1  H15A13827   2.039   2.976  15.150 -1.1516 -1.4915 -1.1886
  103CHL1  H15B13828   2.215   2.978  15.150 -1.1879  1.1085  0.6437
  103CHL1   C1613829   2.125   2.802  15.058  0.2488 -0.0557  0.6981
  103CHL1  H16A13830   2.036   2.822  14.994 -0.2620  1.4880  1.8354
  103CHL1  H16B13831   2.216   2.797  14.995  0.0722 -0.8627  0.5038
  103CHL1   C1713832   2.106   2.658  15.129  0.3805 -0.6545 -0.1986
  103CHL1   H1713833   2.209   2.634  15.162  0.3022 -0.0805  0.4758
  103CHL1   C1313834   2.042   2.697  15.261  0.0598  0.5722 -0.7798
  103CHL1   C1813835   1.889   2.726  15.239  0.0493 -1.1373 -0.3833
  103CHL1  H18A13836   1.879   2.792  15.151  2.8292  1.0469  0.7716
  103CHL1  H18B13837   1.832   2.632  15.221  0.7839 -1.5049 -0.8321
  103CHL1  H18C13838   1.850   2.778  15.330  2.5768  0.3381 -0.0662
  103CHL1   C1213839   2.058   2.601  15.379 -0.4398  0.4665 -0.0735
  103CHL1  H12A13840   2.000   2.506  15.373 -0.3972  0.4422 -0.1026
  103CHL1  H12B13841   2.161   2.562  15.371 -0.9289 -0.7547 -0.6479
  103CHL1   C1113842   2.022   2.666  15.512  0.4469  0.9654 -0.1457
  103CHL1  H11A13843   1.912   2.681  15.508  0.5855  2.5297  1.0372
  103CHL1  H11B13844   2.042   2.591  15.592  0.3983  1.2188  0.1039
  103CHL1    C913845   2.088   2.811  15.539 -0.6144 -0.2312  0.0120
  103CHL1    H913846   2.197   2.789  15.549 -0.2261  1.3022 -0.5273
  103CHL1   C1013847   2.054   2.887  15.673  0.4590  1.0642  0.0982
  103CHL1   C1913848   1.899   2.883  15.690  0.7330 -0.1451  0.8531
  103CHL1  H19A13849   1.832   2.916  15.608  0.5354 -3.0212 -0.2476
  103CHL1  H19B13850   1.876   2.776  15.709 -1.4855 -0.0935 -1.0847
  103CHL1  H19C13851   1.863   2.944  15.776 -0.4763  1.5756 -0.7795
  103CHL1    C113852   2.132   2.816  15.783  0.0969 -0.0762 -0.5457
  103CHL1   H1A13853   2.088   2.715  15.791 -0.4855  0.1838 -0.3865
  103CHL1   H1B13854   2.239   2.814  15.751  0.9901 -2.7838  2.1824
  103CHL1    C213855   2.110   2.867  15.924  0.2153  0.3109  0.0724
  103CHL1   H2A13856   2.161   2.803  16.000 -0.8155  2.3526  2.6473
  103CHL1   H2B13857   2.000   2.861  15.944 -0.0431  1.3721 -0.9440
  103CHL1   C2013858   2.052   2.555  15.036 -0.3948 -0.0016  1.0667
  103CHL1   H2013859   1.949   2.579  15.000 -0.1184 -0.1263  0.1815
  103CHL1   C2113860   2.038   2.415  15.109 -0.7761 -0.9382 -0.4173
  103CHL1  H21A13861   2.032   2.325  15.044  1.2242 -1.5780  0.1982
  103CHL1  H21B13862   1.954   2.419  15.182  0.2853 -1.1865  0.8602
  103CHL1  H21C13863   2.131   2.398  15.168  0.2648  1.0493 -1.3763
  103CHL1   C2213864   2.137   2.533  14.907  0.0361 -0.5868  0.5025
  103CHL1  H22A13865   2.176   2.630  14.867 -0.8713  0.1890  1.4560
  103CHL1  H22B13866   2.226   2.471  14.930  0.5792 -0.3740 -0.8920
  103CHL1   C2313867   2.052   2.476  14.790  0.0364 -0.4444 -0.2837
  103CHL1  H23A13868   2.012   2.372  14.796 -1.7466  0.2183 -0.2227
  103CHL1  H23B13869   1.962   2.540  14.790 -0.5524 -1.2434 -1.4762
  103CHL1   C2413870   2.125   2.493  14.655  1.1138  0.3494  0.1758
  103CHL1  H24A13871   2.178   2.591  14.656  0.6610  0.5913  0.7500
  103CHL1  H24B13872   2.193   2.406  14.645 -1.3470 -1.5717 -0.6129
  103CHL1   C2513873   2.027   2.510  14.540 -0.3717 -0.1730 -0.3162
  103CHL1   H2513874   1.967   2.603  14.555 -0.1028 -0.1694  0.8142
  103CHL1   C2613875   2.101   2.528  14.412  0.6812 -0.1370  0.4229
  103CHL1  H26A13876   2.166   2.441  14.389 -0.4725 -0.7424 -0.6518
  103CHL1  H26B13877   2.035   2.547  14.325 -0.1382  4.4795  1.7457
  103CHL1  H26C13878   2.171   2.613  14.427  0.4323  0.0236  0.6918
  103CHL1   C2713879   1.939   2.391  14.526 -0.1698  0.1227  0.0363
  103CHL1  H27A13880   1.857   2.390  14.602 -2.5917 -2.6034 -2.3488
  103CHL1  H27B13881   1.893   2.386  14.425  0.6567 -0.3033 -0.3292
  103CHL1  H27C13882   1.991   2.296  14.554 -0.2327  0.5004  1.5256
  104CHL1    C313883   5.374   4.079  16.633 -0.2047 -0.1987  0.4877
  104CHL1    H313884   5.386   4.185  16.603  0.7350 -0.0291  1.3887
  104CHL1    O313885   5.405   4.060  16.769 -0.1777  0.2987 -0.2334
  104CHL1   H3'13886   5.486   4.109  16.788 -1.5699  3.3365 -1.4996
  104CHL1    C413887   5.227   4.035  16.608  0.3743 -0.0625 -0.5533
  104CHL1   H4A13888   5.222   3.926  16.627  0.4327 -0.3183 -1.8668
  104CHL1   H4B13889   5.171   4.095  16.682 -0.1967 -1.6110  0.3152
  104CHL1    C513890   5.177   4.063  16.467  0.3136 -0.2200 -0.1574
  104CHL1    C613891   5.072   4.140  16.442 -0.1053 -0.3594  0.2089
  104CHL1    H613892   5.015   4.186  16.525  0.0468  0.3802 -0.0844
  104CHL1    C713893   5.019   4.168  16.305  0.3498  0.1811 -0.1342
  104CHL1   H7A13894   4.908   4.157  16.302  0.2687  1.1259 -2.3060
  104CHL1   H7B13895   5.055   4.271  16.283  1.6960  0.1371  1.6027
  104CHL1    C813896   5.088   4.075  16.195  0.5454  0.4860  0.0822
  104CHL1    H813897   5.048   3.972  16.196  0.2734  0.5360  3.0063
  104CHL1   C1413898   5.064   4.141  16.057 -0.4934 -0.3748 -0.1603
  104CHL1   H1413899   5.121   4.235  16.069  0.4233 -0.6720 -1.9747
  104CHL1   C1513900   4.922   4.165  16.012 -0.2778  0.0223 -0.0424
  104CHL1  H15A13901   4.857   4.077  16.032 -0.8499  0.3328 -0.5348
  104CHL1  H15B13902   4.870   4.251  16.059 -0.5790 -0.1884  0.0099
  104CHL1   C1613903   4.930   4.182  15.861  0.0738  0.4665 -0.1040
  104CHL1  H16A13904   4.866   4.111  15.805 -2.2225  2.6173 -0.3846
  104CHL1  H16B13905   4.909   4.289  15.842  0.8842  0.3876 -1.6028
  104CHL1   C1713906   5.076   4.164  15.824 -0.5550 -0.5706  0.7818
  104CHL1   H1713907   5.130   4.260  15.835 -0.8579 -0.3316  0.2340
  104CHL1   C1313908   5.124   4.074  15.942 -0.1562 -0.0781 -1.0160
  104CHL1   C1813909   5.073   3.924  15.923 -0.4311 -0.9727 -0.3674
  104CHL1  H18A13910   5.118   3.881  15.831  0.4582 -0.9568  0.0473
  104CHL1  H18B13911   5.107   3.865  16.010 -1.7072 -0.5394  0.4570
  104CHL1  H18C13912   4.962   3.921  15.925 -0.5375  0.8743 -1.2545
  104CHL1   C1213913   5.280   4.077  15.966 -0.7440  0.4443  0.0043
  104CHL1  H12A13914   5.314   4.000  15.893  0.2234  1.2827 -0.4418
  104CHL1  H12B13915   5.318   4.180  15.949  1.9111 -0.4826 -0.0511
  104CHL1   C1113916   5.318   4.015  16.104  0.2783 -0.1695 -0.0818
  104CHL1  H11A13917   5.298   3.905  16.100  0.8771 -0.4141  2.1290
  104CHL1  H11B13918   5.428   4.031  16.105  0.1659  0.6758 -0.6312
  104CHL1    C913919   5.239   4.078  16.223 -0.0392  0.1462  0.7979
  104CHL1    H913920   5.270   4.185  16.233 -0.9597  0.8624 -2.5345
  104CHL1   C1013921   5.270   4.005  16.359 -0.2252  0.3812  0.2795
  104CHL1   C1913922   5.220   3.856  16.354 -0.7523 -0.6284 -0.2018
  104CHL1  H19A13923   5.267   3.798  16.436  0.6531  0.7496  0.0294
  104CHL1  H19B13924   5.109   3.848  16.360 -0.8255  0.3687 -0.0213
  104CHL1  H19C13925   5.253   3.804  16.262  0.0489 -3.4476  1.5726
  104CHL1    C113926   5.423   4.012  16.397  0.4944 -0.1180  0.0128
  104CHL1   H1A13927   5.477   3.924  16.357  0.5124 -0.6885  1.2323
  104CHL1   H1B13928   5.460   4.106  16.350 -0.3939  0.3225  0.1753
  104CHL1    C213929   5.463   3.999  16.542  0.2669  0.1629  0.6224
  104CHL1   H2A13930   5.568   4.033  16.543  0.3875 -0.1631 -0.2747
  104CHL1   H2B13931   5.461   3.892  16.571 -0.3821  0.1752  0.6386
  104CHL1   C2013932   5.088   4.117  15.681  0.3644  0.2716 -0.4752
  104CHL1   H2013933   5.067   4.008  15.680  2.0108 -0.1137  1.2092
  104CHL1   C2113934   5.232   4.137  15.636  0.6306 -0.2071 -0.4925
  104CHL1  H21A13935   5.258   4.245  15.647  0.5481 -0.3209  1.0830
  104CHL1  H21B13936   5.235   4.123  15.526 -0.9896 -0.3267 -0.5462
  104CHL1  H21C13937   5.308   4.072  15.683 -0.9110 -0.7741  1.3054
  104CHL1   C2213938   5.000   4.187  15.569  0.6143 -0.0364 -1.3463
  104CHL1  H22A13939   4.909   4.215  15.626  0.2206 -3.1695 -0.2188
  104CHL1  H22B13940   5.048   4.283  15.541  1.5677 -0.3090 -0.6925
  104CHL1   C2313941   4.963   4.095  15.452  0.2474  0.9748 -0.0969
  104CHL1  H23A13942   5.045   4.063  15.383 -0.4020 -0.5006 -0.2257
  104CHL1  H23B13943   4.923   3.998  15.489 -1.3954  1.7792  0.2848
  104CHL1   C2413944   4.849   4.156  15.366  0.6155  0.1131  0.1905
  104CHL1  H24A13945   4.767   4.187  15.434 -1.6372 -2.9854 -0.8597
  104CHL1  H24B13946   4.885   4.248  15.315  0.0456  1.3161  1.8603
  104CHL1   C2513947   4.780   4.065  15.264 -0.0556 -0.1091 -0.0990
  104CHL1   H2513948   4.859   4.032  15.194 -0.4188  1.7339 -1.4569
  104CHL1   C2613949   4.699   3.957  15.336  0.6341  0.0161 -0.4618
  104CHL1  H26A13950   4.603   3.989  15.381 -0.3990 -1.9246 -1.2029
  104CHL1  H26B13951   4.660   3.892  15.255 -0.0023 -1.7592  1.1985
  104CHL1  H26C13952   4.762   3.896  15.405  0.9771  0.5598 -0.2877
  104CHL1   C2713953   4.679   4.150  15.177  0.4566  0.0211  0.0786
  104CHL1  H27A13954   4.646   4.089  15.090 -0.9591 -0.3930  0.8708
  104CHL1  H27B13955   4.594   4.180  15.242 -0.0404  0.3143 -0.7023
  104CHL1  H27C13956   4.740   4.232  15.134 -0.0291 -0.2041 -1.0757
  105CHL1    C313957   4.553   1.963  16.370 -0.3551 -0.3136 -0.1774
  105CHL1    H313958   4.636   2.023  16.326 -0.0950  0.3726  1.1799
  105CHL1    O313959   4.529   2.019  16.494  0.4532 -0.1606  0.4857
  105CHL1   H3'13960   4.608   2.007  16.548 -0.5539  1.2826  2.4017
  105CHL1    C413961   4.422   1.973  16.279 -0.7696 -0.3178 -0.9421
  105CHL1   H4A13962   4.350   1.915  16.341 -1.6522  0.5981 -1.0856
  105CHL1   H4B13963   4.390   2.078  16.267 -0.0465 -0.1654 -1.6248
  105CHL1    C513964   4.452   1.916  16.140 -0.3149  0.0399  0.1607
  105CHL1    C613965   4.445   1.996  16.032  0.5726  0.1364  0.3353
  105CHL1    H613966   4.406   2.098  16.036 -1.2708 -0.5101 -0.0704
  105CHL1    C713967   4.473   1.956  15.893 -0.1471  0.1465  0.0909
  105CHL1   H7A13968   4.423   2.021  15.818 -1.6828  0.5980  1.4523
  105CHL1   H7B13969   4.583   1.970  15.889 -0.0776 -0.4968 -0.4900
  105CHL1    C813970   4.444   1.808  15.876  0.3737  0.2171  0.3724
  105CHL1    H813971   4.335   1.789  15.887  0.2437  0.2443 -0.7975
  105CHL1   C1413972   4.492   1.754  15.742  0.0655  0.5020 -0.4419
  105CHL1   H1413973   4.603   1.765  15.733  0.1198  0.4620  0.1386
  105CHL1   C1513974   4.437   1.821  15.609 -0.0595  0.1111 -0.1982
  105CHL1  H15A13975   4.332   1.851  15.627  0.4332  2.0960 -0.3130
  105CHL1  H15B13976   4.477   1.923  15.589 -1.2065  0.5615 -0.2498
  105CHL1   C1613977   4.442   1.724  15.501 -0.6101  0.1747 -0.4646
  105CHL1  H16A13978   4.336   1.709  15.469 -1.4230 -0.2735  2.2231
  105CHL1  H16B13979   4.500   1.763  15.415 -0.2469 -1.0847 -0.8240
  105CHL1   C1713980   4.506   1.596  15.563  0.0872  0.5201  0.3131
  105CHL1   H1713981   4.617   1.604  15.558  0.1646 -1.0548 -1.4337
  105CHL1   C1313982   4.463   1.606  15.716 -0.0980  0.2460  0.1582
  105CHL1   C1813983   4.311   1.562  15.733 -0.3993 -0.9977  0.3258
  105CHL1  H18A13984   4.307   1.453  15.709  1.5663 -1.3371  1.3410
  105CHL1  H18B13985   4.280   1.578  15.838 -1.0515 -1.8117  0.2661
  105CHL1  H18C13986   4.244   1.631  15.677  1.0722 -0.4489 -0.8149
  105CHL1   C1213987   4.556   1.534  15.814 -0.0851 -0.0815  0.1423
  105CHL1  H12A13988   4.554   1.424  15.800 -0.7012  0.1263 -1.6193
  105CHL1  H12B13989   4.662   1.557  15.787  0.1333 -1.4626 -0.2291
  105CHL1   C1113990   4.521   1.574  15.956  0.1045  0.4537 -0.2006
  105CHL1  H11A13991   4.432   1.518  15.992  1.5075 -0.2078  2.4632
  105CHL1  H11B13992   4.594   1.549  16.036 -0.4750 -0.3958  0.0700
  105CHL1    C913993   4.520   1.731  15.983  0.0203 -0.0775  0.1166
  105CHL1    H913994   4.628   1.749  15.967  0.2694 -2.0430 -0.6720
  105CHL1   C1013995   4.487   1.771  16.135 -0.4366  0.2899 -0.4518
  105CHL1   C1913996   4.365   1.688  16.174 -0.2605 -0.5506 -0.1087
  105CHL1  H19A13997   4.325   1.733  16.267  0.4738  0.5193 -0.2987
  105CHL1  H19B13998   4.292   1.694  16.091 -0.7932  0.3809  0.4025
  105CHL1  H19C13999   4.405   1.584  16.182  2.8485  0.6223  1.0002
  105CHL1    C114000   4.603   1.752  16.236 -0.2736 -0.1286  0.0363
  105CHL1   H1A14001   4.622   1.643  16.233  0.9851  0.0977 -1.6987
  105CHL1   H1B14002   4.684   1.800  16.178 -0.2526 -0.0981  0.0888
  105CHL1    C214003   4.594   1.812  16.378  0.3410  0.3888 -0.1080
  105CHL1   H2A14004   4.681   1.792  16.445 -0.7624  2.1630  1.9498
  105CHL1   H2B14005   4.512   1.752  16.422  1.8726 -0.3758  1.8743
  105CHL1   C2014006   4.478   1.468  15.480 -0.3774  0.2668 -0.0767
  105CHL1   H2014007   4.371   1.454  15.457  0.3644 -3.0844 -2.1309
  105CHL1   C2114008   4.539   1.342  15.549  0.0116  0.2915 -0.3146
  105CHL1  H21A14009   4.646   1.358  15.576 -0.0748 -2.0488  1.8555
  105CHL1  H21B14010   4.534   1.250  15.487  1.0900  0.4335 -0.6334
  105CHL1  H21C14011   4.484   1.319  15.643 -0.9669  1.9305 -0.4529
  105CHL1   C2214012   4.544   1.481  15.336  0.5433  0.4370  0.0536
  105CHL1  H22A14013   4.481   1.554  15.282 -0.4689 -1.5098 -1.5353
  105CHL1  H22B14014   4.649   1.516  15.342  0.7728  0.1026 -1.5343
  105CHL1   C2314015   4.542   1.356  15.252 -0.0104 -0.3196  0.2705
  105CHL1  H23A14016   4.596   1.275  15.306 -0.2479  1.0595  2.7124
  105CHL1  H23B14017   4.436   1.323  15.260 -0.4908  1.6352  3.6802
  105CHL1   C2414018   4.598   1.369  15.107 -0.0864 -0.6471  1.1068
  105CHL1  H24A14019   4.531   1.446  15.063  0.7430  0.4739  1.7354
  105CHL1  H24B14020   4.702   1.408  15.103 -0.1832 -0.4772 -0.3090
  105CHL1   C2514021   4.596   1.240  15.026 -0.1873 -0.1139  0.2061
  105CHL1   H2514022   4.635   1.153  15.083  0.6791 -0.3288 -0.6866
  105CHL1   C2614023   4.466   1.192  14.973 -0.3393  0.4501 -0.2426
  105CHL1  H26A14024   4.427   1.242  14.882 -0.7179  0.0256 -0.3175
  105CHL1  H26B14025   4.474   1.090  14.929 -1.7232  0.6279 -0.9441
  105CHL1  H26C14026   4.390   1.192  15.054  0.8833 -0.6352  0.9709
  105CHL1   C2714027   4.693   1.258  14.908 -0.0363 -1.1196 -0.0431
  105CHL1  H27A14028   4.664   1.347  14.849  1.1913 -0.9160 -0.3665
  105CHL1  H27B14029   4.795   1.277  14.948  0.4243 -1.4087 -1.0590
  105CHL1  H27C14030   4.706   1.168  14.843 -0.4989 -0.1286 -1.5448
  106CHL1    C314031   1.108   2.655  16.079  0.0430  0.1236 -1.0293
  106CHL1    H314032   1.106   2.551  16.040  0.5978 -0.1802 -0.2712
  106CHL1    O314033   1.069   2.653  16.221 -0.0377 -0.5037 -0.7312
  106CHL1   H3'14034   1.007   2.727  16.217 -1.3059 -1.5797 -2.3477
  106CHL1    C414035   1.251   2.699  16.072  0.7863  0.1945  0.9375
  106CHL1   H4A14036   1.269   2.799  16.117 -0.7602  1.0778 -0.2888
  106CHL1   H4B14037   1.314   2.624  16.124  0.0372 -0.5532  0.7932
  106CHL1    C514038   1.292   2.709  15.925 -1.0579 -0.4854  0.4114
  106CHL1    C614039   1.401   2.637  15.878 -0.1449  0.4814 -0.1080
  106CHL1    H614040   1.461   2.575  15.946 -1.1911 -0.2092  0.2024
  106CHL1    C714041   1.443   2.641  15.733  0.0509 -0.4098 -0.4462
  106CHL1   H7A14042   1.553   2.654  15.717 -0.2520  1.7207 -1.1472
  106CHL1   H7B14043   1.413   2.545  15.686 -0.3313 -0.6329  0.2395
  106CHL1    C814044   1.383   2.761  15.656 -0.3615  0.2617 -0.8988
  106CHL1    H814045   1.435   2.852  15.693  1.7430 -0.5894 -1.6405
  106CHL1   C1414046   1.410   2.759  15.511 -0.1912 -0.0001  0.1212
  106CHL1   H1414047   1.365   2.662  15.480  2.3945 -0.6072 -2.0413
  106CHL1   C1514048   1.558   2.754  15.464  0.4155  0.0129  0.7199
  106CHL1  H15A14049   1.616   2.827  15.526 -1.0121  1.0367  0.9157
  106CHL1  H15B14050   1.609   2.658  15.482  0.9240 -0.3395 -2.2264
  106CHL1   C1614051   1.559   2.805  15.318 -0.8287  0.1208 -0.8964
  106CHL1  H16A14052   1.632   2.889  15.313  0.7665 -1.2330 -1.2534
  106CHL1  H16B14053   1.596   2.727  15.248 -1.0982  1.3167 -2.4330
  106CHL1   C1714054   1.410   2.841  15.289 -0.0819  0.6852 -0.0004
  106CHL1   H1714055   1.368   2.744  15.255 -1.3372  0.5116  1.9372
  106CHL1   C1314056   1.354   2.866  15.428  0.3346 -0.0134  0.2330
  106CHL1   C1814057   1.399   3.005  15.474 -0.0682 -0.1279 -0.2359
  106CHL1  H18A14058   1.345   3.081  15.413 -0.9246  0.0551  0.7324
  106CHL1  H18B14059   1.379   3.017  15.582  0.5484 -0.8248 -0.0362
  106CHL1  H18C14060   1.507   3.014  15.452  0.0428 -2.4973 -0.9129
  106CHL1   C1214061   1.199   2.856  15.448  0.1307  0.2255  0.3878
  106CHL1  H12A14062   1.147   2.932  15.386  0.0547  1.2617  1.6854
  106CHL1  H12B14063   1.172   2.753  15.415 -0.8084  0.6016 -0.0646
  106CHL1   C1114064   1.161   2.868  15.591 -0.1376 -0.7471  0.3512
  106CHL1  H11A14065   1.185   2.971  15.625 -0.8766 -0.5122  0.1834
  106CHL1  H11B14066   1.051   2.857  15.604  0.0355 -1.1731  1.6089
  106CHL1    C914067   1.232   2.767  15.686 -0.0278 -0.1520  0.1336
  106CHL1    H914068   1.184   2.673  15.651  1.5809 -0.2218 -2.0866
  106CHL1   C1014069   1.198   2.788  15.836  0.4286  0.3805  0.0961
  106CHL1   C1914070   1.223   2.936  15.882  0.2680  0.4292 -0.5657
  106CHL1  H19A14071   1.210   2.958  15.990 -1.2781 -0.3259 -0.5680
  106CHL1  H19B14072   1.328   2.964  15.861 -0.0937  3.5614  1.2265
  106CHL1  H19C14073   1.167   3.015  15.828 -1.3642  0.1999  0.7185
  106CHL1    C114074   1.047   2.748  15.863  0.1694  0.1033  0.4067
  106CHL1   H1A14075   0.996   2.826  15.803 -0.2595  0.0585  0.7055
  106CHL1   H1B14076   1.032   2.649  15.815  1.1629  0.9714 -1.8105
  106CHL1    C214077   1.007   2.739  16.003  0.0341  0.1964 -0.4103
  106CHL1   H2A14078   0.905   2.695  16.003  0.2334 -0.2761 -1.3840
  106CHL1   H2B14079   0.994   2.840  16.050 -0.9798 -0.4498  0.7611
  106CHL1   C2014080   1.398   2.936  15.174  0.1438 -0.3303  0.0342
  106CHL1   H2014081   1.441   3.033  15.206  0.1898 -0.0871 -0.7617
  106CHL1   C2114082   1.252   2.951  15.132 -0.4653  0.2476  0.4165
  106CHL1  H21A14083   1.253   3.004  15.034  0.6636 -0.5677 -0.0318
  106CHL1  H21B14084   1.190   3.020  15.194 -0.3690  2.4369 -1.7711
  106CHL1  H21C14085   1.210   2.851  15.111 -1.1561  0.2968  1.4551
  106CHL1   C2214086   1.487   2.887  15.053  0.5134  0.1728 -0.5354
  106CHL1  H22A14087   1.470   2.961  14.972 -3.0875 -1.4883 -1.5406
  106CHL1  H22B14088   1.593   2.877  15.083  0.1622 -2.1728  0.1364
  106CHL1   C2314089   1.446   2.746  14.992 -0.4648  0.3732  0.5405
  106CHL1  H23A14090   1.463   2.657  15.058 -1.1325 -1.1950 -1.3193
  106CHL1  H23B14091   1.337   2.741  14.970 -1.3532  0.3189  4.2342
  106CHL1   C2414092   1.533   2.729  14.864  0.0073 -0.2299  0.1449
  106CHL1  H24A14093   1.507   2.815  14.799 -0.4130  1.1002  1.9982
  106CHL1  H24B14094   1.635   2.743  14.903 -0.1388 -1.0950  0.8727
  106CHL1   C2514095   1.533   2.597  14.787 -0.3342  0.6264 -0.0954
  106CHL1   H2514096   1.431   2.554  14.786  0.1537 -0.5749 -0.1105
  106CHL1   C2614097   1.571   2.603  14.635 -0.3321 -0.0199  0.6436
  106CHL1  H26A14098   1.519   2.691  14.591 -1.3111  0.3415  2.4143
  106CHL1  H26B14099   1.680   2.625  14.637 -0.5671  1.4732 -0.9243
  106CHL1  H26C14100   1.548   2.507  14.585 -0.7188  0.9723 -1.1852
  106CHL1   C2714101   1.606   2.491  14.872 -0.2235 -0.4211 -0.6302
  106CHL1  H27A14102   1.710   2.530  14.870 -0.7229  1.0218  0.3414
  106CHL1  H27B14103   1.568   2.482  14.976  0.7562 -0.2464 -0.2514
  106CHL1  H27C14104   1.603   2.397  14.813 -2.2972 -0.7634 -0.0556
  107CHL1    C314105   3.490   6.314  16.695  0.8780 -0.4779 -0.1212
  107CHL1    H314106   3.547   6.238  16.638 -1.6800 -2.1513 -0.6389
  107CHL1    O314107   3.550   6.342  16.824  0.5731 -0.2465  0.4275
  107CHL1   H3'14108   3.474   6.360  16.881 -1.1174 -2.2203 -1.0573
  107CHL1    C414109   3.479   6.445  16.611 -0.1270  0.9729 -0.0884
  107CHL1   H4A14110   3.422   6.524  16.665  1.2824  1.6819  0.4047
  107CHL1   H4B14111   3.586   6.474  16.611  0.2217 -0.1831  1.1346
  107CHL1    C514112   3.419   6.405  16.476  0.0674 -0.1484 -0.1508
  107CHL1    C614113   3.494   6.405  16.364 -0.3655  0.5491  0.6594
  107CHL1    H614114   3.596   6.444  16.354 -0.4837  0.2100 -2.8987
  107CHL1    C714115   3.434   6.361  16.228 -0.0012 -0.8341 -0.4101
  107CHL1   H7A14116   3.458   6.438  16.151 -0.8197  1.6355  1.6578
  107CHL1   H7B14117   3.473   6.261  16.201  3.0931 -0.4039  1.9323
  107CHL1    C814118   3.283   6.375  16.229 -0.6488 -0.0007 -0.4249
  107CHL1    H814119   3.258   6.483  16.241 -0.7752 -0.2055  1.4440
  107CHL1   C1414120   3.231   6.309  16.099  1.0066  0.2479 -0.0581
  107CHL1   H1414121   3.262   6.202  16.107 -1.2742 -0.4368  0.4706
  107CHL1   C1514122   3.277   6.368  15.965  0.3119  0.4846  0.3112
  107CHL1  H15A14123   3.254   6.476  15.966  0.0947  0.5049 -1.7582
  107CHL1  H15B14124   3.384   6.346  15.942  0.1088  0.3380 -0.5485
  107CHL1   C1614125   3.187   6.306  15.864  0.6744  0.4693  0.2958
  107CHL1  H16A14126   3.152   6.390  15.801 -1.1217  0.3899  1.1252
  107CHL1  H16B14127   3.233   6.231  15.796 -1.0910 -2.2267  1.8617
  107CHL1   C1714128   3.072   6.243  15.943  0.4363 -0.0228 -0.4437
  107CHL1   H1714129   3.091   6.134  15.949  0.7232  0.1158  1.7521
  107CHL1   C1314130   3.080   6.291  16.095 -0.5610 -0.1741 -0.5074
  107CHL1   C1814131   3.009   6.432  16.103  0.0465 -0.4264 -0.1391
  107CHL1  H18A14132   2.898   6.421  16.110  0.1057 -3.3338 -1.9602
  107CHL1  H18B14133   3.046   6.499  16.183  2.3526  1.9372 -2.9637
  107CHL1  H18C14134   3.037   6.488  16.011  3.4044 -2.3643 -0.4268
  107CHL1   C1214135   3.024   6.213  16.211 -0.4630 -0.6033 -1.2790
  107CHL1  H12A14136   2.913   6.227  16.214 -0.4961 -0.5483  2.6945
  107CHL1  H12B14137   3.048   6.105  16.206  0.4873 -0.5692  1.2020
  107CHL1   C1114138   3.076   6.260  16.350 -0.2634  0.3794 -0.2542
  107CHL1  H11A14139   3.021   6.356  16.362 -3.7739 -1.5892  0.7814
  107CHL1  H11B14140   3.059   6.187  16.431 -1.0958 -0.8276 -1.4706
  107CHL1    C914141   3.228   6.290  16.348  0.0945 -0.1708  0.3541
  107CHL1    H914142   3.282   6.194  16.331  1.0413  0.1983  1.2096
  107CHL1   C1014143   3.270   6.353  16.485  0.0983 -0.3542 -0.2076
  107CHL1   C1914144   3.174   6.465  16.527 -0.0990 -0.6051 -0.2119
  107CHL1  H19A14145   3.211   6.509  16.622 -1.5390  2.8685 -1.1286
  107CHL1  H19B14146   3.158   6.542  16.448 -0.8466  0.6182  1.0867
  107CHL1  H19C14147   3.079   6.412  16.549 -0.9577  1.6201  1.9248
  107CHL1    C114148   3.270   6.238  16.594  0.0585  0.0250 -0.3298
  107CHL1   H1A14149   3.165   6.210  16.621  0.4011 -0.5851  0.4054
  107CHL1   H1B14150   3.307   6.148  16.541  1.4814 -0.5192  1.4914
  107CHL1    C214151   3.352   6.255  16.720 -0.3768 -0.0743 -0.3924
  107CHL1   H2A14152   3.356   6.160  16.778 -1.8062  0.8787  1.3386
  107CHL1   H2B14153   3.293   6.327  16.781  2.0002 -0.6472  2.8173
  107CHL1   C2014154   2.939   6.254  15.870  0.2129  0.2166 -0.2794
  107CHL1   H2014155   2.896   6.355  15.854 -2.7630 -0.9411 -0.1855
  107CHL1   C2114156   2.817   6.186  15.944 -0.6392  1.1212 -0.2468
  107CHL1  H21A14157   2.730   6.184  15.875  0.9308  0.3992 -2.3080
  107CHL1  H21B14158   2.782   6.234  16.038 -0.4240 -1.9857  1.5443
  107CHL1  H21C14159   2.849   6.081  15.962  1.8290  1.9277  0.5690
  107CHL1   C2214160   2.944   6.193  15.727  0.0127 -0.1135  0.3356
  107CHL1  H22A14161   3.025   6.231  15.660 -1.3936  1.2814 -0.6560
  107CHL1  H22B14162   2.960   6.084  15.741 -0.7945 -0.4925 -1.3577
  107CHL1   C2314163   2.821   6.212  15.642  0.6221 -0.7562 -0.1467
  107CHL1  H23A14164   2.729   6.155  15.666  1.0336 -0.5516  2.0967
  107CHL1  H23B14165   2.785   6.317  15.634 -0.5534 -1.2254 -1.4220
  107CHL1   C2414166   2.841   6.164  15.489  0.1088 -0.0439 -0.0708
  107CHL1  H24A14167   2.919   6.231  15.447  0.9704 -1.3132 -0.5814
  107CHL1  H24B14168   2.872   6.060  15.464  0.5083  0.5889 -2.5014
  107CHL1   C2514169   2.705   6.197  15.414 -0.2044  0.4631  0.7478
  107CHL1   H2514170   2.627   6.144  15.473  0.0084 -1.4132 -0.5975
  107CHL1   C2614171   2.678   6.348  15.394  0.5928  0.4159  0.1553
  107CHL1  H26A14172   2.771   6.398  15.361  0.3129  1.5882  1.0482
  107CHL1  H26B14173   2.595   6.366  15.322 -0.0724  2.9293  1.4059
  107CHL1  H26C14174   2.667   6.409  15.486 -0.6343  2.2498 -1.1242
  107CHL1   C2714175   2.703   6.132  15.269 -0.2022 -0.3464 -0.2411
  107CHL1  H27A14176   2.785   6.172  15.205 -0.2513 -1.5626 -1.0908
  107CHL1  H27B14177   2.721   6.023  15.280  0.1230 -0.2459  0.2650
  107CHL1  H27C14178   2.609   6.158  15.216  0.4853  2.1868 -0.3400
  108CHL1    C314179   5.113   1.310  16.343 -0.9049 -0.1832  0.2072
  108CHL1    H314180   5.204   1.253  16.315 -0.9062  0.2825 -0.8055
  108CHL1    O314181   5.105   1.322  16.485 -0.1381  0.4102  0.3945
  108CHL1   H3'14182   5.057   1.246  16.519  2.6612 -1.7325 -0.1074
  108CHL1    C414183   5.136   1.452  16.283 -0.4269  0.0154  0.0410
  108CHL1   H4A14184   5.065   1.516  16.340  1.1055 -0.2438  2.3653
  108CHL1   H4B14185   5.232   1.491  16.322  0.3679 -0.9735 -0.8610
  108CHL1    C514186   5.124   1.464  16.130  0.4236 -0.3056  0.1944
  108CHL1    C614187   5.229   1.520  16.064  0.5065  0.1370 -0.0347
  108CHL1    H614188   5.323   1.555  16.109 -0.0708  0.3778  1.0322
  108CHL1    C714189   5.232   1.529  15.917 -0.1905 -0.4412 -0.1888
  108CHL1   H7A14190   5.267   1.632  15.893  0.2222 -0.2377  1.2290
  108CHL1   H7B14191   5.320   1.469  15.885 -0.3930 -1.7878  1.6643
  108CHL1    C814192   5.106   1.495  15.837 -0.1064 -0.5768 -0.1687
  108CHL1    H814193   5.033   1.579  15.841 -0.5362 -0.9791  2.7922
  108CHL1   C1414194   5.136   1.460  15.687  0.4125  0.4753  0.2279
  108CHL1   H1414195   5.200   1.369  15.680 -0.3065  0.0613 -1.2481
  108CHL1   C1514196   5.207   1.572  15.605  0.0739  0.1199 -0.1765
  108CHL1  H15A14197   5.160   1.669  15.633  1.9228  0.5557  1.6981
  108CHL1  H15B14198   5.314   1.579  15.636 -0.0786 -1.9143  0.9536
  108CHL1   C1614199   5.179   1.524  15.455  0.0394 -0.4191 -0.3239
  108CHL1  H16A14200   5.149   1.613  15.396 -2.2410 -1.0669 -0.2470
  108CHL1  H16B14201   5.266   1.481  15.400 -0.6970 -0.3287 -1.6245
  108CHL1   C1714202   5.064   1.416  15.462  0.3837  0.4588  0.0932
  108CHL1   H1714203   5.113   1.316  15.463 -1.6463 -0.6403 -1.4779
  108CHL1   C1314204   5.006   1.430  15.604 -0.1677  0.0561 -0.4969
  108CHL1   C1814205   4.917   1.560  15.596 -0.3310  0.1382 -0.1445
  108CHL1  H18A14206   4.819   1.533  15.551 -0.9568  0.4601  0.9888
  108CHL1  H18B14207   4.905   1.612  15.693  2.1314 -1.2202  0.9814
  108CHL1  H18C14208   4.957   1.631  15.521  1.1061 -0.8509 -0.3632
  108CHL1   C1214209   4.934   1.306  15.671  0.4055  0.3441 -0.2867
  108CHL1  H12A14210   4.843   1.277  15.613  0.5363 -1.5100  0.3639
  108CHL1  H12B14211   4.997   1.215  15.658  0.5368  0.6707 -2.2405
  108CHL1   C1114212   4.904   1.335  15.813 -0.0677 -0.2086 -0.0640
  108CHL1  H11A14213   4.830   1.417  15.820  0.0156  0.0325 -1.6333
  108CHL1  H11B14214   4.851   1.248  15.858 -3.4723  1.1751 -1.0848
  108CHL1    C914215   5.033   1.374  15.902  1.1609 -0.1795  0.2680
  108CHL1    H914216   5.107   1.291  15.903  0.9422 -0.4030 -0.7742
  108CHL1   C1014217   5.008   1.392  16.057 -0.4102  0.5962  0.2203
  108CHL1   C1914218   4.878   1.473  16.081  0.0057 -0.3237  0.1676
  108CHL1  H19A14219   4.870   1.563  16.016 -0.1723 -1.5377 -1.5356
  108CHL1  H19B14220   4.786   1.414  16.065 -0.0218 -0.5548  1.1450
  108CHL1  H19C14221   4.877   1.517  16.183 -1.6547  2.5232 -0.9494
  108CHL1    C114222   4.990   1.253  16.125 -0.5212 -0.4083 -0.4152
  108CHL1   H1A14223   4.894   1.204  16.097 -0.9095  0.1216 -0.0575
  108CHL1   H1B14224   5.071   1.187  16.088 -1.0742 -1.5299  0.3222
  108CHL1    C214225   4.993   1.256  16.279 -0.6587  0.2999 -0.3844
  108CHL1   H2A14226   4.973   1.156  16.324  0.2208  0.1359 -0.3390
  108CHL1   H2B14227   4.908   1.323  16.303 -0.4228  1.4186 -2.4518
  108CHL1   C2014228   4.968   1.405  15.341  0.0914  0.0073 -0.5555
  108CHL1   H2014229   4.869   1.455  15.355  0.2768 -0.2324  2.2042
  108CHL1   C2114230   4.927   1.252  15.311 -0.0691 -0.7757  0.3017
  108CHL1  H21A14231   5.013   1.182  15.300  0.4490  0.1421 -2.1844
  108CHL1  H21B14232   4.868   1.251  15.217  0.5221 -2.2260 -0.0869
  108CHL1  H21C14233   4.859   1.203  15.384  0.4249 -1.3315  0.4072
  108CHL1   C2214234   5.031   1.472  15.213 -0.2401  0.1005  1.0446
  108CHL1  H22A14235   4.963   1.484  15.126  0.2068 -2.8437  0.1947
  108CHL1  H22B14236   5.063   1.577  15.230 -1.6121  0.5396  1.0465
  108CHL1   C2314237   5.158   1.397  15.150 -0.0842 -0.2719  0.1646
  108CHL1  H23A14238   5.228   1.360  15.228  0.1550 -2.3337 -0.9577
  108CHL1  H23B14239   5.134   1.300  15.101 -2.1565  0.5242 -0.5103
  108CHL1   C2414240   5.243   1.483  15.051  0.0472 -0.0295  0.2769
  108CHL1  H24A14241   5.273   1.575  15.106 -2.4639  0.0427  1.6554
  108CHL1  H24B14242   5.337   1.431  15.020 -0.8747 -1.5913 -0.0390
  108CHL1   C2514243   5.183   1.528  14.918  0.0207  0.9809  0.0957
  108CHL1   H2514244   5.076   1.553  14.938 -0.4473  1.3250 -2.4320
  108CHL1   C2614245   5.242   1.655  14.862 -0.2781 -0.2640 -0.0817
  108CHL1  H26A14246   5.216   1.657  14.754  1.8332 -1.1937 -0.6510
  108CHL1  H26B14247   5.197   1.743  14.913  0.1979 -0.5789  0.9048
  108CHL1  H26C14248   5.353   1.650  14.869 -0.2630  0.3472  0.1696
  108CHL1   C2714249   5.192   1.406  14.813  0.5497 -0.8394 -0.0845
  108CHL1  H27A14250   5.123   1.330  14.854 -0.9902  1.2982  1.4793
  108CHL1  H27B14251   5.143   1.434  14.718  1.7123 -2.0917 -1.0927
  108CHL1  H27C14252   5.294   1.363  14.800  1.4512 -0.0527  3.2824
  109CHL1    C314253   3.364   5.554  16.197  0.2113 -0.1144  0.8447
  109CHL1    H314254   3.464   5.592  16.169  0.0499 -0.6171 -0.4744
  109CHL1    O314255   3.351   5.525  16.333 -0.0717  0.4316 -0.2895
  109CHL1   H3'14256   3.260   5.492  16.337  0.3348 -1.1270 -2.3478
  109CHL1    C414257   3.259   5.667  16.172 -0.1438 -0.0465  0.4359
  109CHL1   H4A14258   3.162   5.630  16.211 -1.0669  1.3034 -0.5177
  109CHL1   H4B14259   3.300   5.757  16.223  0.7283 -0.0632 -0.2007
  109CHL1    C514260   3.249   5.697  16.021  0.4476  0.5706  0.0018
  109CHL1    C614261   3.261   5.820  15.980  0.0609 -0.0658 -0.2307
  109CHL1    H614262   3.279   5.895  16.059 -0.6810  0.5107 -0.6065
  109CHL1    C714263   3.249   5.859  15.839 -0.1905 -0.1642  0.4332
  109CHL1   H7A14264   3.190   5.953  15.842  0.1966  0.0606  1.3501
  109CHL1   H7B14265   3.338   5.893  15.781 -0.9717 -0.0312 -0.7343
  109CHL1    C814266   3.191   5.755  15.751  0.6615 -0.1877  0.2417
  109CHL1    H814267   3.081   5.757  15.761  0.4735 -0.4364 -1.4657
  109CHL1   C1414268   3.213   5.793  15.603  0.1742  1.0774 -0.1836
  109CHL1   H1414269   3.321   5.781  15.580 -0.2805 -0.2534 -1.8191
  109CHL1   C1514270   3.162   5.922  15.563  0.7471 -0.1387  0.3671
  109CHL1  H15A14271   3.058   5.940  15.595  0.9859 -0.2726  1.2518
  109CHL1  H15B14272   3.226   6.003  15.603  0.2344  0.2249  0.4538
  109CHL1   C1614273   3.155   5.916  15.404  0.4860  0.2663 -0.3615
  109CHL1  H16A14274   3.050   5.946  15.382 -0.1385 -0.8819  0.8219
  109CHL1  H16B14275   3.236   5.986  15.375  2.2972 -1.5026  0.2169
  109CHL1   C1714276   3.180   5.763  15.379 -0.3839  0.0317 -0.4383
  109CHL1   H1714277   3.291   5.759  15.373 -0.2434  0.3917  1.3208
  109CHL1   C1314278   3.156   5.688  15.505  0.1390  0.3409 -0.6205
  109CHL1   C1814279   2.999   5.676  15.520 -0.2121  0.0166 -0.5469
  109CHL1  H18A14280   2.967   5.623  15.612  0.4480  0.9479  0.2397
  109CHL1  H18B14281   2.955   5.778  15.516  2.2906  1.3807  2.3248
  109CHL1  H18C14282   2.965   5.617  15.432 -0.1927  2.2214 -2.1110
  109CHL1   C1214283   3.219   5.551  15.525 -0.3199 -0.5783  0.0876
  109CHL1  H12A14284   3.177   5.468  15.464 -2.0267 -1.3115  2.1465
  109CHL1  H12B14285   3.329   5.558  15.509 -0.2716 -0.4324  0.4751
  109CHL1   C1114286   3.198   5.513  15.676  0.3779  0.8553  0.2339
  109CHL1  H11A14287   3.091   5.490  15.693  0.4388  1.4781  1.5925
  109CHL1  H11B14288   3.249   5.419  15.704 -0.3467  1.0854  2.5267
  109CHL1    C914289   3.247   5.614  15.780  0.4523  0.7069 -0.2224
  109CHL1    H914290   3.356   5.617  15.761  0.5785  2.6762  0.5611
  109CHL1   C1014291   3.229   5.574  15.927  0.3733  1.0494  0.0215
  109CHL1   C1914292   3.082   5.532  15.953 -0.1995 -0.2196  0.1589
  109CHL1  H19A14293   3.063   5.430  15.915 -0.2364 -0.0752 -0.2182
  109CHL1  H19B14294   3.053   5.530  16.061 -0.5753  1.0433  0.0975
  109CHL1  H19C14295   3.007   5.597  15.903 -0.2046 -1.6865 -1.8419
  109CHL1    C114296   3.327   5.464  15.966 -0.0553 -0.1775 -0.6043
  109CHL1   H1A14297   3.308   5.374  15.905  2.4055 -3.0249  2.4298
  109CHL1   H1B14298   3.431   5.492  15.939 -0.0554 -0.2321 -0.6593
  109CHL1    C214299   3.337   5.431  16.119  0.1162  0.2654 -0.1850
  109CHL1   H2A14300   3.429   5.369  16.133 -1.2225 -2.1967 -1.6276
  109CHL1   H2B14301   3.245   5.375  16.145  0.4185  0.3624  1.1858
  109CHL1   C2014302   3.125   5.720  15.245 -0.5306  0.5643  0.4282
  109CHL1   H2014303   3.105   5.612  15.260 -1.4806  0.4629 -1.2365
  109CHL1   C2114304   3.236   5.731  15.136  0.5304  0.5932 -0.3183
  109CHL1  H21A14305   3.247   5.837  15.102 -0.8102  0.5093 -1.1055
  109CHL1  H21B14306   3.217   5.669  15.047 -1.6287 -1.6233  1.5326
  109CHL1  H21C14307   3.331   5.699  15.182  0.2087  2.3336  1.7446
  109CHL1   C2214308   3.000   5.788  15.191 -0.4698  0.1532 -1.0755
  109CHL1  H22A14309   2.928   5.795  15.275 -0.5608 -3.0115 -0.7736
  109CHL1  H22B14310   3.022   5.891  15.155 -0.8127  1.8359  3.0432
  109CHL1   C2314311   2.930   5.706  15.078 -0.4531  0.5476  0.1237
  109CHL1  H23A14312   2.835   5.759  15.054 -1.7443 -1.0361  1.5373
  109CHL1  H23B14313   2.992   5.706  14.985 -0.6952 -2.0274 -0.1020
  109CHL1   C2414314   2.887   5.566  15.121  0.2357 -0.2237 -0.0297
  109CHL1  H24A14315   2.961   5.499  15.171 -0.0936 -0.4642  0.1375
  109CHL1  H24B14316   2.803   5.581  15.191  0.6191  1.7769  0.0618
  109CHL1   C2514317   2.808   5.488  15.008  0.0903 -0.5554  0.0532
  109CHL1   H2514318   2.727   5.556  14.973 -0.7196 -0.0556  2.6514
  109CHL1   C2614319   2.896   5.454  14.892 -0.5083  0.3218  0.2061
  109CHL1  H26A14320   2.936   5.544  14.841 -1.5811 -0.4350 -2.1540
  109CHL1  H26B14321   2.970   5.377  14.919 -0.1759  0.8735  0.8961
  109CHL1  H26C14322   2.840   5.399  14.814 -2.4466  1.6760  0.5586
  109CHL1   C2714323   2.751   5.358  15.068  0.5491 -0.4109 -0.3625
  109CHL1  H27A14324   2.724   5.284  14.990 -1.8375 -0.8981  0.8566
  109CHL1  H27B14325   2.829   5.307  15.129  1.5534 -0.7776 -1.8982
  109CHL1  H27C14326   2.666   5.390  15.132  1.0106  0.8490 -0.3513
  110CHL1    C314327   0.751   5.011  16.391 -0.4099  0.1932 -0.8568
  110CHL1    H314328   0.646   4.983  16.417 -0.3145 -0.0826 -0.7588
  110CHL1    O314329   0.834   4.950  16.491 -0.2370 -0.0155  0.2967
  110CHL1   H3'14330   0.916   4.996  16.473 -0.9824  0.6787 -1.4310
  110CHL1    C414331   0.784   4.947  16.267 -0.0942 -0.7984  0.8146
  110CHL1   H4A14332   0.893   4.959  16.246 -0.6163  1.9356 -0.7337
  110CHL1   H4B14333   0.770   4.837  16.266  2.3090 -1.2663 -2.6103
  110CHL1    C514334   0.698   5.018  16.162  0.0380  0.1443 -0.4516
  110CHL1    C614335   0.627   4.952  16.072 -0.4036  0.1154 -1.1496
  110CHL1    H614336   0.631   4.843  16.077  2.9197  0.1815  2.2620
  110CHL1    C714337   0.561   5.016  15.954  0.2379 -0.2735  0.0785
  110CHL1   H7A14338   0.582   4.963  15.859 -0.1354  0.7066 -0.5637
  110CHL1   H7B14339   0.453   4.997  15.974  0.3202  1.7459  3.0473
  110CHL1    C814340   0.593   5.165  15.937 -0.4829  0.3688  0.2624
  110CHL1    H814341   0.694   5.175  15.891 -0.1766 -0.5833  0.7120
  110CHL1   C1414342   0.485   5.235  15.846  0.3294 -0.5712  0.0838
  110CHL1   H1414343   0.392   5.233  15.905  1.2343 -0.3317  1.5653
  110CHL1   C1514344   0.455   5.158  15.714 -0.6344  0.5430 -0.3185
  110CHL1  H15A14345   0.546   5.113  15.668 -1.1292  0.2744 -1.0337
  110CHL1  H15B14346   0.394   5.069  15.739  0.8128 -0.3805  0.1003
  110CHL1   C1614347   0.404   5.270  15.631  0.5662  0.1242 -0.1394
  110CHL1  H16A14348   0.479   5.306  15.558 -0.1284 -0.1093 -0.9913
  110CHL1  H16B14349   0.312   5.238  15.577 -0.0708  0.5299  0.6716
  110CHL1   C1714350   0.384   5.395  15.719 -0.5083  0.4435  0.3050
  110CHL1   H1714351   0.289   5.377  15.774 -0.5145  0.4705  0.3033
  110CHL1   C1314352   0.509   5.379  15.814 -0.3880 -0.2101 -0.5096
  110CHL1   C1814353   0.638   5.405  15.739  0.4531  0.7841  0.0517
  110CHL1  H18A14354   0.642   5.513  15.715 -1.2538  0.5796 -1.3303
  110CHL1  H18B14355   0.718   5.407  15.817 -0.1543  0.8344  0.6862
  110CHL1  H18C14356   0.650   5.328  15.660 -3.1743 -0.6812  0.7777
  110CHL1   C1214357   0.501   5.453  15.959  0.2206 -0.9776  0.2333
  110CHL1  H12A14358   0.523   5.561  15.945  1.0495 -0.9923  1.2659
  110CHL1  H12B14359   0.397   5.438  15.995  0.0163  2.1865  1.2147
  110CHL1   C1114360   0.595   5.392  16.061 -0.4838 -0.0867 -0.4729
  110CHL1  H11A14361   0.692   5.430  16.021 -0.9496  1.9355  0.2136
  110CHL1  H11B14362   0.570   5.435  16.160  3.1750 -1.8301  1.4295
  110CHL1    C914363   0.596   5.234  16.069 -0.3913 -0.5431  1.1765
  110CHL1    H914364   0.496   5.208  16.110 -1.2982  0.3346 -0.3695
  110CHL1   C1014365   0.706   5.178  16.159 -0.3068  0.2793 -0.2413
  110CHL1   C1914366   0.848   5.207  16.096  0.1616  0.0607  0.6038
  110CHL1  H19A14367   0.867   5.158  15.997  3.4053  1.3141  0.4847
  110CHL1  H19B14368   0.859   5.314  16.068 -1.6987 -0.5346 -3.1170
  110CHL1  H19C14369   0.934   5.188  16.164 -0.7155 -2.2632  1.1606
  110CHL1    C114370   0.690   5.237  16.299  0.1165  0.0824 -0.2217
  110CHL1   H1A14371   0.725   5.343  16.299  1.3712 -0.2722  1.8098
  110CHL1   H1B14372   0.581   5.253  16.312 -0.1249  0.5091 -2.4058
  110CHL1    C214373   0.765   5.165  16.408  0.2272 -0.0718 -0.3180
  110CHL1   H2A14374   0.735   5.208  16.505  1.2397  0.3320 -0.1702
  110CHL1   H2B14375   0.873   5.185  16.390  0.3608 -0.3353  0.1734
  110CHL1   C2014376   0.379   5.528  15.629  0.0315  0.1895  0.0199
  110CHL1   H2014377   0.470   5.530  15.565 -1.3068 -0.4537 -1.9828
  110CHL1   C2114378   0.382   5.657  15.717  0.2997  0.2775  0.5897
  110CHL1  H21A14379   0.474   5.669  15.778  0.9048 -0.2861 -0.1858
  110CHL1  H21B14380   0.297   5.649  15.788  0.0356  2.9345  0.6734
  110CHL1  H21C14381   0.368   5.741  15.646  1.8968  1.3451  1.4828
  110CHL1   C2214382   0.265   5.521  15.525 -0.3653 -0.5064 -0.0812
  110CHL1  H22A14383   0.271   5.596  15.443 -1.2635  0.1593  0.4344
  110CHL1  H22B14384   0.273   5.423  15.473  2.4153 -0.8613  0.8417
  110CHL1   C2314385   0.121   5.537  15.588 -0.3251 -0.8840  0.1153
  110CHL1  H23A14386   0.090   5.455  15.656  0.2299 -0.4724  0.8841
  110CHL1  H23B14387   0.120   5.623  15.659 -1.6288 -0.6872 -0.1082
  110CHL1   C2414388   0.011   5.569  15.484 -0.0613  0.2753 -0.4530
  110CHL1  H24A14389   0.028   5.668  15.436 -0.2110 -0.5388 -2.2591
  110CHL1  H24B14390   0.001   5.499  15.398 -2.1673  2.1519 -1.8551
  110CHL1   C2514391  -0.134   5.571  15.551  0.0360  0.1300 -0.2800
  110CHL1   H2514392  -0.157   5.476  15.603 -1.2322  0.2020 -0.6740
  110CHL1   C2614393  -0.143   5.678  15.662  0.1348 -0.0368 -0.3837
  110CHL1  H26A14394  -0.128   5.784  15.633 -1.3116  0.3624  0.1944
  110CHL1  H26B14395  -0.241   5.687  15.714 -0.4815  0.6630 -1.6071
  110CHL1  H26C14396  -0.067   5.662  15.741 -0.4561  0.3844  0.2790
  110CHL1   C2714397  -0.253   5.589  15.448  0.0546 -0.7393 -0.5048
  110CHL1  H27A14398  -0.281   5.492  15.402 -1.7190 -0.1270 -0.7978
  110CHL1  H27B14399  -0.332   5.631  15.513 -0.7257 -0.0647 -1.8445
  110CHL1  H27C14400  -0.225   5.670  15.377 -2.5171  2.3384  1.6944
  111CHL1    C314401   2.041   0.803  16.493  0.0030 -0.2976  0.0557
  111CHL1    H314402   1.956   0.745  16.453  1.2327 -2.8334  0.8700
  111CHL1    O314403   2.063   0.793  16.633  0.2386  0.4478  0.4004
  111CHL1   H3'14404   1.999   0.850  16.676 -0.3203  1.7892 -2.0586
  111CHL1    C414405   2.170   0.765  16.411 -0.3525 -0.2254  0.2546
  111CHL1   H4A14406   2.265   0.805  16.451  0.7213 -2.5093  0.1399
  111CHL1   H4B14407   2.185   0.659  16.439 -0.8517 -0.1384  0.8580
  111CHL1    C514408   2.160   0.793  16.263  0.4885  0.4076  1.0445
  111CHL1    C614409   2.163   0.691  16.174 -0.6793 -0.4293  0.5025
  111CHL1    H614410   2.194   0.591  16.209  1.5563 -0.3743 -1.0855
  111CHL1    C714411   2.131   0.705  16.023  0.2995  0.2197 -0.8769
  111CHL1   H7A14412   2.206   0.649  15.963  0.7454  1.4515 -1.5080
  111CHL1   H7B14413   2.029   0.662  16.012 -1.0944  2.7100  1.1029
  111CHL1    C814414   2.131   0.846  15.973  0.3908 -0.2046 -0.2610
  111CHL1    H814415   2.235   0.880  15.954 -0.4488  0.1605 -6.0847
  111CHL1   C1414416   2.066   0.853  15.831  0.1363  0.0493  0.2838
  111CHL1   H1414417   1.964   0.809  15.841  0.1106 -0.0849 -0.4860
  111CHL1   C1514418   2.135   0.770  15.721  0.2510 -0.2958  0.4397
  111CHL1  H15A14419   2.245   0.779  15.714  0.4331 -2.0590  0.4864
  111CHL1  H15B14420   2.126   0.660  15.728  2.0882 -0.4624  0.6406
  111CHL1   C1614421   2.059   0.831  15.594  0.5106  0.8696  0.4987
  111CHL1  H16A14422   2.146   0.854  15.528 -0.7204  1.8786 -0.8598
  111CHL1  H16B14423   1.996   0.762  15.534  1.5688  1.1283 -0.9662
  111CHL1   C1714424   1.979   0.957  15.640 -0.2675 -0.5722  1.0483
  111CHL1   H1714425   1.879   0.915  15.664 -0.0879 -0.8795  1.2683
  111CHL1   C1314426   2.040   0.995  15.775 -0.6731 -0.8589  0.2016
  111CHL1   C1814427   2.172   1.073  15.740 -0.2367  0.2194  0.0907
  111CHL1  H18A14428   2.141   1.174  15.705  0.0630 -0.1946 -1.4237
  111CHL1  H18B14429   2.251   1.078  15.818  1.5161 -2.1780 -1.3883
  111CHL1  H18C14430   2.221   1.027  15.652 -0.9318  2.2741 -1.4356
  111CHL1   C1214431   1.953   1.068  15.878  0.3084 -0.1857  0.2417
  111CHL1  H12A14432   1.922   1.168  15.841  0.1699 -0.7773 -1.3184
  111CHL1  H12B14433   1.864   1.002  15.890 -0.8051  1.1390 -0.4182
  111CHL1   C1114434   2.020   1.077  16.018 -0.4571 -0.5059 -0.1152
  111CHL1  H11A14435   2.116   1.132  16.004 -0.2965 -0.7656 -0.0262
  111CHL1  H11B14436   1.955   1.132  16.089 -0.6309  0.0944 -0.7257
  111CHL1    C914437   2.047   0.932  16.070 -0.1593  0.1469 -0.6316
  111CHL1    H914438   1.946   0.887  16.083 -0.0379  0.3007  1.2103
  111CHL1   C1014439   2.115   0.930  16.216  0.2028 -0.3745  0.3817
  111CHL1   C1914440   2.244   1.018  16.218  0.7616  0.2373  0.2403
  111CHL1  H19A14441   2.329   0.965  16.169  1.7093  1.7143  0.1863
  111CHL1  H19B14442   2.228   1.122  16.180 -0.7245  0.0545  0.3190
  111CHL1  H19C14443   2.288   1.030  16.319  0.0135 -3.3622  1.1051
  111CHL1    C114444   2.012   0.982  16.319  0.4820  0.1397  0.4736
  111CHL1   H1A14445   2.000   1.092  16.304 -0.0827 -0.1928 -2.0641
  111CHL1   H1B14446   1.913   0.939  16.291  0.3352 -0.1154  1.3778
  111CHL1    C214447   2.027   0.952  16.468 -0.2742 -0.8402 -0.3699
  111CHL1   H2A14448   1.937   0.988  16.521  1.5013  2.4509  0.6769
  111CHL1   H2B14449   2.114   1.008  16.509 -0.5194 -1.3455  0.8647
  111CHL1   C2014450   1.961   1.052  15.526  0.0660 -0.9655 -0.6345
  111CHL1   H2014451   2.058   1.094  15.493 -0.2682  1.7895  1.4962
  111CHL1   C2114452   1.876   1.169  15.579 -0.0471 -0.1380  0.1752
  111CHL1  H21A14453   1.937   1.256  15.609 -0.4380  0.1003  0.2851
  111CHL1  H21B14454   1.811   1.130  15.660 -1.6873  0.0300 -1.0061
  111CHL1  H21C14455   1.812   1.214  15.500  0.4840  1.4108  0.5894
  111CHL1   C2214456   1.891   0.989  15.401  0.3712 -0.6385  0.3619
  111CHL1  H22A14457   1.933   0.889  15.379 -2.2171 -1.4880 -1.1733
  111CHL1  H22B14458   1.780   0.982  15.410  0.0007 -0.5781 -3.0055
  111CHL1   C2314459   1.916   1.065  15.263  0.3756 -0.2376  0.1072
  111CHL1  H23A14460   1.885   1.172  15.269 -3.1073 -1.0051 -1.7840
  111CHL1  H23B14461   2.026   1.058  15.252  0.3189 -0.8487 -0.0612
  111CHL1   C2414462   1.853   0.991  15.149  0.8539 -0.3593 -0.2705
  111CHL1  H24A14463   1.886   0.885  15.148 -4.2678 -2.3173  1.3440
  111CHL1  H24B14464   1.744   0.991  15.172  0.8077 -0.9576 -0.4678
  111CHL1   C2514465   1.884   1.053  15.009  0.3080 -0.7103 -0.3502
  111CHL1   H2514466   1.993   1.069  15.000  0.7987  0.0343  4.1871
  111CHL1   C2614467   1.836   0.964  14.903 -0.2144 -0.3425  0.0326
  111CHL1  H26A14468   1.843   1.021  14.808 -0.9403  2.1789  1.3946
  111CHL1  H26B14469   1.908   0.880  14.899 -0.5779 -0.6511 -0.1316
  111CHL1  H26C14470   1.730   0.937  14.922 -0.6034 -0.5605 -2.1498
  111CHL1   C2714471   1.816   1.191  14.986 -0.4762 -0.0562  0.3481
  111CHL1  H27A14472   1.803   1.202  14.876  0.7314 -2.4105 -0.0933
  111CHL1  H27B14473   1.716   1.213  15.029 -0.5053  0.4253  0.0466
  111CHL1  H27C14474   1.885   1.270  15.022 -0.0123 -0.3010  0.0087
  112CHL1    C314475   3.137   0.462  16.292  0.0469 -0.1404 -0.2179
  112CHL1    H314476   3.239   0.433  16.259  0.0802 -1.5299  0.9909
  112CHL1    O314477   3.144   0.512  16.426 -0.4641  0.6981 -0.0087
  112CHL1   H3'14478   3.065   0.486  16.473 -0.2134 -1.5472 -0.6856
  112CHL1    C414479   3.070   0.568  16.209  0.1615 -0.6346 -0.1323
  112CHL1   H4A14480   2.973   0.587  16.260 -0.9220 -1.5198 -1.7586
  112CHL1   H4B14481   3.122   0.666  16.216 -1.0336 -0.0314  0.6984
  112CHL1    C514482   3.056   0.527  16.063  0.0655  0.6454 -0.2498
  112CHL1    C614483   3.109   0.604  15.959  0.5067 -0.1399 -0.0511
  112CHL1    H614484   3.155   0.700  15.986 -0.2334  0.8120 -1.9891
  112CHL1    C714485   3.103   0.578  15.811  0.0343 -0.0695 -1.1584
  112CHL1   H7A14486   3.081   0.672  15.756  0.2017  0.7117  0.0720
  112CHL1   H7B14487   3.200   0.542  15.772  2.0472  0.6525  2.7125
  112CHL1    C814488   2.995   0.470  15.786 -0.1074  0.4549  0.6303
  112CHL1    H814489   2.893   0.514  15.782  0.6142  2.3802  1.8984
  112CHL1   C1414490   3.024   0.403  15.651  0.2624 -0.6194  0.9020
  112CHL1   H1414491   3.126   0.359  15.658  2.3558  3.1351 -2.0690
  112CHL1   C1514492   3.043   0.503  15.534 -0.1648  0.4205  1.1829
  112CHL1  H15A14493   2.965   0.582  15.526 -1.4284 -0.9375 -1.0686
  112CHL1  H15B14494   3.135   0.564  15.537  1.0811 -1.4166  1.7292
  112CHL1   C1614495   3.036   0.412  15.406  0.1042  0.1670 -0.1593
  112CHL1  H16A14496   2.945   0.458  15.361  1.8877  1.6548 -2.5028
  112CHL1  H16B14497   3.127   0.428  15.344  1.1177  2.4822  1.7928
  112CHL1   C1714498   3.001   0.267  15.464  0.2914  0.1228 -0.0268
  112CHL1   H1714499   3.102   0.224  15.483  0.5980 -0.2284 -2.2236
  112CHL1   C1314500   2.932   0.293  15.605 -0.8027  0.2007 -0.3468
  112CHL1   C1814501   2.790   0.340  15.584  0.3467  0.0044 -0.1818
  112CHL1  H18A14502   2.782   0.432  15.524 -1.7559  0.2415  0.4010
  112CHL1  H18B14503   2.736   0.256  15.535  1.5755 -1.9257  1.5713
  112CHL1  H18C14504   2.748   0.355  15.686  0.6428  0.9302 -0.1852
  112CHL1   C1214505   2.937   0.179  15.710 -0.2252 -0.6540 -0.9479
  112CHL1  H12A14506   2.877   0.089  15.687 -2.1876  0.1793  0.5731
  112CHL1  H12B14507   3.044   0.152  15.698 -0.4248 -1.2888 -1.3378
  112CHL1   C1114508   2.901   0.237  15.857 -0.4622 -0.2184 -0.0423
  112CHL1  H11A14509   2.797   0.275  15.869 -0.5068 -0.7156  1.3186
  112CHL1  H11B14510   2.907   0.151  15.927 -0.7513 -1.3631 -1.3912
  112CHL1    C914511   2.992   0.363  15.895 -0.3833  0.1059  0.0862
  112CHL1    H914512   3.095   0.321  15.890 -0.1633  0.7866 -2.1073
  112CHL1   C1014513   2.977   0.406  16.040 -0.1371  0.1103  0.2345
  112CHL1   C1914514   2.827   0.438  16.071 -0.5352 -0.0076 -0.2289
  112CHL1  H19A14515   2.801   0.482  16.170  1.1605  0.8361 -0.1107
  112CHL1  H19B14516   2.788   0.503  15.990 -1.2345  0.3286  0.3660
  112CHL1  H19C14517   2.773   0.342  16.059 -1.9767  0.9055 -1.3071
  112CHL1    C114518   3.030   0.298  16.136  0.0643  0.6919  0.1196
  112CHL1   H1A14519   2.947   0.225  16.143  0.5940  0.1088  0.5438
  112CHL1   H1B14520   3.112   0.241  16.086 -0.3815  1.4966 -1.6030
  112CHL1    C214521   3.052   0.333  16.283 -0.0685  0.2574 -0.5659
  112CHL1   H2A14522   3.121   0.258  16.327  1.4716  1.4810 -0.7953
  112CHL1   H2B14523   2.954   0.353  16.331  0.6740  0.3379  0.9808
  112CHL1   C2014524   2.945   0.175  15.353  0.1458  0.0539 -0.1597
  112CHL1   H2014525   2.857   0.234  15.321  2.2070  3.2416 -0.4174
  112CHL1   C2114526   2.902   0.045  15.412  0.1307  0.4571  0.1146
  112CHL1  H21A14527   2.988  -0.008  15.458 -1.2243 -0.6079  1.5399
  112CHL1  H21B14528   2.846  -0.011  15.334  0.0859  1.3418 -0.5168
  112CHL1  H21C14529   2.832   0.074  15.494  0.1254 -1.3882  0.8046
  112CHL1   C2214530   3.040   0.153  15.240 -0.1722  0.3649  0.3330
  112CHL1  H22A14531   3.090   0.248  15.213 -0.5981  0.6320  0.4750
  112CHL1  H22B14532   3.117   0.077  15.265 -1.6145 -0.7713  1.5431
  112CHL1   C2314533   2.957   0.112  15.116 -0.4446  0.2930 -0.4835
  112CHL1  H23A14534   2.891   0.023  15.123 -0.0018 -0.0648 -0.7735
  112CHL1  H23B14535   2.884   0.192  15.092 -2.3845 -1.9029 -2.3078
  112CHL1   C2414536   3.056   0.112  14.993 -0.0192  0.2471  1.1460
  112CHL1  H24A14537   2.993   0.126  14.902  0.4063 -1.7132  0.5010
  112CHL1  H24B14538   3.108   0.208  15.012 -0.8009  1.3861 -1.8494
  112CHL1   C2514539   3.151  -0.012  14.976  0.2786  0.0292 -0.1044
  112CHL1   H2514540   3.200  -0.023  15.075 -0.5867  0.8467  0.4379
  112CHL1   C2614541   3.067  -0.141  14.963  0.1482 -0.3719 -0.6622
  112CHL1  H26A14542   3.134  -0.228  14.978  1.1610  0.7303  1.6563
  112CHL1  H26B14543   2.987  -0.144  15.040  0.9526  1.7613  0.3317
  112CHL1  H26C14544   3.018  -0.148  14.863 -2.6054  0.9951  0.4920
  112CHL1   C2714545   3.237   0.025  14.859 -0.0209  0.7924 -0.3307
  112CHL1  H27A14546   3.307  -0.061  14.848 -2.4269 -1.8897  2.9531
  112CHL1  H27B14547   3.180   0.028  14.763 -1.4111 -3.6812  0.0913
  112CHL1  H27C14548   3.282   0.125  14.873  0.2063  0.6597 -0.1125
  113CHL1    C314549   6.938   4.882  16.405  0.5793  0.0305  0.3798
  113CHL1    H314550   6.935   4.917  16.299  0.7655  0.5182  0.5329
  113CHL1    O314551   6.821   4.931  16.471 -0.5400 -0.3348 -0.4890
  113CHL1   H3'14552   6.836   4.921  16.566  0.6910  1.2945 -0.4787
  113CHL1    C414553   6.931   4.734  16.405 -0.1686  0.9787  0.4862
  113CHL1   H4A14554   6.910   4.680  16.500  0.8692 -0.4735 -0.0858
  113CHL1   H4B14555   6.834   4.702  16.363  0.7255 -2.8064  0.9908
  113CHL1    C514556   7.054   4.685  16.320  0.4124  0.2345 -0.4198
  113CHL1    C614557   7.032   4.613  16.210  0.6665 -0.4360  0.0481
  113CHL1    H614558   6.931   4.585  16.177  0.6043  1.2468 -1.3332
  113CHL1    C714559   7.154   4.557  16.142 -1.0077  0.9060 -0.3434
  113CHL1   H7A14560   7.145   4.448  16.121 -0.5278  0.0115  3.4653
  113CHL1   H7B14561   7.161   4.608  16.043 -1.1630  1.1486 -0.2282
  113CHL1    C814562   7.293   4.559  16.215  0.0863  0.5159 -0.4979
  113CHL1    H814563   7.279   4.484  16.295  1.0717 -2.0997 -2.6191
  113CHL1   C1414564   7.414   4.532  16.126  0.5702 -0.1919  0.3927
  113CHL1   H1414565   7.426   4.621  16.061  1.2438  0.3854  1.2939
  113CHL1   C1514566   7.409   4.401  16.042 -0.1240 -0.0822 -0.5533
  113CHL1  H15A14567   7.373   4.322  16.112 -1.7382  1.1835  0.1208
  113CHL1  H15B14568   7.333   4.388  15.962 -0.7211 -0.2132  0.0309
  113CHL1   C1614569   7.562   4.387  16.014  0.4347 -0.1092  0.5947
  113CHL1  H16A14570   7.581   4.277  16.014  1.1687  0.0147  0.4795
  113CHL1  H16B14571   7.583   4.413  15.908 -0.9373 -1.1536  0.0263
  113CHL1   C1714572   7.639   4.470  16.112 -0.9585  0.1357  0.1079
  113CHL1   H1714573   7.681   4.560  16.061  1.6638  1.6619  4.4047
  113CHL1   C1314574   7.539   4.525  16.212 -0.2676 -0.3255 -0.1701
  113CHL1   C1814575   7.521   4.419  16.322 -0.4365  0.0982  0.7348
  113CHL1  H18A14576   7.443   4.442  16.397 -0.5603 -0.9361  0.9372
  113CHL1  H18B14577   7.497   4.321  16.274  0.4529 -0.1001  0.6880
  113CHL1  H18C14578   7.611   4.409  16.386  0.4703  0.0439 -0.5201
  113CHL1   C1214579   7.565   4.662  16.272  0.2602 -0.1024 -0.1796
  113CHL1  H12A14580   7.654   4.650  16.338  0.2105  0.4551 -0.0108
  113CHL1  H12B14581   7.605   4.726  16.191  0.7774 -1.2877 -0.8954
  113CHL1   C1114582   7.453   4.719  16.351 -0.3679 -0.6387 -0.6040
  113CHL1  H11A14583   7.472   4.661  16.444  0.2004  2.5968  1.4638
  113CHL1  H11B14584   7.473   4.822  16.386  0.2250 -0.7074 -0.7297
  113CHL1    C914585   7.314   4.694  16.285 -1.1344  0.5800 -0.0387
  113CHL1    H914586   7.318   4.770  16.204  3.2733  0.8839  0.2403
  113CHL1   C1014587   7.190   4.722  16.378 -0.7123 -0.4162  0.0174
  113CHL1   C1914588   7.201   4.644  16.512 -1.1484  0.2621  0.3289
  113CHL1  H19A14589   7.112   4.658  16.577  0.0502  0.7103  1.9092
  113CHL1  H19B14590   7.233   4.538  16.503  1.1453  0.7924  1.6491
  113CHL1  H19C14591   7.280   4.699  16.567  1.0233 -1.4198 -0.9182
  113CHL1    C114592   7.188   4.876  16.405  0.3917  0.1017  0.1309
  113CHL1   H1A14593   7.280   4.900  16.462 -1.1554  1.5377  2.1372
  113CHL1   H1B14594   7.192   4.925  16.306 -0.3403 -0.9880 -0.4584
  113CHL1    C214595   7.061   4.931  16.479 -0.3637  0.2664 -0.0990
  113CHL1   H2A14596   7.071   5.041  16.484  1.4027  0.0786  1.1327
  113CHL1   H2B14597   7.057   4.877  16.576  0.5929 -0.6229 -0.5252
  113CHL1   C2014598   7.764   4.396  16.161  0.3509 -0.4114  0.3542
  113CHL1   H2014599   7.731   4.310  16.223 -0.4023 -3.1903 -3.5443
  113CHL1   C2114600   7.844   4.490  16.250 -0.2739  0.3775 -0.8256
  113CHL1  H21A14601   7.790   4.503  16.345 -0.3862 -0.1992 -0.8074
  113CHL1  H21B14602   7.849   4.586  16.193  0.1232  0.4187 -0.7245
  113CHL1  H21C14603   7.948   4.456  16.268 -0.4252  0.0891 -0.4967
  113CHL1   C2214604   7.857   4.327  16.053 -0.3527  0.0900 -0.1431
  113CHL1  H22A14605   7.934   4.272  16.110 -1.6806 -1.1946  0.4936
  113CHL1  H22B14606   7.790   4.259  15.996 -0.7976 -0.7337  1.3219
  113CHL1   C2314607   7.914   4.423  15.951 -0.1178 -0.2523 -0.7621
  113CHL1  H23A14608   7.836   4.483  15.899  0.6001  0.1690 -1.3693
  113CHL1  H23B14609   7.959   4.511  16.001  0.2187  0.0673 -1.6001
  113CHL1   C2414610   8.015   4.380  15.837 -0.1935 -0.2324  0.0814
  113CHL1  H24A14611   8.113   4.346  15.876  0.2632  1.3461  0.4129
  113CHL1  H24B14612   7.973   4.298  15.775  0.8002  0.5410 -1.6825
  113CHL1   C2514613   8.054   4.495  15.738 -0.4853  0.2378 -0.0752
  113CHL1   H2514614   7.968   4.543  15.687  0.2919 -0.1958 -1.8512
  113CHL1   C2614615   8.132   4.613  15.808  0.3299 -0.1440 -0.1989
  113CHL1  H26A14616   8.223   4.567  15.852  0.5151 -0.6077 -1.0529
  113CHL1  H26B14617   8.181   4.686  15.741  4.5414 -1.7082  0.8829
  113CHL1  H26C14618   8.066   4.661  15.884 -0.8953 -0.9762 -0.7066
  113CHL1   C2714619   8.124   4.433  15.615 -0.7525  0.4150  0.1858
  113CHL1  H27A14620   8.131   4.515  15.541  1.0300  0.2926  0.1777
  113CHL1  H27B14621   8.228   4.397  15.632 -0.2074  1.3920 -0.9602
  113CHL1  H27C14622   8.062   4.348  15.580 -0.1959  0.0771  0.0123
  114CHL1    C314623   5.050   7.018  16.790  0.0357  0.3192  0.1637
  114CHL1    H314624   5.067   7.125  16.767 -1.4411  0.5452 -0.0312
  114CHL1    O314625   5.030   6.982  16.929  0.1701 -0.5708  0.5794
  114CHL1   H3'14626   5.007   6.889  16.929 -0.4542 -0.4460 -0.8046
  114CHL1    C414627   4.928   6.978  16.711 -0.7754 -0.0536  1.0734
  114CHL1   H4A14628   4.893   6.877  16.740 -0.2391 -1.1470 -1.8003
  114CHL1   H4B14629   4.841   7.040  16.740 -1.0027 -0.5575  1.4703
  114CHL1    C514630   4.964   6.975  16.558 -0.3759  0.6931 -0.6541
  114CHL1    C614631   4.889   7.038  16.462  0.5370 -0.0382 -0.3002
  114CHL1    H614632   4.793   7.088  16.483 -0.6220 -0.6999 -3.4923
  114CHL1    C714633   4.921   7.038  16.317 -0.0568 -0.0552  0.0097
  114CHL1   H7A14634   4.834   7.037  16.248 -1.0783 -0.5168  1.2640
  114CHL1   H7B14635   4.978   7.131  16.294  0.8376  0.3476  3.3469
  114CHL1    C814636   5.016   6.921  16.272 -0.1968 -0.3046  0.2862
  114CHL1    H814637   4.957   6.827  16.283  0.7359 -0.8907  0.4274
  114CHL1   C1414638   5.058   6.941  16.126 -0.0643 -0.7869 -0.4983
  114CHL1   H1414639   5.111   7.037  16.112  2.5026 -1.2998  3.7511
  114CHL1   C1514640   4.950   6.937  16.016  0.3382  0.8823  0.3617
  114CHL1  H15A14641   4.882   6.856  16.048 -0.0861  1.1711  0.1938
  114CHL1  H15B14642   4.894   7.030  15.992 -0.8925 -0.2333 -1.3473
  114CHL1   C1614643   5.026   6.892  15.892 -0.2859 -0.0779  0.3254
  114CHL1  H16A14644   4.990   6.791  15.863  0.9946 -0.1111 -1.2857
  114CHL1  H16B14645   5.015   6.960  15.805  3.0234  0.2148 -0.0007
  114CHL1   C1714646   5.171   6.873  15.934 -0.1441  0.6383  0.0500
  114CHL1   H1714647   5.215   6.973  15.918 -0.6638  0.6875 -1.1626
  114CHL1   C1314648   5.161   6.837  16.085  1.1003  0.0982  0.5085
  114CHL1   C1814649   5.103   6.694  16.099  0.2221  0.6678  0.3517
  114CHL1  H18A14650   5.009   6.677  16.042  0.2629 -2.8922  1.1455
  114CHL1  H18B14651   5.176   6.617  16.065  0.3282  1.8707 -2.4280
  114CHL1  H18C14652   5.089   6.676  16.208  1.5112  0.5894  0.5209
  114CHL1   C1214653   5.289   6.858  16.172 -0.2079 -0.0507 -0.8499
  114CHL1  H12A14654   5.358   6.772  16.160  0.0388  0.0251 -0.0716
  114CHL1  H12B14655   5.344   6.953  16.153  1.2660 -0.6514  0.2400
  114CHL1   C1114656   5.255   6.839  16.323  0.5073 -0.0183 -0.3091
  114CHL1  H11A14657   5.245   6.731  16.345 -1.4691  0.1503 -0.2359
  114CHL1  H11B14658   5.340   6.885  16.379 -0.8909 -0.6521  2.5354
  114CHL1    C914659   5.133   6.922  16.367 -0.5515  0.1273  0.4777
  114CHL1    H914660   5.182   7.021  16.362 -0.1032 -0.1547 -1.3887
  114CHL1   C1014661   5.084   6.902  16.514 -0.4689 -0.0598 -0.5832
  114CHL1   C1914662   5.051   6.747  16.526 -0.8964  0.3423  0.5196
  114CHL1  H19A14663   5.140   6.682  16.510 -3.0687 -2.7247  0.0570
  114CHL1  H19B14664   5.006   6.727  16.626  0.0309  0.7666  1.0417
  114CHL1  H19C14665   4.966   6.728  16.457  0.2102 -1.0308 -0.5282
  114CHL1    C114666   5.203   6.945  16.602  0.3974 -0.0712  0.1349
  114CHL1   H1A14667   5.301   6.899  16.579 -0.9912 -2.8145 -0.7846
  114CHL1   H1B14668   5.221   7.052  16.576 -2.0527 -0.0794 -2.1395
  114CHL1    C214669   5.177   6.945  16.749 -0.5963 -0.4052 -0.3206
  114CHL1   H2A14670   5.261   6.988  16.808  0.2635 -0.7549 -1.2600
  114CHL1   H2B14671   5.178   6.843  16.793  2.3326 -0.4616 -0.3355
  114CHL1   C2014672   5.264   6.784  15.840 -0.2122 -0.0150  0.3655
  114CHL1   H2014673   5.231   6.678  15.849 -1.0784  0.0713 -1.3798
  114CHL1   C2114674   5.405   6.792  15.890 -0.1929  0.6946  0.1958
  114CHL1  H21A14675   5.423   6.705  15.958  0.6884 -0.7431 -1.7564
  114CHL1  H21B14676   5.424   6.885  15.947  2.1182  2.0649 -2.5390
  114CHL1  H21C14677   5.481   6.795  15.809 -0.3885  1.1251  0.0297
  114CHL1   C2214678   5.254   6.824  15.690  0.5433 -0.4988  0.2114
  114CHL1  H22A14679   5.317   6.758  15.627 -3.6877  0.6284 -6.0916
  114CHL1  H22B14680   5.154   6.800  15.650 -0.7820  1.2982  2.2059
  114CHL1   C2314681   5.301   6.960  15.654  0.5062 -0.0438  0.4283
  114CHL1  H23A14682   5.245   7.034  15.714 -0.9932 -0.6213 -0.2079
  114CHL1  H23B14683   5.406   6.985  15.680  0.5809  1.0069 -0.8017
  114CHL1   C2414684   5.298   6.973  15.497 -0.0690 -0.1972  0.1629
  114CHL1  H24A14685   5.372   6.897  15.467 -0.6925 -0.7531  0.0113
  114CHL1  H24B14686   5.197   6.954  15.455  0.7551  3.0648 -3.9612
  114CHL1   C2514687   5.348   7.108  15.438  0.0516 -0.3331  0.2454
  114CHL1   H2514688   5.456   7.121  15.460  0.1715 -2.1648  0.9415
  114CHL1   C2614689   5.323   7.090  15.291 -0.8279  0.1055  0.2423
  114CHL1  H26A14690   5.394   7.023  15.237 -0.9822  0.8171 -0.8637
  114CHL1  H26B14691   5.228   7.037  15.268 -0.8385  0.1461  0.1943
  114CHL1  H26C14692   5.333   7.189  15.243  2.4547  0.2882  1.0304
  114CHL1   C2714693   5.265   7.226  15.499  0.5896 -0.8312 -0.6815
  114CHL1  H27A14694   5.157   7.200  15.496  0.5956 -0.9320 -0.1179
  114CHL1  H27B14695   5.312   7.250  15.597  1.8728  0.5012 -1.5753
  114CHL1  H27C14696   5.273   7.317  15.435 -1.0653  0.0377  0.2793
  115CHL1    C314697   1.286   0.482  16.775  0.4424 -0.1329 -0.5594
  115CHL1    H314698   1.185   0.450  16.741  0.4883 -0.8942 -0.0201
  115CHL1    O314699   1.297   0.449  16.915 -0.3296 -0.3034  0.1218
  115CHL1   H3'14700   1.393   0.456  16.926 -0.0102 -1.0658 -1.6979
  115CHL1    C414701   1.391   0.391  16.705 -0.0818 -0.0732  0.1662
  115CHL1   H4A14702   1.485   0.414  16.760 -0.7599  0.8267  0.9884
  115CHL1   H4B14703   1.361   0.290  16.740 -0.2212  0.3800  1.4350
  115CHL1    C514704   1.410   0.418  16.560  0.0370  0.1850  0.0148
  115CHL1    C614705   1.385   0.320  16.471  0.4109  0.6844  0.2126
  115CHL1    H614706   1.359   0.217  16.501  1.1171  0.3350 -0.3445
  115CHL1    C714707   1.406   0.339  16.325  0.3654  0.2111 -0.8422
  115CHL1   H7A14708   1.466   0.254  16.285  0.1437  0.7898 -2.4564
  115CHL1   H7B14709   1.303   0.339  16.285 -0.3534  1.7592  0.8812
  115CHL1    C814710   1.476   0.469  16.289  0.1015 -0.0312  0.3269
  115CHL1    H814711   1.581   0.458  16.323  0.7845  1.2096 -1.2373
  115CHL1   C1414712   1.458   0.496  16.140 -0.8935 -0.5623  0.0391
  115CHL1   H1414713   1.348   0.500  16.126 -0.7716 -0.7191 -1.0542
  115CHL1   C1514714   1.502   0.399  16.034  0.3586 -0.0220 -0.4734
  115CHL1  H15A14715   1.609   0.370  16.043  0.0311 -1.4727 -1.0657
  115CHL1  H15B14716   1.444   0.305  16.036  0.1418  0.1232  0.2810
  115CHL1   C1614717   1.494   0.482  15.905  0.0082  0.3644  0.6076
  115CHL1  H16A14718   1.587   0.462  15.848 -0.9783  0.9491 -1.2976
  115CHL1  H16B14719   1.414   0.452  15.834  1.4424 -1.3217 -0.3912
  115CHL1   C1714720   1.477   0.628  15.938 -0.0898 -0.0369  0.7336
  115CHL1   H1714721   1.370   0.653  15.928 -0.1169 -0.3480  0.2633
  115CHL1   C1314722   1.507   0.634  16.088  0.4010  0.0159 -0.4842
  115CHL1   C1814723   1.660   0.639  16.101  0.5139  0.5827 -0.5313
  115CHL1  H18A14724   1.690   0.745  16.093 -0.9931  1.0145 -0.8867
  115CHL1  H18B14725   1.695   0.611  16.203  1.0124  0.5128 -0.7200
  115CHL1  H18C14726   1.718   0.580  16.027  3.0235 -1.6364  2.8922
  115CHL1   C1214727   1.432   0.748  16.166 -0.5100  0.0748  0.1596
  115CHL1  H12A14728   1.471   0.851  16.155 -1.5167  0.2213 -2.8003
  115CHL1  H12B14729   1.326   0.737  16.135 -0.7868  2.7160 -0.0810
  115CHL1   C1114730   1.458   0.723  16.319 -0.3221 -0.2536 -0.0048
  115CHL1  H11A14731   1.565   0.742  16.342  0.1348 -0.9590 -1.4300
  115CHL1  H11B14732   1.392   0.795  16.371 -0.5869 -0.8190  0.4608
  115CHL1    C914733   1.415   0.585  16.369 -0.2133 -0.0258  0.3725
  115CHL1    H914734   1.304   0.587  16.365 -0.1897  2.4921 -0.6862
  115CHL1   C1014735   1.440   0.564  16.524  0.3521 -0.1901  0.2465
  115CHL1   C1914736   1.584   0.601  16.567  0.4880  0.1757  0.3105
  115CHL1  H19A14737   1.662   0.542  16.514  0.4209 -1.5640  2.0408
  115CHL1  H19B14738   1.606   0.704  16.533  1.2960 -0.1024 -0.0385
  115CHL1  H19C14739   1.599   0.593  16.676 -1.1360 -0.7395  0.4981
  115CHL1    C114740   1.336   0.652  16.599  0.4250 -0.5011 -0.5477
  115CHL1   H1A14741   1.356   0.761  16.588 -2.5209  0.4486  1.9894
  115CHL1   H1B14742   1.235   0.622  16.564  0.2493  0.5600 -0.9819
  115CHL1    C214743   1.327   0.627  16.749  0.3273  0.6890 -0.0841
  115CHL1   H2A14744   1.250   0.689  16.800  0.0546 -0.6415  1.1883
  115CHL1   H2B14745   1.427   0.647  16.794  0.6873  0.3147 -0.7007
  115CHL1   C2014746   1.554   0.716  15.836 -0.4097 -0.4889  0.0640
  115CHL1   H2014747   1.657   0.675  15.826  0.5931  1.6294  1.1159
  115CHL1   C2114748   1.559   0.860  15.882 -1.0248  1.4261  0.0383
  115CHL1  H21A14749   1.454   0.887  15.906 -1.8312  0.2037 -1.8652
  115CHL1  H21B14750   1.612   0.925  15.808  0.4892 -1.2781 -1.4139
  115CHL1  H21C14751   1.601   0.884  15.982 -0.7865 -0.5900  0.4636
  115CHL1   C2214752   1.506   0.695  15.684 -0.2996 -0.3702 -0.1326
  115CHL1  H22A14753   1.519   0.585  15.671  0.5701 -0.5313  1.7111
  115CHL1  H22B14754   1.402   0.732  15.668  0.3653  2.2128  1.0309
  115CHL1   C2314755   1.605   0.759  15.586 -0.0821  0.4171  0.4256
  115CHL1  H23A14756   1.609   0.869  15.598  0.1589  0.6355 -1.3848
  115CHL1  H23B14757   1.710   0.731  15.609 -0.1307  1.3414  1.9404
  115CHL1   C2414758   1.568   0.733  15.443  0.4743  0.2413  0.1104
  115CHL1  H24A14759   1.507   0.641  15.435  0.4608  0.3879 -1.6818
  115CHL1  H24B14760   1.499   0.807  15.397 -1.6459 -0.8677  1.3709
  115CHL1   C2514761   1.682   0.702  15.353 -0.0379  0.4991 -0.1726
  115CHL1   H2514762   1.758   0.783  15.352  0.2202  0.2717 -2.2085
  115CHL1   C2614763   1.744   0.560  15.384  0.1371  0.0690  0.5737
  115CHL1  H26A14764   1.738   0.529  15.491  1.3712  0.8888  0.8990
  115CHL1  H26B14765   1.684   0.490  15.322 -0.6167  2.2679 -1.3264
  115CHL1  H26C14766   1.848   0.562  15.347  0.6537 -0.5146  1.9199
  115CHL1   C2714767   1.633   0.691  15.209 -0.4526 -0.3345 -0.5823
  115CHL1  H27A14768   1.720   0.680  15.141  0.1067 -0.0220  0.0614
  115CHL1  H27B14769   1.564   0.604  15.219  1.8359 -2.1410  0.5845
  115CHL1  H27C14770   1.577   0.783  15.183 -2.3197 -0.1378  3.3518
  116CHL1    C314771   2.532   0.467  16.397 -0.0048  0.4527 -0.0049
  116CHL1    H314772   2.626   0.497  16.345  0.4285 -1.1452 -0.2238
  116CHL1    O314773   2.490   0.527  16.519  0.2477 -0.5231  0.0614
  116CHL1   H3'14774   2.411   0.487  16.555  0.9162 -0.7495  1.3527
  116CHL1    C414775   2.417   0.486  16.299 -0.5492 -0.4583 -0.0336
  116CHL1   H4A14776   2.320   0.454  16.343 -0.4695 -0.0605  0.4319
  116CHL1   H4B14777   2.393   0.595  16.293 -1.8318 -0.6758  0.8354
  116CHL1    C514778   2.443   0.412  16.173 -0.2324 -0.2560  0.2652
  116CHL1    C614779   2.451   0.485  16.058 -0.3820  0.5623  0.1174
  116CHL1    H614780   2.434   0.594  16.059  0.2540  0.6605  0.7550
  116CHL1    C714781   2.464   0.421  15.923  0.5055  0.2472 -0.3438
  116CHL1   H7A14782   2.395   0.473  15.853 -0.5948  1.4685  1.5564
  116CHL1   H7B14783   2.564   0.409  15.875  0.1790 -1.4203 -0.6771
  116CHL1    C814784   2.426   0.266  15.929  0.3985  0.1582  0.3518
  116CHL1    H814785   2.316   0.262  15.945  0.4807  0.0804  0.9123
  116CHL1   C1414786   2.470   0.192  15.804 -0.6671  0.3790  0.8250
  116CHL1   H1414787   2.580   0.200  15.794 -0.7284 -1.0545 -2.3235
  116CHL1   C1514788   2.422   0.240  15.670  0.0710  0.6795 -0.1615
  116CHL1  H15A14789   2.319   0.282  15.672  0.0198  0.5295  0.9799
  116CHL1  H15B14790   2.489   0.318  15.626  0.5620  1.7382  2.3208
  116CHL1   C1614791   2.415   0.119  15.576 -0.0303  0.1610 -0.9271
  116CHL1  H16A14792   2.314   0.096  15.537 -0.9813 -1.6175  2.1812
  116CHL1  H16B14793   2.480   0.143  15.489 -0.3190  1.1509 -0.8811
  116CHL1   C1714794   2.463  -0.008  15.659  0.4190  0.2667 -0.3217
  116CHL1   H1714795   2.573  -0.010  15.650  0.2874 -1.1796 -2.3357
  116CHL1   C1314796   2.431   0.038  15.805  0.7750 -0.0949  0.0706
  116CHL1   C1814797   2.270   0.023  15.827  0.2466  0.5320  0.2016
  116CHL1  H18A14798   2.255  -0.082  15.859 -0.1484  1.0236  1.7321
  116CHL1  H18B14799   2.233   0.076  15.917  0.6386 -2.9178  2.6118
  116CHL1  H18C14800   2.207   0.056  15.742 -2.0819 -2.1166  0.7533
  116CHL1   C1214801   2.506  -0.036  15.918  0.6955  0.6822  0.0964
  116CHL1  H12A14802   2.476  -0.141  15.937  2.0270  0.0654 -1.1259
  116CHL1  H12B14803   2.616  -0.036  15.903  0.7777 -2.0503  0.1775
  116CHL1   C1114804   2.487   0.045  16.053 -0.1631 -0.2146  0.6210
  116CHL1  H11A14805   2.378   0.026  16.070 -0.4691 -1.6955 -2.3753
  116CHL1  H11B14806   2.554   0.006  16.132  2.1809 -2.8804 -2.4377
  116CHL1    C914807   2.495   0.200  16.054  0.4050  0.4999 -0.0926
  116CHL1    H914808   2.604   0.222  16.046  0.4753  1.7229  2.8551
  116CHL1   C1014809   2.454   0.266  16.188 -0.4427  0.3187  0.0288
  116CHL1   C1914810   2.326   0.200  16.236 -0.1646 -0.3656 -0.3687
  116CHL1  H19A14811   2.248   0.176  16.160  0.5045 -1.6793 -0.6771
  116CHL1  H19B14812   2.369   0.106  16.278  1.8106  0.9551  0.7155
  116CHL1  H19C14813   2.282   0.248  16.326  0.7004  1.6284 -0.9548
  116CHL1    C114814   2.567   0.235  16.298 -0.0882 -0.5971 -0.0821
  116CHL1   H1A14815   2.562   0.127  16.323 -1.2906 -0.2399  1.3386
  116CHL1   H1B14816   2.669   0.267  16.265 -0.2246  0.8534  0.8314
  116CHL1    C214817   2.551   0.314  16.432  0.1478 -0.4050  0.1388
  116CHL1   H2A14818   2.638   0.293  16.498 -0.7228 -1.9184  0.8524
  116CHL1   H2B14819   2.460   0.272  16.480  0.6310 -0.8350  0.6922
  116CHL1   C2014820   2.399  -0.129  15.593  0.0189  0.0253  0.3043
  116CHL1   H2014821   2.292  -0.101  15.580  0.7705  4.0869  1.3961
  116CHL1   C2114822   2.409  -0.251  15.682  0.6858  0.0201 -0.2413
  116CHL1  H21A14823   2.354  -0.338  15.640 -0.2836  1.6807 -2.6772
  116CHL1  H21B14824   2.356  -0.231  15.777  0.1459 -0.2961 -0.4674
  116CHL1  H21C14825   2.512  -0.278  15.713  0.5817  0.9529  0.9754
  116CHL1   C2214826   2.450  -0.153  15.452  0.0357  0.6345  0.2413
  116CHL1  H22A14827   2.403  -0.246  15.415  0.3728  1.1976 -1.7311
  116CHL1  H22B14828   2.409  -0.067  15.394  0.1124  0.4884 -0.0338
  116CHL1   C2314829   2.599  -0.180  15.425  0.0889 -0.3737  0.3797
  116CHL1  H23A14830   2.655  -0.086  15.445  0.3062 -0.3656 -0.2548
  116CHL1  H23B14831   2.640  -0.259  15.493  0.3134 -1.1768 -0.6622
  116CHL1   C2414832   2.635  -0.219  15.278  1.1773 -0.2380 -0.1810
  116CHL1  H24A14833   2.619  -0.131  15.213  0.4926  0.6455  1.1355
  116CHL1  H24B14834   2.744  -0.239  15.270  1.2284  0.1368 -0.4415
  116CHL1   C2514835   2.561  -0.337  15.219  0.2279  0.0688 -0.9495
  116CHL1   H2514836   2.455  -0.305  15.220  0.1909 -0.0198  0.5069
  116CHL1   C2614837   2.597  -0.370  15.076  0.0318  0.3872 -0.5959
  116CHL1  H26A14838   2.563  -0.297  14.999 -0.4676  0.2751 -0.4820
  116CHL1  H26B14839   2.707  -0.382  15.066  0.0912 -1.7708  1.8125
  116CHL1  H26C14840   2.555  -0.471  15.054  1.3660 -0.0090 -1.4606
  116CHL1   C2714841   2.570  -0.466  15.306  0.1782  0.1342  0.4630
  116CHL1  H27A14842   2.525  -0.550  15.249 -0.3429 -0.0052  1.0719
  116CHL1  H27B14843   2.679  -0.480  15.324  0.2902 -2.2371 -1.4896
  116CHL1  H27C14844   2.513  -0.451  15.400  0.6041 -1.7202  1.0397
  117CHL1    C314845   5.213   7.440  16.584  0.7658 -0.1090 -0.0323
  117CHL1    H314846   5.318   7.475  16.569  0.8076  0.8505  2.0906
  117CHL1    O314847   5.212   7.400  16.724 -0.0725  0.1471  0.0224
  117CHL1   H3'14848   5.119   7.400  16.746 -0.0564 -0.7758  0.1222
  117CHL1    C414849   5.121   7.558  16.558 -0.5939 -0.3827 -0.8026
  117CHL1   H4A14850   5.018   7.527  16.582 -0.2216  0.0803  1.6176
  117CHL1   H4B14851   5.138   7.638  16.634  1.1216 -0.2476 -1.2617
  117CHL1    C514852   5.137   7.601  16.419 -0.6898  0.1748 -0.1218
  117CHL1    C614853   5.190   7.717  16.390 -0.2325 -0.2617  0.1376
  117CHL1    H614854   5.215   7.777  16.478  0.1902 -1.8037  1.0969
  117CHL1    C714855   5.189   7.770  16.252 -0.3019  0.2182 -0.7803
  117CHL1   H7A14856   5.150   7.874  16.254  3.0725  1.7031 -2.7688
  117CHL1   H7B14857   5.295   7.777  16.219 -0.2875  3.0788 -0.4078
  117CHL1    C814858   5.102   7.691  16.153 -0.2164  0.1313 -0.5661
  117CHL1    H814859   4.996   7.720  16.170  0.3966  2.7537 -0.7405
  117CHL1   C1414860   5.141   7.723  16.009  0.2552 -0.3043 -0.0656
  117CHL1   H1414861   5.251   7.707  16.004  0.5311  1.4942 -0.4715
  117CHL1   C1514862   5.140   7.875  15.974 -0.1964  0.0137 -0.1736
  117CHL1  H15A14863   5.042   7.917  16.005  0.6781  1.2829  0.9634
  117CHL1  H15B14864   5.221   7.936  16.019 -0.3023 -0.3691  0.5501
  117CHL1   C1614865   5.139   7.877  15.818 -0.1379  0.2121  0.0822
  117CHL1  H16A14866   5.050   7.926  15.774  0.0135  0.9458  0.5847
  117CHL1  H16B14867   5.229   7.933  15.787  0.5857 -0.6384  0.6034
  117CHL1   C1714868   5.134   7.727  15.771 -0.4781 -0.3737 -0.3857
  117CHL1   H1714869   5.240   7.692  15.771 -0.2451  0.2673  0.8131
  117CHL1   C1314870   5.067   7.655  15.893  0.0634  0.6124 -0.1068
  117CHL1   C1814871   4.917   7.687  15.900  0.2535 -0.6120 -0.0876
  117CHL1  H18A14872   4.870   7.643  15.991 -3.8073  1.4546 -0.9651
  117CHL1  H18B14873   4.889   7.794  15.903  1.8224 -0.1573 -0.4166
  117CHL1  H18C14874   4.862   7.651  15.811 -0.5662  0.9357 -0.2306
  117CHL1   C1214875   5.090   7.503  15.911 -0.8312 -0.1138 -0.1395
  117CHL1  H12A14876   5.041   7.432  15.841 -0.4766 -0.9091  0.3960
  117CHL1  H12B14877   5.199   7.483  15.899  0.5601  2.4703  4.9852
  117CHL1   C1114878   5.056   7.458  16.053  0.1403 -0.3837 -0.7145
  117CHL1  H11A14879   4.946   7.456  16.069  0.3874  0.3053  1.4606
  117CHL1  H11B14880   5.086   7.353  16.072  1.0474 -0.0422 -0.2097
  117CHL1    C914881   5.123   7.545  16.170 -0.3319 -0.1174  0.0385
  117CHL1    H914882   5.229   7.525  16.146 -1.0551 -2.9575 -1.1024
  117CHL1   C1014883   5.097   7.491  16.316  0.2641  0.0213 -0.4510
  117CHL1   C1914884   4.948   7.462  16.328  0.0297  0.0477  1.0097
  117CHL1  H19A14885   4.920   7.382  16.256  3.0253 -3.0801  2.9848
  117CHL1  H19B14886   4.926   7.425  16.430 -0.8972 -2.6276 -0.0662
  117CHL1  H19C14887   4.880   7.549  16.317 -1.0157 -0.8700 -0.0514
  117CHL1    C114888   5.175   7.366  16.348 -1.0995  0.1202 -0.6122
  117CHL1   H1A14889   5.138   7.284  16.284 -0.2590  0.9379 -2.2115
  117CHL1   H1B14890   5.278   7.385  16.312 -0.3626 -1.7978  0.3550
  117CHL1    C214891   5.176   7.321  16.492  0.4246  0.1376 -0.3100
  117CHL1   H2A14892   5.247   7.237  16.508 -2.1268 -2.1100  0.0312
  117CHL1   H2B14893   5.075   7.281  16.515  0.4912  0.1393 -0.0003
  117CHL1   C2014894   5.081   7.703  15.629  0.2408 -0.4357 -0.2654
  117CHL1   H2014895   4.970   7.705  15.631  0.2410 -0.9340  0.3229
  117CHL1   C2114896   5.125   7.559  15.580 -0.8765 -0.4864 -0.0040
  117CHL1  H21A14897   5.086   7.547  15.477  0.2892 -4.0312 -0.1530
  117CHL1  H21B14898   5.086   7.464  15.624 -0.7818 -1.0013 -1.0122
  117CHL1  H21C14899   5.236   7.558  15.581 -0.8310  1.2019  1.3113
  117CHL1   C2214900   5.122   7.808  15.524 -0.1871  0.0300  0.9668
  117CHL1  H22A14901   5.072   7.793  15.426  1.2854 -1.3538  0.3764
  117CHL1  H22B14902   5.087   7.906  15.561  0.5119  1.1557 -1.1961
  117CHL1   C2314903   5.276   7.822  15.499  0.3470 -0.6206 -0.3567
  117CHL1  H23A14904   5.322   7.821  15.601 -1.6725 -0.8395  0.5912
  117CHL1  H23B14905   5.316   7.731  15.450 -0.8906 -2.8759  2.5340
  117CHL1   C2414906   5.297   7.959  15.425  0.1897  0.1276 -0.8606
  117CHL1  H24A14907   5.210   7.962  15.356 -1.6295 -0.7791  1.2511
  117CHL1  H24B14908   5.276   8.038  15.500 -4.4165 -1.3276 -0.2773
  117CHL1   C2514909   5.433   7.965  15.363  0.8695 -0.5295  0.5492
  117CHL1   H2514910   5.505   7.934  15.442  1.5957  0.5742  0.3466
  117CHL1   C2614911   5.462   7.887  15.239 -0.6569 -0.2260 -0.6050
  117CHL1  H26A14912   5.540   7.929  15.172 -1.3969  1.6362 -0.3441
  117CHL1  H26B14913   5.495   7.782  15.256  1.4716  0.5797  0.6888
  117CHL1  H26C14914   5.365   7.884  15.185 -1.1743  0.9210  0.2260
  117CHL1   C2714915   5.458   8.111  15.324 -0.8208  0.1257 -0.0563
  117CHL1  H27A14916   5.399   8.143  15.235  1.9362 -1.2441 -2.5768
  117CHL1  H27B14917   5.424   8.179  15.405  2.4878 -0.9234  2.4609
  117CHL1  H27C14918   5.567   8.130  15.312 -0.3998 -1.2160  1.4209
  118CHL1    C314919   6.478   1.389  16.518 -0.3540 -0.7276  0.5484
  118CHL1    H314920   6.486   1.281  16.543  2.2974 -0.7984 -0.3235
  118CHL1    O314921   6.439   1.461  16.631  0.6693 -0.0614  0.0798
  118CHL1   H3'14922   6.444   1.554  16.611 -2.2650  0.5654  1.7399
  118CHL1    C414923   6.614   1.438  16.462  0.4644 -0.2788 -0.2773
  118CHL1   H4A14924   6.617   1.545  16.434 -0.8259 -0.4152 -0.9685
  118CHL1   H4B14925   6.695   1.431  16.538  2.9774 -0.6075 -2.8285
  118CHL1    C514926   6.653   1.356  16.343  0.2274 -0.7446  0.2954
  118CHL1    C614927   6.768   1.286  16.339 -0.0248 -0.4226  0.3900
  118CHL1    H614928   6.840   1.286  16.423  2.2811  1.9630 -1.4671
  118CHL1    C714929   6.822   1.209  16.222 -0.3158  0.1400 -0.0186
  118CHL1   H7A14930   6.932   1.220  16.218 -0.2074 -0.9615 -0.3238
  118CHL1   H7B14931   6.806   1.101  16.244 -0.0633  0.0304 -0.3820
  118CHL1    C814932   6.746   1.249  16.091  0.3659  0.5486 -0.8124
  118CHL1    H814933   6.786   1.348  16.063  0.5714  0.9549  0.8106
  118CHL1   C1414934   6.777   1.148  15.985 -0.2859 -0.6257 -0.6912
  118CHL1   H1414935   6.735   1.055  16.029 -1.0391  0.0121 -0.0389
  118CHL1   C1514936   6.935   1.135  15.950  0.4075 -0.0521 -0.0340
  118CHL1  H15A14937   6.976   1.238  15.956 -2.4180  1.2978 -1.7391
  118CHL1  H15B14938   7.000   1.087  16.026  1.0145  0.0856 -0.4675
  118CHL1   C1614939   6.927   1.077  15.806  0.6029 -0.5264 -0.4143
  118CHL1  H16A14940   6.988   1.151  15.749  0.0979 -0.4967 -0.9221
  118CHL1  H16B14941   6.970   0.975  15.799 -1.4872 -1.5636  0.9269
  118CHL1   C1714942   6.784   1.073  15.759  0.2973  0.2547  0.0368
  118CHL1   H1714943   6.734   0.979  15.790 -1.1590  0.7189 -0.8247
  118CHL1   C1314944   6.714   1.176  15.850  0.3541  0.2061  0.3612
  118CHL1   C1814945   6.745   1.316  15.798 -0.0952 -0.3176  0.4142
  118CHL1  H18A14946   6.722   1.392  15.876 -1.8024  1.4193 -1.6573
  118CHL1  H18B14947   6.854   1.328  15.781 -0.5074  2.3803 -0.9242
  118CHL1  H18C14948   6.680   1.343  15.712  0.0213 -0.9949  0.1082
  118CHL1   C1214949   6.559   1.161  15.882 -0.0956  0.6267 -0.8770
  118CHL1  H12A14950   6.489   1.174  15.797 -2.2650 -1.3244  0.4990
  118CHL1  H12B14951   6.542   1.055  15.910 -1.0210  0.7627 -0.8895
  118CHL1   C1114952   6.506   1.254  15.999 -0.0656 -0.1574 -0.1638
  118CHL1  H11A14953   6.490   1.351  15.948  1.2079  0.0603 -0.1896
  118CHL1  H11B14954   6.402   1.221  16.021 -0.6844  2.5100  1.2759
  118CHL1    C914955   6.599   1.255  16.128 -0.5575 -0.0236 -0.3052
  118CHL1    H914956   6.570   1.160  16.176 -1.4333  0.7347  0.7165
  118CHL1   C1014957   6.554   1.353  16.232  0.5868 -0.1933 -1.0301
  118CHL1   C1914958   6.548   1.490  16.166  0.4361 -0.5823  0.4512
  118CHL1  H19A14959   6.507   1.567  16.234 -0.8686 -0.6142 -0.2712
  118CHL1  H19B14960   6.641   1.514  16.110  1.1440 -4.2392 -0.1616
  118CHL1  H19C14961   6.469   1.505  16.088  0.5852  2.3304  0.7490
  118CHL1    C114962   6.413   1.313  16.290  0.7088  0.2116 -0.1776
  118CHL1   H1A14963   6.335   1.325  16.212 -2.4567 -0.0506  2.7358
  118CHL1   H1B14964   6.420   1.209  16.329  2.8134 -0.2624 -1.5897
  118CHL1    C214965   6.366   1.406  16.410 -0.1528  0.2300 -0.2126
  118CHL1   H2A14966   6.270   1.363  16.447 -1.5805  2.0109 -1.7148
  118CHL1   H2B14967   6.348   1.511  16.379 -0.5719  0.9577  2.2680
  118CHL1   C2014968   6.769   1.084  15.605 -0.1127  0.2619  0.3527
  118CHL1   H2014969   6.665   1.123  15.601  0.0221  0.7804  1.4598
  118CHL1   C2114970   6.773   0.941  15.556  0.4971  0.4253  0.4426
  118CHL1  H21A14971   6.768   0.931  15.445 -0.5555  0.2997  0.4978
  118CHL1  H21B14972   6.683   0.884  15.586  1.1790 -2.3300 -2.1461
  118CHL1  H21C14973   6.863   0.887  15.593 -0.0722 -0.5449  0.4586
  118CHL1   C2214974   6.873   1.163  15.517  0.6785 -0.3857 -0.2822
  118CHL1  H22A14975   6.886   1.262  15.566 -1.0876 -0.8265  1.1820
  118CHL1  H22B14976   6.968   1.109  15.532  1.8154  1.5784 -0.0839
  118CHL1   C2314977   6.844   1.190  15.367  0.5445 -0.0862 -0.1382
  118CHL1  H23A14978   6.817   1.091  15.326 -0.5218 -0.4894  1.4851
  118CHL1  H23B14979   6.767   1.270  15.358  0.6886  0.3830  2.1639
  118CHL1   C2414980   6.974   1.237  15.299  0.0147  0.0511  0.7321
  118CHL1  H24A14981   7.015   1.329  15.346  1.5609  0.1836 -0.7983
  118CHL1  H24B14982   7.044   1.157  15.332 -1.7278 -1.1790  1.6571
  118CHL1   C2514983   6.977   1.261  15.145 -0.2089  0.1940  0.2072
  118CHL1   H2514984   6.928   1.178  15.090  0.7052 -0.0390 -0.2799
  118CHL1   C2614985   6.896   1.384  15.115  0.6740 -0.6884 -0.1375
  118CHL1  H26A14986   6.917   1.415  15.010  0.7004  1.3852  0.4376
  118CHL1  H26B14987   6.788   1.372  15.135  0.2675 -1.6128 -2.5034
  118CHL1  H26C14988   6.934   1.468  15.177 -3.2351 -0.0555  1.6572
  118CHL1   C2714989   7.123   1.271  15.097 -0.2702  0.5253  1.0782
  118CHL1  H27A14990   7.140   1.280  14.987  1.5645 -0.9358  1.2020
  118CHL1  H27B14991   7.176   1.360  15.136 -1.9193  1.3954  1.4416
  118CHL1  H27C14992   7.180   1.182  15.130 -0.5466 -0.3119 -0.5591
  119CHL1    C314993   1.723   7.511  16.465  0.5972 -0.0230 -0.4696
  119CHL1    H314994   1.741   7.402  16.469  1.4180  0.1318  0.6759
  119CHL1    O314995   1.718   7.551  16.595 -0.3015 -0.1779 -0.6016
  119CHL1   H3'14996   1.796   7.517  16.640 -0.6126 -0.3285 -0.1725
  119CHL1    C414997   1.830   7.590  16.390  0.0269 -0.5408  0.4646
  119CHL1   H4A14998   1.801   7.697  16.398 -1.0441 -0.7132 -0.6709
  119CHL1   H4B14999   1.930   7.575  16.437 -0.1711 -0.6647  0.8502
  119CHL1    C515000   1.830   7.561  16.245  0.0785  0.2500 -0.1611
  119CHL1    C615001   1.948   7.523  16.179  0.7431  0.6926 -0.0365
  119CHL1    H615002   2.039   7.520  16.241 -0.8300  0.2473  2.4084
  119CHL1    C715003   1.955   7.494  16.031  0.4677  0.5342 -0.3110
  119CHL1   H7A15004   2.044   7.542  15.986  0.2941  0.9933 -0.1747
  119CHL1   H7B15005   1.969   7.384  16.027 -0.7833  0.3861 -1.0605
  119CHL1    C815006   1.829   7.540  15.953 -0.8702  0.5526  0.1080
  119CHL1    H815007   1.838   7.651  15.949 -2.9070  0.7954  1.1509
  119CHL1   C1415008   1.836   7.486  15.814  0.6225 -0.0118 -0.7897
  119CHL1   H1415009   1.830   7.376  15.831  1.6191  0.0782  0.2906
  119CHL1   C1515010   1.970   7.496  15.731 -0.0847 -0.1108  0.4891
  119CHL1  H15A15011   2.024   7.593  15.741 -0.2564  0.0055  0.2978
  119CHL1  H15B15012   2.041   7.414  15.754  3.3564  2.8234  1.3098
  119CHL1   C1615013   1.923   7.482  15.586  0.3300  0.0276 -0.5132
  119CHL1  H16A15014   1.921   7.577  15.529  0.3652  0.8667  0.8511
  119CHL1  H16B15015   1.977   7.398  15.537  0.3788  0.8070 -1.8468
  119CHL1   C1715016   1.772   7.447  15.589  0.7888 -0.1658  0.3922
  119CHL1   H1715017   1.755   7.341  15.617  0.7487 -0.2535  0.0327
  119CHL1   C1315018   1.724   7.512  15.722  0.1726 -0.3131  0.5481
  119CHL1   C1815019   1.713   7.663  15.702  0.9842 -0.3730 -0.1471
  119CHL1  H18A15020   1.691   7.713  15.798  0.6721  0.5419 -0.6788
  119CHL1  H18B15021   1.809   7.708  15.668  1.4141  0.4948  2.0426
  119CHL1  H18C15022   1.623   7.678  15.638 -1.3177 -0.4330  2.8669
  119CHL1   C1215023   1.602   7.459  15.797  0.4604  0.8244 -0.4360
  119CHL1  H12A15024   1.512   7.496  15.743 -0.0065 -1.4325 -1.3310
  119CHL1  H12B15025   1.606   7.348  15.805 -0.1542  0.8278  0.0130
  119CHL1   C1115026   1.582   7.506  15.941  0.3666  0.0701  0.1830
  119CHL1  H11A15027   1.556   7.613  15.929 -1.3605 -0.3070  0.2721
  119CHL1  H11B15028   1.501   7.444  15.985  0.9201 -3.6722 -3.4596
  119CHL1    C915029   1.704   7.499  16.027 -0.1354  0.0488  0.2540
  119CHL1    H915030   1.713   7.391  16.052 -0.7535  0.1082  0.7613
  119CHL1   C1015031   1.694   7.571  16.169 -0.0603  0.0482 -0.5988
  119CHL1   C1915032   1.662   7.724  16.155  0.1099  0.8790  0.1505
  119CHL1  H19A15033   1.556   7.741  16.128 -0.1506 -0.4351  0.2669
  119CHL1  H19B15034   1.677   7.776  16.252  1.4030 -0.5417  0.7703
  119CHL1  H19C15035   1.725   7.765  16.073 -0.3718  1.0036 -0.1575
  119CHL1    C115036   1.584   7.492  16.252  0.0968  0.1042 -0.7603
  119CHL1   H1A15037   1.482   7.510  16.211  0.3646 -1.7293 -2.3793
  119CHL1   H1B15038   1.611   7.385  16.251  1.5780  0.4463 -0.5886
  119CHL1    C215039   1.579   7.529  16.404  0.1838  0.0315 -0.4128
  119CHL1   H2A15040   1.513   7.458  16.458 -0.5846  0.8258 -0.2750
  119CHL1   H2B15041   1.534   7.630  16.417 -1.3432 -0.9913  4.1797
  119CHL1   C2015042   1.687   7.471  15.450  0.3279  1.0325  0.0814
  119CHL1   H2015043   1.670   7.580  15.438 -0.7538  0.8719  0.0834
  119CHL1   C2115044   1.554   7.400  15.468  0.5377 -0.2746 -0.7197
  119CHL1  H21A15045   1.490   7.433  15.384  0.6315 -0.3221 -0.8104
  119CHL1  H21B15046   1.509   7.435  15.563  0.7117 -1.1381 -0.3051
  119CHL1  H21C15047   1.555   7.289  15.468 -0.9058 -0.3080 -0.7900
  119CHL1   C2215048   1.767   7.434  15.329 -0.6968  0.3767  0.0114
  119CHL1  H22A15049   1.855   7.498  15.311 -0.3671 -0.5176 -1.7603
  119CHL1  H22B15050   1.813   7.336  15.354 -0.7281  0.8283  2.0618
  119CHL1   C2315051   1.683   7.420  15.200 -0.4196  0.7080 -0.6581
  119CHL1  H23A15052   1.604   7.342  15.209  1.6495 -1.4752 -0.2747
  119CHL1  H23B15053   1.637   7.512  15.159  1.0833  0.2587 -3.6375
  119CHL1   C2415054   1.770   7.379  15.082  0.6140  0.4934  0.6334
  119CHL1  H24A15055   1.855   7.444  15.054  0.3134  0.3124 -0.7498
  119CHL1  H24B15056   1.819   7.282  15.107 -1.1035 -0.5229  0.3009
  119CHL1   C2515057   1.691   7.355  14.946 -0.4792  0.5371  0.3892
  119CHL1   H2515058   1.634   7.450  14.930  0.2778  1.4424  2.7347
  119CHL1   C2615059   1.780   7.334  14.822  0.0325 -0.1925  0.1086
  119CHL1  H26A15060   1.827   7.233  14.822 -0.0065 -0.2109  0.2267
  119CHL1  H26B15061   1.717   7.336  14.731  0.7488  0.3916 -0.3843
  119CHL1  H26C15062   1.857   7.415  14.818 -0.5280  0.3308 -0.2131
  119CHL1   C2715063   1.584   7.242  14.952  0.1408 -1.1870 -0.0783
  119CHL1  H27A15064   1.535   7.233  14.853 -0.6021  0.5905  0.1044
  119CHL1  H27B15065   1.628   7.145  14.985 -1.5747 -1.8474  0.3977
  119CHL1  H27C15066   1.510   7.278  15.026 -0.4910  0.4395 -1.4485
  120CHL1    C315067   6.898   7.486  16.656  0.3355 -0.7803  0.7327
  120CHL1    H315068   6.996   7.526  16.686 -0.6841  1.8438  0.8382
  120CHL1    O315069   6.804   7.499  16.762 -0.1902  0.0900 -0.6977
  120CHL1   H3'15070   6.838   7.434  16.824  0.7286  2.1007  1.0247
  120CHL1    C415071   6.852   7.576  16.535  0.0336  0.4679  0.0037
  120CHL1   H4A15072   6.763   7.524  16.494 -0.7898  1.2513  0.7775
  120CHL1   H4B15073   6.838   7.679  16.572  1.4645  0.3422  0.9871
  120CHL1    C515074   6.950   7.563  16.418 -0.0513 -0.2816 -0.2032
  120CHL1    C615075   7.007   7.665  16.353  0.8900  0.2519 -0.3193
  120CHL1    H615076   6.995   7.770  16.384  0.2589  0.1520 -0.2152
  120CHL1    C715077   7.091   7.657  16.230  0.4785 -0.6746 -0.8712
  120CHL1   H7A15078   7.059   7.722  16.147 -0.8050  2.0626  1.5832
  120CHL1   H7B15079   7.192   7.690  16.261  0.4645 -0.9905 -0.4730
  120CHL1    C815080   7.093   7.518  16.174 -0.2961 -0.0151  0.6184
  120CHL1    H815081   7.011   7.518  16.099 -0.1502  0.3576  0.4534
  120CHL1   C1415082   7.231   7.498  16.096  0.3468 -0.2076  0.4852
  120CHL1   H1415083   7.311   7.509  16.172  0.4972  1.0960  0.1589
  120CHL1   C1515084   7.262   7.613  15.988 -0.2305  0.3393  0.3244
  120CHL1  H15A15085   7.175   7.655  15.933  0.3812 -0.6587 -1.5003
  120CHL1  H15B15086   7.316   7.693  16.044 -1.0748  1.9088 -1.0335
  120CHL1   C1615087   7.359   7.546  15.894 -0.1279  0.5563 -0.2565
  120CHL1  H16A15088   7.313   7.557  15.793 -1.0894  1.8064  0.2934
  120CHL1  H16B15089   7.459   7.595  15.892 -0.1694  0.6401 -0.3526
  120CHL1   C1715090   7.373   7.395  15.938  0.7779  0.2099  0.3688
  120CHL1   H1715091   7.451   7.386  16.016  0.0561 -1.7844  0.9331
  120CHL1   C1315092   7.250   7.363  16.016 -1.1372  0.0031 -0.8972
  120CHL1   C1815093   7.137   7.342  15.920 -0.2840  0.0968  0.1893
  120CHL1  H18A15094   7.140   7.407  15.829 -0.3618 -1.0137 -0.6269
  120CHL1  H18B15095   7.148   7.239  15.880 -0.8167  0.2223 -0.2929
  120CHL1  H18C15096   7.038   7.347  15.969 -0.9002  0.6848 -1.0465
  120CHL1   C1215097   7.255   7.258  16.126  0.5645  0.2115 -0.0520
  120CHL1  H12A15098   7.267   7.153  16.093 -0.9527  0.2011 -0.6237
  120CHL1  H12B15099   7.337   7.279  16.199  0.5734  0.0514 -0.0167
  120CHL1   C1115100   7.124   7.269  16.216 -0.6369 -0.0471 -0.4555
  120CHL1  H11A15101   7.045   7.227  16.150 -0.4608  1.3482 -1.6140
  120CHL1  H11B15102   7.146   7.199  16.299  3.4734 -1.6504 -2.5764
  120CHL1    C915103   7.096   7.408  16.280  0.3156 -0.5580 -0.2391
  120CHL1    H915104   7.187   7.427  16.342 -0.6881  0.6433  0.9159
  120CHL1   C1015105   6.978   7.410  16.372 -0.6361  0.0728  0.1432
  120CHL1   C1915106   6.847   7.361  16.293 -0.1391  0.1819 -0.4213
  120CHL1  H19A15107   6.854   7.404  16.191 -1.0756  0.2188 -0.4763
  120CHL1  H19B15108   6.849   7.251  16.276  1.8850 -0.1363  1.4256
  120CHL1  H19C15109   6.745   7.389  16.326 -0.6724 -0.3368 -1.5660
  120CHL1    C115110   7.016   7.325  16.493 -0.3756  0.8145 -0.3514
  120CHL1   H1A15111   7.019   7.216  16.471  1.0144  0.9367 -0.8822
  120CHL1   H1B15112   7.110   7.360  16.539 -0.1409  0.3097 -0.4402
  120CHL1    C215113   6.918   7.338  16.611 -0.1096 -0.3444 -0.3643
  120CHL1   H2A15114   6.939   7.268  16.695  1.2357 -1.1809 -1.3588
  120CHL1   H2B15115   6.817   7.309  16.576  0.1702 -1.9851  0.1025
  120CHL1   C2015116   7.414   7.305  15.827 -0.2324  0.2118 -0.7387
  120CHL1   H2015117   7.335   7.310  15.749 -0.6472 -0.0057 -0.3311
  120CHL1   C2115118   7.413   7.153  15.868  0.3481  0.5636 -0.0493
  120CHL1  H21A15119   7.476   7.136  15.958  0.0579 -2.5174 -0.3164
  120CHL1  H21B15120   7.448   7.088  15.785  1.7043  0.8907  0.2550
  120CHL1  H21C15121   7.305   7.130  15.884 -0.0759  2.6134  0.3058
  120CHL1   C2215122   7.549   7.350  15.762  0.2413 -0.4267  1.0101
  120CHL1  H22A15123   7.558   7.287  15.670 -3.1322  0.2064  0.1208
  120CHL1  H22B15124   7.527   7.450  15.720 -2.8866 -2.0770 -1.7907
  120CHL1   C2315125   7.680   7.334  15.836  0.1583 -0.0620 -0.4207
  120CHL1  H23A15126   7.668   7.375  15.938 -1.3974  0.6871 -0.8685
  120CHL1  H23B15127   7.713   7.229  15.849  0.8236  0.3903  2.0403
  120CHL1   C2415128   7.795   7.409  15.772 -0.2769 -0.3155  0.0207
  120CHL1  H24A15129   7.785   7.399  15.662  1.6283  3.1693 -0.6247
  120CHL1  H24B15130   7.781   7.518  15.786 -1.9361 -0.4037 -0.7934
  120CHL1   C2515131   7.934   7.369  15.829 -0.5963  0.6040  0.3329
  120CHL1   H2515132   7.944   7.261  15.807 -0.4812  1.0513 -2.1477
  120CHL1   C2615133   8.042   7.431  15.739 -0.1752  0.2581 -0.0716
  120CHL1  H26A15134   8.024   7.421  15.630  1.7801 -1.6391 -0.2847
  120CHL1  H26B15135   8.047   7.541  15.757 -1.5050  0.1064  1.4368
  120CHL1  H26C15136   8.141   7.382  15.753  0.1317 -0.2343 -3.1282
  120CHL1   C2715137   7.947   7.400  15.975  0.6987 -0.2716  0.5954
  120CHL1  H27A15138   7.881   7.337  16.038 -2.2695  0.9327 -1.1001
  120CHL1  H27B15139   8.056   7.392  15.998  0.7242  0.9109  0.9429
  120CHL1  H27C15140   7.904   7.501  15.990  0.7208 -0.5392  2.7440
  121CHL1    C315141   3.778   3.577  13.338 -0.2656 -0.0938 -0.2690
  121CHL1    H315142   3.713   3.487  13.341  0.7717 -0.9242 -1.5313
  121CHL1    O315143   3.819   3.597  13.206 -0.5141 -0.4533  0.0654
  121CHL1   H3'15144   3.740   3.609  13.153  0.5880  0.8472 -1.3521
  121CHL1    C415145   3.704   3.704  13.383 -0.1678  0.1548  0.3035
  121CHL1   H4A15146   3.767   3.795  13.377  0.6089 -0.3348  0.7773
  121CHL1   H4B15147   3.624   3.712  13.306  0.3388  1.2912 -0.1184
  121CHL1    C515148   3.651   3.680  13.519  0.7530 -0.7021  0.0484
  121CHL1    C615149   3.516   3.687  13.546 -0.3653  0.1845 -0.3520
  121CHL1    H615150   3.444   3.706  13.466  0.2228  1.4738 -0.6048
  121CHL1    C715151   3.456   3.667  13.679 -0.0635  1.0502 -0.1157
  121CHL1   H7A15152   3.370   3.736  13.694 -1.7112 -0.4869 -2.0359
  121CHL1   H7B15153   3.413   3.565  13.686  0.3517  0.7967 -1.0909
  121CHL1    C815154   3.564   3.679  13.790  0.4633  0.0180  0.1385
  121CHL1    H815155   3.596   3.785  13.797  2.4565 -0.2476 -2.9807
  121CHL1   C1415156   3.503   3.624  13.923  0.1138 -0.7867  0.3390
  121CHL1   H1415157   3.491   3.516  13.899  0.8630 -0.3122 -2.4506
  121CHL1   C1515158   3.380   3.691  13.991 -0.6044  0.1895  0.2352
  121CHL1  H15A15159   3.392   3.801  13.978  1.6293 -0.2314 -2.1697
  121CHL1  H15B15160   3.296   3.649  13.931  1.6901 -2.8155 -1.1615
  121CHL1   C1615161   3.370   3.645  14.131  0.5192  0.0629  0.3925
  121CHL1  H16A15162   3.368   3.736  14.195  0.3577 -1.2654  2.3671
  121CHL1  H16B15163   3.278   3.590  14.159  0.7222 -0.2912  0.3643
  121CHL1   C1715164   3.502   3.559  14.150 -0.2998  0.5137  0.1943
  121CHL1   H1715165   3.477   3.453  14.126 -1.3583  0.7489  0.1999
  121CHL1   C1315166   3.603   3.608  14.039 -0.6406 -0.2147  0.6158
  121CHL1   C1815167   3.665   3.741  14.083  0.3659  0.2829 -1.0779
  121CHL1  H18A15168   3.719   3.798  14.005  3.9443 -1.1501  0.1417
  121CHL1  H18B15169   3.587   3.810  14.123  2.4220  2.6239 -0.8464
  121CHL1  H18C15170   3.740   3.721  14.163  0.5759 -0.8810 -1.5560
  121CHL1   C1215171   3.722   3.516  13.993 -0.6041 -0.6962  0.0036
  121CHL1  H12A15172   3.800   3.508  14.072  1.0810  1.1187 -1.3797
  121CHL1  H12B15173   3.672   3.421  13.965 -2.2868 -1.2381  4.0700
  121CHL1   C1115174   3.793   3.575  13.866  0.4345 -0.3044  0.0972
  121CHL1  H11A15175   3.837   3.672  13.898 -2.2201  1.1387 -0.3070
  121CHL1  H11B15176   3.874   3.509  13.828  2.3082  1.0270  1.5828
  121CHL1    C915177   3.691   3.595  13.751 -0.0521  0.7429 -0.0427
  121CHL1    H915178   3.647   3.495  13.731  2.7171 -0.6934  0.4835
  121CHL1   C1015179   3.757   3.642  13.621  0.0146  0.2527  0.4459
  121CHL1   C1915180   3.854   3.758  13.655 -0.5880  0.7694  0.4479
  121CHL1  H19A15181   3.900   3.812  13.570  2.5598  0.0377  1.5413
  121CHL1  H19B15182   3.811   3.831  13.727  0.4213  2.4145 -0.5420
  121CHL1  H19C15183   3.946   3.718  13.703 -0.3934  1.0529  0.3164
  121CHL1    C115184   3.855   3.526  13.569  0.3748  0.5756  0.0127
  121CHL1   H1A15185   3.950   3.509  13.625  1.0402  0.4132 -1.1384
  121CHL1   H1B15186   3.805   3.427  13.568 -1.0161  1.2519 -0.4853
  121CHL1    C215187   3.895   3.558  13.429  0.0401  0.0107 -0.3567
  121CHL1   H2A15188   3.960   3.477  13.390  0.8661 -0.0994  1.1784
  121CHL1   H2B15189   3.949   3.655  13.432 -2.2310  1.3314  0.3134
  121CHL1   C2015190   3.536   3.554  14.303  0.8790 -0.2064  0.4146
  121CHL1   H2015191   3.566   3.659  14.326 -0.4209  0.1811  0.4261
  121CHL1   C2115192   3.657   3.464  14.326  0.1190  0.2305 -0.0927
  121CHL1  H21A15193   3.669   3.438  14.433  0.7648 -0.2324 -0.2698
  121CHL1  H21B15194   3.752   3.513  14.293  0.0192 -0.1073 -0.9136
  121CHL1  H21C15195   3.642   3.360  14.289  0.5028  0.1980 -0.1614
  121CHL1   C2215196   3.419   3.504  14.384 -1.0468 -0.6738 -1.0040
  121CHL1  H22A15197   3.330   3.564  14.357 -0.4680  1.4865  1.5266
  121CHL1  H22B15198   3.401   3.398  14.354 -1.0287 -1.2521  0.9212
  121CHL1   C2315199   3.445   3.531  14.536 -0.8367  0.4947 -0.4892
  121CHL1  H23A15200   3.485   3.440  14.587 -2.3046 -0.1001 -0.3669
  121CHL1  H23B15201   3.514   3.617  14.550  1.6968 -1.4644  0.0560
  121CHL1   C2415202   3.313   3.561  14.605  0.4383  0.4190  0.3999
  121CHL1  H24A15203   3.256   3.631  14.540 -0.8444 -1.5641 -0.7070
  121CHL1  H24B15204   3.254   3.468  14.597  0.7471  0.3650 -3.2556
  121CHL1   C2515205   3.330   3.624  14.740  0.5995 -0.0627  0.4256
  121CHL1   H2515206   3.407   3.704  14.736 -0.6286  1.1460  0.4593
  121CHL1   C2615207   3.197   3.690  14.778  0.0944  0.1024 -0.0979
  121CHL1  H26A15208   3.137   3.616  14.836  0.8055 -3.0911 -3.0905
  121CHL1  H26B15209   3.214   3.780  14.842  0.0259 -0.2293  0.3922
  121CHL1  H26C15210   3.141   3.728  14.690  0.7086 -0.1814 -0.6192
  121CHL1   C2715211   3.363   3.519  14.848  0.4742 -0.0751  0.2311
  121CHL1  H27A15212   3.287   3.438  14.859  0.5289 -0.1203  0.2735
  121CHL1  H27B15213   3.465   3.475  14.838  0.3818  0.1692 -2.4846
  121CHL1  H27C15214   3.359   3.564  14.949 -1.8460 -0.9960  0.6282
  122CHL1    C315215   2.382   3.042  13.324  0.2382  0.2867  0.1136
  122CHL1    H315216   2.316   3.100  13.256 -1.6396 -1.3591  0.4497
  122CHL1    O315217   2.482   2.982  13.244 -0.7567 -0.1349  0.4156
  122CHL1   H3'15218   2.433   2.906  13.210  3.0522 -1.8372 -1.9280
  122CHL1    C415219   2.438   3.143  13.427 -0.2973 -0.6905  0.4851
  122CHL1   H4A15220   2.519   3.094  13.486  1.3875 -1.3689 -2.1981
  122CHL1   H4B15221   2.488   3.214  13.357 -1.2519 -0.5121 -0.0406
  122CHL1    C515222   2.337   3.201  13.512 -0.5334 -0.3310 -0.2522
  122CHL1    C615223   2.311   3.333  13.508 -0.1635  0.3294  0.0427
  122CHL1    H615224   2.374   3.394  13.442  1.7664 -2.0998 -0.4926
  122CHL1    C715225   2.221   3.402  13.601 -1.5031 -0.0749  0.8735
  122CHL1   H7A15226   2.277   3.492  13.634  1.7912 -0.3743 -3.1959
  122CHL1   H7B15227   2.128   3.442  13.554 -1.5574 -0.7466  0.3995
  122CHL1    C815228   2.195   3.308  13.721  0.6811  0.5962  0.7582
  122CHL1    H815229   2.292   3.303  13.773  0.0539  0.6304  1.9669
  122CHL1   C1415230   2.080   3.361  13.809 -0.4235 -0.0235 -0.0397
  122CHL1   H1415231   1.989   3.375  13.746 -0.3606 -0.2766 -0.1899
  122CHL1   C1515232   2.108   3.500  13.878  0.0158 -0.1282 -0.8043
  122CHL1  H15A15233   2.211   3.502  13.919 -0.6173 -0.7892  0.9545
  122CHL1  H15B15234   2.093   3.583  13.805  0.4349 -0.5813 -1.4128
  122CHL1   C1615235   2.014   3.508  13.996  0.2076 -0.7167 -0.9068
  122CHL1  H16A15236   2.079   3.523  14.084  1.4156  0.4285 -1.9493
  122CHL1  H16B15237   1.937   3.587  13.979  1.3936  0.3376 -1.5894
  122CHL1   C1715238   1.936   3.371  13.989 -0.3295 -0.8498 -0.5090
  122CHL1   H1715239   1.857   3.384  13.912  1.4086 -0.7182 -2.3676
  122CHL1   C1315240   2.037   3.275  13.927 -0.4231  0.3614  0.3078
  122CHL1   C1815241   2.159   3.238  14.022  0.0736 -0.2216 -0.1922
  122CHL1  H18A15242   2.136   3.140  14.070 -1.1136 -0.4896 -1.2415
  122CHL1  H18B15243   2.253   3.227  13.964  0.8770 -1.7525  1.2971
  122CHL1  H18C15244   2.174   3.321  14.094 -0.1971 -0.7568  0.5061
  122CHL1   C1215245   1.979   3.142  13.875 -0.3910  0.2248 -0.4243
  122CHL1  H12A15246   1.922   3.085  13.952 -3.5775 -0.0493 -2.7770
  122CHL1  H12B15247   1.894   3.163  13.806 -0.0767 -3.2003 -2.0121
  122CHL1   C1115248   2.093   3.073  13.794  0.0832  0.0813 -0.8373
  122CHL1  H11A15249   2.173   3.042  13.865  1.4108  4.1519 -0.3106
  122CHL1  H11B15250   2.049   2.982  13.749 -0.4173  0.1539 -0.5019
  122CHL1    C915251   2.152   3.164  13.677  0.4778  0.2047 -0.3146
  122CHL1    H915252   2.064   3.175  13.610  0.7234  0.1969 -0.6443
  122CHL1   C1015253   2.262   3.092  13.595 -0.8233 -0.1196 -0.1183
  122CHL1   C1915254   2.359   3.024  13.702  0.3462  0.0267 -0.1426
  122CHL1  H19A15255   2.318   2.943  13.766 -0.3238  2.6717  3.0852
  122CHL1  H19B15256   2.444   2.986  13.643  0.3954  1.0546 -0.7622
  122CHL1  H19C15257   2.393   3.107  13.768 -1.1327  1.8738 -1.5785
  122CHL1    C115258   2.204   2.985  13.509 -0.6022  0.1780  0.1397
  122CHL1   H1A15259   2.158   2.900  13.564  0.1987 -3.8655 -4.7114
  122CHL1   H1B15260   2.115   3.029  13.458  1.0919  2.9502 -0.6410
  122CHL1    C215261   2.299   2.936  13.398 -0.4194  0.0988  0.0986
  122CHL1   H2A15262   2.252   2.868  13.324  2.3929 -1.7407 -0.1451
  122CHL1   H2B15263   2.373   2.869  13.446  0.2227  0.3841 -0.4765
  122CHL1   C2015264   1.871   3.317  14.118 -0.0648 -0.0139  0.2488
  122CHL1   H2015265   1.908   3.215  14.143  0.8881  0.0584 -0.8175
  122CHL1   C2115266   1.729   3.296  14.082 -0.0684 -0.3165  0.2110
  122CHL1  H21A15267   1.724   3.231  13.992  0.5601  1.7816 -1.4315
  122CHL1  H21B15268   1.683   3.395  14.062  1.9589  0.2753 -1.9261
  122CHL1  H21C15269   1.674   3.249  14.167 -0.5628 -0.4435 -0.1712
  122CHL1   C2215270   1.892   3.414  14.235 -0.2750 -0.2028 -0.0120
  122CHL1  H22A15271   1.997   3.397  14.268 -0.1110 -1.7892 -1.2156
  122CHL1  H22B15272   1.879   3.521  14.208  1.3488  0.0432  0.0972
  122CHL1   C2315273   1.798   3.388  14.354  0.6627 -0.1422 -0.1049
  122CHL1  H23A15274   1.693   3.387  14.317  0.6507  1.6774 -0.2467
  122CHL1  H23B15275   1.811   3.296  14.414 -0.6302 -1.1698 -1.3364
  122CHL1   C2415276   1.816   3.499  14.466  0.2022  0.0271  0.0836
  122CHL1  H24A15277   1.915   3.482  14.514 -0.8637 -0.9532  2.0769
  122CHL1  H24B15278   1.814   3.602  14.425 -2.0158  0.4117  1.0498
  122CHL1   C2515279   1.714   3.489  14.577  0.3773  0.1654 -0.2183
  122CHL1   H2515280   1.726   3.386  14.615  2.8177  0.7239  0.6853
  122CHL1   C2615281   1.733   3.575  14.708 -0.1762  0.4140  0.3018
  122CHL1  H26A15282   1.671   3.537  14.792 -0.9989  0.3631 -0.3123
  122CHL1  H26B15283   1.840   3.567  14.739 -0.8255  2.8984  3.7692
  122CHL1  H26C15284   1.712   3.682  14.686 -0.2547  0.3720  0.1722
  122CHL1   C2715285   1.566   3.508  14.527  0.4326 -0.8092  0.6592
  122CHL1  H27A15286   1.548   3.610  14.488  1.6446 -1.4793 -1.8561
  122CHL1  H27B15287   1.547   3.434  14.447 -0.8249 -2.8376  2.6818
  122CHL1  H27C15288   1.495   3.483  14.610  1.8091 -0.2110  2.0762
  123CHL1    C315289   4.372   3.445  13.275  0.0379  0.2938  0.4069
  123CHL1    H315290   4.264   3.427  13.293  0.1646 -2.9812 -1.3011
  123CHL1    O315291   4.408   3.402  13.141  0.2006 -0.1388 -1.0032
  123CHL1   H3'15292   4.358   3.447  13.073  1.5644  0.7252 -1.4747
  123CHL1    C415293   4.408   3.597  13.300 -0.2957 -0.2541  0.3391
  123CHL1   H4A15294   4.518   3.605  13.287 -0.1098 -2.4612  0.0438
  123CHL1   H4B15295   4.370   3.660  13.217  1.6190  0.7691  0.1818
  123CHL1    C515296   4.369   3.644  13.439  0.2307  0.2544  0.5284
  123CHL1    C615297   4.288   3.752  13.453 -0.1898  0.1903 -0.0416
  123CHL1    H615298   4.246   3.812  13.371  0.9726  1.0119 -0.0617
  123CHL1    C715299   4.235   3.803  13.587  0.3436 -1.1691  0.2840
  123CHL1   H7A15300   4.251   3.913  13.595 -0.2201 -0.9846 -0.9255
  123CHL1   H7B15301   4.126   3.787  13.596 -0.5284  2.3590 -2.1155
  123CHL1    C815302   4.300   3.732  13.709  0.3678 -0.3290  0.2799
  123CHL1    H815303   4.392   3.791  13.731  0.0939  0.1732  0.1106
  123CHL1   C1415304   4.209   3.749  13.834 -0.0092  0.4137 -0.4155
  123CHL1   H1415305   4.116   3.694  13.810 -0.6342  0.5678  1.4860
  123CHL1   C1515306   4.157   3.886  13.873  0.4284 -0.1067  0.1940
  123CHL1  H15A15307   4.239   3.960  13.862 -0.2937  0.4344 -2.4387
  123CHL1  H15B15308   4.073   3.917  13.806  0.5537  2.7671  1.2023
  123CHL1   C1615309   4.100   3.868  14.013 -0.1411  0.1268 -0.3679
  123CHL1  H16A15310   4.138   3.949  14.079 -0.1231  0.0845 -0.3259
  123CHL1  H16B15311   3.990   3.878  14.017 -0.4464 -1.3388 -2.9476
  123CHL1   C1715312   4.142   3.724  14.059 -0.4817  0.3945 -0.7913
  123CHL1   H1715313   4.061   3.653  14.034  1.8502 -2.0345 -1.9310
  123CHL1   C1315314   4.254   3.675  13.962 -0.3905 -0.8450  0.2177
  123CHL1   C1815315   4.386   3.743  14.007  0.8547 -0.7198  0.7848
  123CHL1  H18A15316   4.363   3.846  14.043 -0.9138 -0.6792 -0.2972
  123CHL1  H18B15317   4.413   3.691  14.101 -1.5893 -1.7801  0.9685
  123CHL1  H18C15318   4.472   3.732  13.937 -0.5326  0.8112 -1.2942
  123CHL1   C1215319   4.267   3.524  13.931  0.0286  0.0573 -0.1991
  123CHL1  H12A15320   4.310   3.467  14.016  1.5020  0.9304 -0.3154
  123CHL1  H12B15321   4.164   3.496  13.901 -0.6471  0.8636  1.2843
  123CHL1   C1115322   4.365   3.506  13.811 -0.3400  0.1428  0.1658
  123CHL1  H11A15323   4.469   3.528  13.840 -0.1935 -0.6277  0.2448
  123CHL1  H11B15324   4.368   3.398  13.785  1.1704 -0.4273  2.4587
  123CHL1    C915325   4.326   3.588  13.685 -0.1191  0.1600  0.1331
  123CHL1    H915326   4.225   3.549  13.661  0.5222 -0.8201 -1.0701
  123CHL1   C1015327   4.414   3.561  13.556  0.4597 -0.4256  0.3623
  123CHL1   C1915328   4.558   3.588  13.582  0.5337  0.2939  0.0363
  123CHL1  H19A15329   4.622   3.567  13.493  0.7486 -0.1292  0.2927
  123CHL1  H19B15330   4.573   3.697  13.598 -0.0590  0.7301 -2.0134
  123CHL1  H19C15331   4.589   3.528  13.670 -0.8500  0.2908  0.5417
  123CHL1    C115332   4.397   3.404  13.521 -0.0065 -0.0630  0.5452
  123CHL1   H1A15333   4.456   3.343  13.592  1.6514 -0.8344 -1.4033
  123CHL1   H1B15334   4.290   3.374  13.528  0.1825 -0.9959 -0.3444
  123CHL1    C215335   4.446   3.359  13.379 -0.4952  0.3616  0.0877
  123CHL1   H2A15336   4.437   3.256  13.340  2.8556  0.4931 -1.3938
  123CHL1   H2B15337   4.555   3.382  13.372  0.0275 -2.0807 -0.5223
  123CHL1   C2015338   4.154   3.709  14.216  0.8567  0.3216  0.3638
  123CHL1   H2015339   4.234   3.782  14.239  3.0849 -0.7671 -3.0074
  123CHL1   C2115340   4.205   3.566  14.244 -0.3286  0.9937 -0.7642
  123CHL1  H21A15341   4.212   3.545  14.353 -0.3659 -2.2187 -1.2984
  123CHL1  H21B15342   4.305   3.554  14.197  0.4604 -0.5906  1.1940
  123CHL1  H21C15343   4.128   3.495  14.208 -0.5365  1.5936 -1.5351
  123CHL1   C2215344   4.018   3.738  14.289 -0.4563 -0.1593 -0.1071
  123CHL1  H22A15345   3.964   3.816  14.232 -2.1917 -0.6715  0.7680
  123CHL1  H22B15346   3.953   3.649  14.278  1.7306 -2.4162  3.2115
  123CHL1   C2315347   4.039   3.762  14.439 -1.0039 -0.5331 -0.2464
  123CHL1  H23A15348   4.081   3.673  14.492 -2.4925  0.6347  3.2089
  123CHL1  H23B15349   4.124   3.832  14.455  1.0791 -2.7292 -0.9490
  123CHL1   C2415350   3.907   3.800  14.512 -0.0472  0.2875 -0.2456
  123CHL1  H24A15351   3.852   3.888  14.472 -0.4944 -1.0270 -2.7346
  123CHL1  H24B15352   3.842   3.716  14.480  0.2580 -0.4749  1.0492
  123CHL1   C2515353   3.897   3.794  14.663 -0.4131 -0.4268 -0.2787
  123CHL1   H2515354   3.956   3.706  14.697  1.5840 -0.7901 -4.1545
  123CHL1   C2615355   3.954   3.919  14.728 -0.3180  0.8323  0.5211
  123CHL1  H26A15356   3.891   4.009  14.712 -1.5551 -0.0200  0.4173
  123CHL1  H26B15357   3.951   3.908  14.838  0.7942 -1.8362  0.3813
  123CHL1  H26C15358   4.057   3.937  14.689 -0.2298 -0.1143  0.2800
  123CHL1   C2715359   3.746   3.792  14.707  0.1759 -0.0305 -0.3163
  123CHL1  H27A15360   3.689   3.710  14.657  2.0565 -1.8003  0.3054
  123CHL1  H27B15361   3.738   3.774  14.816  2.5420  0.2303 -0.0308
  123CHL1  H27C15362   3.703   3.890  14.677 -0.1626 -0.1740 -0.3057
  124CHL1    C315363   3.044   4.012  13.409 -0.2227  0.0709  0.5654
  124CHL1    H315364   3.015   4.116  13.437 -1.0532 -0.1809  0.6675
  124CHL1    O315365   3.074   4.011  13.275  0.2800  0.0075  0.0910
  124CHL1   H3'15366   2.992   4.017  13.224 -0.1163  0.7550  0.7961
  124CHL1    C415367   3.158   3.972  13.492  0.0675  0.0619  0.5694
  124CHL1   H4A15368   3.182   3.874  13.445  1.9246  0.9357 -0.4255
  124CHL1   H4B15369   3.242   4.041  13.469 -0.6688  0.6225 -0.4901
  124CHL1    C515370   3.126   3.974  13.645  0.0348  0.4660  0.5926
  124CHL1    C615371   3.190   4.054  13.732  0.0003 -0.7514  0.3220
  124CHL1    H615372   3.273   4.113  13.689 -2.6861  1.4231 -2.2468
  124CHL1    C715373   3.156   4.063  13.881 -0.2484  0.2980  0.0705
  124CHL1   H7A15374   3.251   4.056  13.937 -1.0351 -0.0386  1.3920
  124CHL1   H7B15375   3.094   4.150  13.910 -1.0333  0.4629 -1.9354
  124CHL1    C815376   3.067   3.948  13.927  0.0280  0.2519 -0.3889
  124CHL1    H815377   3.131   3.857  13.930  0.0299  0.2274  2.7927
  124CHL1   C1415378   3.022   3.970  14.066  0.1700 -0.1928 -1.0018
  124CHL1   H1415379   2.965   4.065  14.059 -1.2969 -0.5369  3.2658
  124CHL1   C1515380   3.128   3.996  14.169  0.6982  0.7034  0.0267
  124CHL1  H15A15381   3.212   3.923  14.170  2.3779  2.5045 -1.2419
  124CHL1  H15B15382   3.175   4.097  14.167  0.8329  0.6365 -0.5878
  124CHL1   C1615383   3.055   3.979  14.302  0.6587 -0.5692  0.6906
  124CHL1  H16A15384   3.114   3.915  14.371  2.8138 -0.1519 -0.6463
  124CHL1  H16B15385   3.038   4.075  14.356  2.0250 -0.6708  1.3360
  124CHL1   C1715386   2.914   3.917  14.269  0.6759 -0.2234  0.3102
  124CHL1   H1715387   2.845   4.003  14.255 -0.7705 -1.7262 -2.7069
  124CHL1   C1315388   2.926   3.862  14.124  0.6824 -0.2273 -0.3095
  124CHL1   C1815389   3.000   3.726  14.114  0.2816  0.4001  0.1246
  124CHL1  H18A15390   3.055   3.707  14.020 -2.1591 -1.0601 -1.1270
  124CHL1  H18B15391   3.072   3.721  14.198  1.0560 -1.2876 -0.5851
  124CHL1  H18C15392   2.932   3.640  14.130 -0.8030  0.7805 -1.9972
  124CHL1   C1215393   2.797   3.862  14.036  0.5047  0.1896 -0.0460
  124CHL1  H12A15394   2.726   3.783  14.067  0.0635  0.8478  0.6841
  124CHL1  H12B15395   2.738   3.957  14.033 -0.0444 -0.1660 -0.5857
  124CHL1   C1115396   2.843   3.829  13.887 -0.1130 -0.6932  0.7307
  124CHL1  H11A15397   2.880   3.725  13.890  0.0239 -0.6372  0.9844
  124CHL1  H11B15398   2.752   3.831  13.823  0.3841 -0.2671  0.0255
  124CHL1    C915399   2.957   3.921  13.828 -0.3944  0.3587  0.5047
  124CHL1    H915400   2.904   4.019  13.826 -0.5920  0.2453 -0.2435
  124CHL1   C1015401   3.010   3.881  13.684 -0.4464  0.1953  1.2010
  124CHL1   C1915402   3.056   3.733  13.683 -0.9725  0.3585  0.1372
  124CHL1  H19A15403   3.112   3.709  13.590  1.1720  3.2378  0.5602
  124CHL1  H19B15404   3.119   3.708  13.771 -1.0916 -0.3208  0.0355
  124CHL1  H19C15405   2.972   3.663  13.701 -0.4864 -0.9950 -2.3737
  124CHL1    C115406   2.895   3.903  13.586 -0.1496  0.3665 -0.1955
  124CHL1   H1A15407   2.819   3.823  13.602 -1.0857  1.2589 -0.0576
  124CHL1   H1B15408   2.844   4.001  13.599  1.1279  0.8116  1.9178
  124CHL1    C215409   2.936   3.906  13.434 -0.1421 -0.7002 -0.1414
  124CHL1   H2A15410   2.847   3.944  13.379  0.4107  0.3003 -0.3616
  124CHL1   H2B15411   2.955   3.805  13.391  1.9233 -0.0441 -0.8859
  124CHL1   C2015412   2.863   3.824  14.381  0.1159 -0.8583  0.6416
  124CHL1   H2015413   2.935   3.740  14.379  0.4423 -0.5715 -0.0708
  124CHL1   C2115414   2.718   3.769  14.342  0.6767 -0.7010  0.5193
  124CHL1  H21A15415   2.724   3.695  14.258  2.4817 -0.2020  0.1584
  124CHL1  H21B15416   2.645   3.849  14.320 -2.0887 -3.6868 -2.4242
  124CHL1  H21C15417   2.675   3.715  14.429 -3.2027  1.9717  0.4933
  124CHL1   C2215418   2.850   3.892  14.520 -0.1035  0.1898  0.4345
  124CHL1  H22A15419   2.942   3.941  14.556  0.0806 -1.6519  2.7478
  124CHL1  H22B15420   2.773   3.971  14.509 -0.8147  0.1313  3.7739
  124CHL1   C2315421   2.790   3.804  14.637 -0.4424  1.3144 -0.6000
  124CHL1  H23A15422   2.688   3.771  14.611 -0.7649  1.4892  0.4029
  124CHL1  H23B15423   2.854   3.713  14.638  0.5261  1.9811 -0.2876
  124CHL1   C2415424   2.784   3.880  14.771 -0.2161  0.5182  0.7418
  124CHL1  H24A15425   2.889   3.917  14.778  0.4433 -0.7069 -1.6632
  124CHL1  H24B15426   2.718   3.969  14.761  0.1272  0.6984  0.0457
  124CHL1   C2515427   2.746   3.783  14.889  0.0079  0.0295 -0.5936
  124CHL1   H2515428   2.823   3.702  14.890  2.0842  1.9147 -0.3934
  124CHL1   C2615429   2.755   3.857  15.026 -0.0807 -0.4811  0.3260
  124CHL1  H26A15430   2.855   3.902  15.048  0.6360 -1.5313 -0.6555
  124CHL1  H26B15431   2.673   3.931  15.032 -1.3610 -1.8997  0.7634
  124CHL1  H26C15432   2.738   3.787  15.110  0.7380  0.5920  1.4281
  124CHL1   C2715433   2.604   3.722  14.884 -0.2740  0.0709 -0.3667
  124CHL1  H27A15434   2.577   3.665  14.976 -1.0013  1.2381  0.1722
  124CHL1  H27B15435   2.532   3.807  14.877 -1.0894 -0.4018  1.5623
  124CHL1  H27C15436   2.607   3.658  14.794  0.3716  0.3222 -0.5289
  125CHL1    C315437   4.567   5.042  13.129 -0.1868  0.4383 -0.0345
  125CHL1    H315438   4.616   5.142  13.128  2.8605 -0.9410 -1.1993
  125CHL1    O315439   4.609   4.978  13.011  0.3930 -0.4517 -0.0712
  125CHL1   H3'15440   4.561   4.895  13.013  2.6415 -1.8492  0.7653
  125CHL1    C415441   4.627   4.959  13.246  0.0520 -0.1244 -0.0236
  125CHL1   H4A15442   4.601   4.852  13.231  0.5376 -0.3210  0.5290
  125CHL1   H4B15443   4.737   4.961  13.234  0.1064 -0.6310  0.3829
  125CHL1    C515444   4.591   5.005  13.386  0.2669 -0.4107  0.5754
  125CHL1    C615445   4.676   5.046  13.484 -0.1282  0.0931  0.3606
  125CHL1    H615446   4.783   5.027  13.468  0.1781  1.8786  0.1352
  125CHL1    C715447   4.629   5.076  13.621  0.4390  0.7886 -0.4616
  125CHL1   H7A15448   4.695   5.020  13.690  0.2020  2.8293  1.5140
  125CHL1   H7B15449   4.654   5.184  13.633  2.1393  0.4719 -0.8752
  125CHL1    C815450   4.482   5.058  13.651 -0.1229  0.3087  0.0236
  125CHL1    H815451   4.458   4.951  13.670  1.5664 -0.1016 -0.0524
  125CHL1   C1415452   4.443   5.139  13.778 -0.3022  0.0657  0.7011
  125CHL1   H1415453   4.455   5.247  13.755  0.8523 -0.0651  0.6471
  125CHL1   C1515454   4.516   5.100  13.906  0.0000 -0.4120  0.2867
  125CHL1  H15A15455   4.516   4.992  13.932  2.4107 -0.2583  1.1668
  125CHL1  H15B15456   4.619   5.140  13.900 -0.6869  1.2363 -3.5271
  125CHL1   C1615457   4.429   5.170  14.010  0.3838  0.3978  0.9720
  125CHL1  H16A15458   4.417   5.122  14.109 -0.9923 -0.1016  0.5991
  125CHL1  H16B15459   4.475   5.269  14.030  0.6823  0.5498 -0.3490
  125CHL1   C1715460   4.286   5.211  13.944  0.3610 -0.1358 -0.8641
  125CHL1   H1715461   4.299   5.318  13.917 -1.5686  0.5274  0.6104
  125CHL1   C1315462   4.291   5.131  13.816  0.2940 -0.0008 -0.2535
  125CHL1   C1815463   4.244   4.982  13.851 -0.5973  0.1048 -0.2728
  125CHL1  H18A15464   4.301   4.935  13.935 -1.0314  1.0177  0.5500
  125CHL1  H18B15465   4.136   4.967  13.871 -0.3377 -1.8253 -0.1277
  125CHL1  H18C15466   4.264   4.917  13.763  0.3006 -0.6302  0.4522
  125CHL1   C1215467   4.216   5.187  13.692 -0.6933 -0.5164 -0.9701
  125CHL1  H12A15468   4.105   5.183  13.697 -0.6554 -1.0925 -0.3149
  125CHL1  H12B15469   4.253   5.291  13.681 -2.1905  0.2324  0.5400
  125CHL1   C1115470   4.249   5.116  13.558 -0.6153 -0.0876 -0.5330
  125CHL1  H11A15471   4.196   5.018  13.559 -1.1539  0.1741 -1.6850
  125CHL1  H11B15472   4.204   5.171  13.474 -3.1786 -0.8565  0.2462
  125CHL1    C915473   4.401   5.097  13.529  0.3533  0.2410  0.0676
  125CHL1    H915474   4.431   5.202  13.511 -0.6277  0.4733 -0.2678
  125CHL1   C1015475   4.438   5.021  13.395  0.2406 -0.3533 -0.1596
  125CHL1   C1915476   4.382   4.881  13.406 -1.1781 -0.8515  0.0454
  125CHL1  H19A15477   4.272   4.877  13.394 -1.2629 -0.1096  0.5068
  125CHL1  H19B15478   4.426   4.814  13.330 -2.1272  0.0347 -1.3144
  125CHL1  H19C15479   4.397   4.842  13.510  1.5464  0.7156  0.3472
  125CHL1    C115480   4.375   5.099  13.276  0.3862 -0.0298  0.0621
  125CHL1   H1A15481   4.265   5.092  13.284  0.3516 -0.8156 -0.9058
  125CHL1   H1B15482   4.395   5.209  13.279 -2.8794  1.0765 -5.3470
  125CHL1    C215483   4.413   5.044  13.135  0.1462  0.3834 -0.3325
  125CHL1   H2A15484   4.356   5.108  13.065 -3.1514 -0.1256  1.6702
  125CHL1   H2B15485   4.375   4.940  13.133 -0.1234  0.3907  1.8067
  125CHL1   C2015486   4.175   5.207  14.048 -0.4465 -0.6581  0.2771
  125CHL1   H2015487   4.173   5.106  14.094  1.6615 -0.3179  1.2650
  125CHL1   C2115488   4.052   5.249  13.975 -0.6116 -0.0953 -0.0782
  125CHL1  H21A15489   3.977   5.285  14.049 -1.5085  1.3941 -1.6358
  125CHL1  H21B15490   4.021   5.165  13.908  1.2309 -2.3573  1.7307
  125CHL1  H21C15491   4.077   5.338  13.914  0.3522 -0.3141 -0.0128
  125CHL1   C2215492   4.204   5.293  14.171  0.4421 -0.5325 -0.4715
  125CHL1  H22A15493   4.294   5.255  14.222  0.2600  0.1001  0.3416
  125CHL1  H22B15494   4.226   5.397  14.138 -0.6279 -0.1352  0.0044
  125CHL1   C2315495   4.089   5.289  14.272  0.2598 -0.5928 -0.9326
  125CHL1  H23A15496   3.990   5.320  14.232  0.6121  2.3919  0.1822
  125CHL1  H23B15497   4.081   5.184  14.305 -0.5210 -0.6810 -1.3719
  125CHL1   C2415498   4.121   5.391  14.385  0.3913 -0.4691 -0.7044
  125CHL1  H24A15499   4.225   5.376  14.422 -0.1712 -2.3851  0.1922
  125CHL1  H24B15500   4.112   5.494  14.345  2.1810  0.2994  0.6995
  125CHL1   C2515501   4.033   5.384  14.510 -0.1591 -0.4672 -0.2547
  125CHL1   H2515502   3.926   5.402  14.485 -0.3099  1.1161  1.3012
  125CHL1   C2615503   4.049   5.245  14.568 -0.4560 -0.5967  0.6488
  125CHL1  H26A15504   4.006   5.163  14.506 -1.0694 -0.4363  0.8573
  125CHL1  H26B15505   4.155   5.213  14.572  1.0968  3.5969 -0.9468
  125CHL1  H26C15506   4.002   5.237  14.668 -0.0050  1.1510  1.0393
  125CHL1   C2715507   4.069   5.491  14.616 -0.3323 -0.7579 -0.0728
  125CHL1  H27A15508   4.179   5.503  14.628 -0.5436  0.8973  0.4873
  125CHL1  H27B15509   4.019   5.588  14.598 -2.9783 -1.9119  0.5831
  125CHL1  H27C15510   4.032   5.462  14.717  0.3820 -1.6644 -0.0537
  126CHL1    C315511   3.004   4.491  13.162 -0.0421  0.4637 -0.0450
  126CHL1    H315512   2.928   4.568  13.187  0.2921  1.2304 -1.2927
  126CHL1    O315513   3.005   4.456  13.026  1.3631 -0.1451 -0.4450
  126CHL1   H3'15514   3.096   4.444  12.996  0.8616 -1.8292 -1.4740
  126CHL1    C415515   3.140   4.547  13.212  0.5500 -0.3454  0.6739
  126CHL1   H4A15516   3.219   4.473  13.185  0.2956 -0.0122 -1.0553
  126CHL1   H4B15517   3.158   4.640  13.155  0.1002  0.6857  2.1680
  126CHL1    C515518   3.139   4.573  13.359 -0.4155 -0.0943 -0.3931
  126CHL1    C615519   3.171   4.702  13.407 -0.1635  0.1606 -0.0675
  126CHL1    H615520   3.189   4.788  13.341  0.2215  1.0837  1.1872
  126CHL1    C715521   3.171   4.728  13.556  1.4283 -0.2167  0.0339
  126CHL1   H7A15522   3.258   4.789  13.587  0.9800  0.5268 -0.1271
  126CHL1   H7B15523   3.078   4.785  13.575 -0.3121 -2.9589  0.2279
  126CHL1    C815524   3.159   4.600  13.635 -0.4041 -0.0718 -0.8956
  126CHL1    H815525   3.260   4.557  13.619 -0.4224  0.2189 -1.8076
  126CHL1   C1415526   3.152   4.627  13.780 -0.0272 -0.1307  0.5336
  126CHL1   H1415527   3.059   4.686  13.793  0.3231  0.3809  0.7564
  126CHL1   C1515528   3.263   4.721  13.841  0.3617  0.2811  0.5526
  126CHL1  H15A15529   3.358   4.681  13.800  0.1889 -0.3770  0.7821
  126CHL1  H15B15530   3.249   4.827  13.811  1.2960  0.1485 -0.4038
  126CHL1   C1615531   3.238   4.695  13.987  0.2513  0.7237 -0.1928
  126CHL1  H16A15532   3.344   4.679  14.016  1.3850  2.9581 -2.6604
  126CHL1  H16B15533   3.188   4.788  14.023  0.2363  0.6133  0.0664
  126CHL1   C1715534   3.138   4.576  14.005  0.1512 -0.2744  0.4317
  126CHL1   H1715535   3.045   4.636  14.016  0.5943  0.5772 -0.4016
  126CHL1   C1315536   3.138   4.509  13.869 -0.1049  0.8902  0.1287
  126CHL1   C1815537   3.259   4.408  13.856  0.7580  0.0218 -0.4526
  126CHL1  H18A15538   3.246   4.318  13.920 -0.1708 -1.9014 -3.1538
  126CHL1  H18B15539   3.271   4.365  13.755 -1.1297  4.0008 -2.5872
  126CHL1  H18C15540   3.354   4.450  13.896 -0.4657  0.5885  2.1069
  126CHL1   C1215541   3.006   4.430  13.832  0.6941  0.2652 -0.0580
  126CHL1  H12A15542   3.001   4.341  13.899 -1.2634 -0.9875 -1.7671
  126CHL1  H12B15543   2.916   4.489  13.858  0.6567  1.3482 -2.3871
  126CHL1   C1115544   3.009   4.386  13.684 -0.4005 -0.4670  0.2274
  126CHL1  H11A15545   3.086   4.306  13.680 -1.2831 -1.3198 -0.1804
  126CHL1  H11B15546   2.908   4.348  13.660 -0.5918 -0.5692  1.1663
  126CHL1    C915547   3.052   4.503  13.585  0.2014 -0.0657 -0.4602
  126CHL1    H915548   2.963   4.569  13.571  1.0764  1.5262  1.0882
  126CHL1   C1015549   3.085   4.457  13.441 -0.8169 -0.9215 -0.3468
  126CHL1   C1915550   3.196   4.349  13.443 -0.3644 -0.1433 -0.8089
  126CHL1  H19A15551   3.170   4.262  13.507 -0.3269  1.1235  1.0254
  126CHL1  H19B15552   3.223   4.309  13.343 -0.8070  0.4595 -1.1764
  126CHL1  H19C15553   3.290   4.391  13.484 -0.7990  0.8530 -0.8134
  126CHL1    C115554   2.956   4.398  13.385  0.2498 -0.0520 -0.5912
  126CHL1   H1A15555   2.919   4.317  13.451 -2.1003  2.3779  1.2833
  126CHL1   H1B15556   2.869   4.466  13.396 -0.2611 -0.7548 -0.1533
  126CHL1    C215557   2.957   4.363  13.241 -1.2618 -0.1071  0.1119
  126CHL1   H2A15558   2.859   4.322  13.208 -1.2677  2.6245 -3.9324
  126CHL1   H2B15559   3.031   4.284  13.216  1.0161  1.9029  0.1935
  126CHL1   C2015560   3.166   4.499  14.133  0.5875  0.9033  0.0468
  126CHL1   H2015561   3.261   4.443  14.116 -2.0345 -3.6374 -1.3387
  126CHL1   C2115562   3.059   4.390  14.151 -0.0695  0.6979 -0.7555
  126CHL1  H21A15563   2.953   4.425  14.150 -0.7674 -1.2518 -0.8343
  126CHL1  H21B15564   3.068   4.356  14.257  2.9362  2.3706 -0.3688
  126CHL1  H21C15565   3.076   4.306  14.080 -3.0098 -0.0736 -0.6859
  126CHL1   C2215566   3.171   4.590  14.256  0.4793  0.1682 -0.2121
  126CHL1  H22A15567   3.189   4.514  14.335  0.5755 -1.0613 -1.3991
  126CHL1  H22B15568   3.259   4.658  14.251 -0.0525  1.2942  2.9648
  126CHL1   C2315569   3.044   4.667  14.301  0.2304 -0.3992  0.1733
  126CHL1  H23A15570   3.037   4.755  14.233  2.5793 -0.2428  0.0754
  126CHL1  H23B15571   2.953   4.604  14.287 -0.6340  0.8624 -0.1088
  126CHL1   C2415572   3.029   4.712  14.451 -0.4150 -0.3397 -0.2439
  126CHL1  H24A15573   3.047   4.623  14.516 -1.9758  0.2614  1.0591
  126CHL1  H24B15574   3.115   4.782  14.460 -0.5107  0.0236 -1.8003
  126CHL1   C2515575   2.892   4.768  14.484  0.3519 -0.2636  0.0379
  126CHL1   H2515576   2.821   4.689  14.452 -0.6706  0.9672 -0.8038
  126CHL1   C2615577   2.872   4.794  14.627 -0.3468  0.0891 -0.2428
  126CHL1  H26A15578   2.764   4.791  14.653 -0.5330  0.7237 -0.8873
  126CHL1  H26B15579   2.926   4.717  14.686 -0.9910 -0.2961 -0.1457
  126CHL1  H26C15580   2.920   4.891  14.654  1.4892 -0.6061 -0.9127
  126CHL1   C2715581   2.862   4.903  14.419 -0.0171  0.1352  0.2771
  126CHL1  H27A15582   2.877   4.902  14.309 -1.8794 -2.6113 -0.0330
  126CHL1  H27B15583   2.756   4.934  14.429 -0.3525 -0.9198  0.0923
  126CHL1  H27C15584   2.923   4.985  14.464  0.5728  0.0438 -0.3353
  127CHL1    C315585   4.057   5.420  13.163 -0.2774 -0.8551  0.4131
  127CHL1    H315586   3.955   5.407  13.120  0.3282  1.5222 -2.0191
  127CHL1    O315587   4.152   5.377  13.071 -0.3691 -0.5307  0.1136
  127CHL1   H3'15588   4.233   5.374  13.123 -0.1176 -0.7206 -0.2764
  127CHL1    C415589   4.080   5.570  13.207  0.9065 -0.0550 -0.2705
  127CHL1   H4A15590   4.188   5.590  13.225  0.8000 -0.2273  0.5942
  127CHL1   H4B15591   4.055   5.632  13.118 -0.0517  0.1486  0.1342
  127CHL1    C515592   4.003   5.620  13.328  0.2501 -0.1537  0.9959
  127CHL1    C615593   3.932   5.733  13.325  0.6039 -0.3269  0.4460
  127CHL1    H615594   3.925   5.789  13.230 -0.4930 -2.0407 -0.5541
  127CHL1    C715595   3.855   5.791  13.445 -0.3398  0.4998 -0.0021
  127CHL1   H7A15596   3.881   5.899  13.450  1.5912  0.1756 -1.8154
  127CHL1   H7B15597   3.745   5.777  13.441 -0.2765 -0.4214  0.8332
  127CHL1    C815598   3.909   5.722  13.575  0.1920 -0.5478 -0.2397
  127CHL1    H815599   4.015   5.756  13.579 -0.6526  2.3912 -0.1402
  127CHL1   C1415600   3.827   5.764  13.702  0.1508  0.0569 -0.0559
  127CHL1   H1415601   3.723   5.739  13.671  0.9820 -0.4910 -2.6904
  127CHL1   C1515602   3.825   5.915  13.746  0.1968  0.2686  0.1427
  127CHL1  H15A15603   3.924   5.961  13.725  0.3135 -0.2090 -0.3859
  127CHL1  H15B15604   3.738   5.961  13.694 -0.8260  0.6331  2.0894
  127CHL1   C1615605   3.792   5.917  13.895  0.2265  0.8927 -0.0609
  127CHL1  H16A15606   3.870   5.978  13.946 -1.2675 -0.4398  4.3107
  127CHL1  H16B15607   3.694   5.963  13.918 -0.3964 -0.4175  0.0327
  127CHL1   C1715608   3.789   5.767  13.943 -0.3975 -0.5880 -0.1516
  127CHL1   H1715609   3.686   5.726  13.933 -1.1245  1.2633 -0.6156
  127CHL1   C1315610   3.867   5.692  13.831  0.8383  0.3035 -0.1056
  127CHL1   C1815611   4.018   5.706  13.848  0.2581 -0.1392 -0.4215
  127CHL1  H18A15612   4.059   5.809  13.849  1.2840 -0.5354  1.2077
  127CHL1  H18B15613   4.049   5.656  13.942  1.7422  0.3112 -0.6447
  127CHL1  H18C15614   4.076   5.647  13.774 -0.1791 -0.9529 -0.1203
  127CHL1   C1215615   3.825   5.538  13.807  0.1774  0.0441 -0.1154
  127CHL1  H12A15616   3.842   5.481  13.901 -0.3322  0.5307  0.2812
  127CHL1  H12B15617   3.719   5.541  13.772  0.0738  0.8952  0.2468
  127CHL1   C1115618   3.907   5.477  13.690  0.5038 -0.0734  0.0571
  127CHL1  H11A15619   4.014   5.459  13.716  0.5744 -0.0334 -0.1984
  127CHL1  H11B15620   3.864   5.379  13.658  0.5634 -0.0692 -0.0386
  127CHL1    C915621   3.907   5.564  13.557 -0.3539  0.4394  0.3202
  127CHL1    H915622   3.807   5.540  13.515  0.7715 -0.2139 -2.1752
  127CHL1   C1015623   4.015   5.524  13.448  0.1355 -0.6471  0.2072
  127CHL1   C1915624   4.160   5.532  13.501  0.1751  0.1365  0.1246
  127CHL1  H19A15625   4.181   5.478  13.596  1.0120 -0.5220 -0.4271
  127CHL1  H19B15626   4.240   5.504  13.430  0.4584  0.9307  0.1300
  127CHL1  H19C15627   4.184   5.637  13.527  0.0335  0.0613  0.5787
  127CHL1    C115628   3.984   5.378  13.403  0.3554  0.2233  0.8555
  127CHL1   H1A15629   4.019   5.313  13.486  0.8338 -1.2687 -0.4723
  127CHL1   H1B15630   3.874   5.365  13.392 -0.0237  3.3702 -0.0811
  127CHL1    C215631   4.074   5.333  13.286 -0.0012 -0.5735 -0.0579
  127CHL1   H2A15632   4.058   5.227  13.258 -1.1358 -0.6161  0.6740
  127CHL1   H2B15633   4.178   5.330  13.324  0.4972 -0.3265 -1.3606
  127CHL1   C2015634   3.818   5.750  14.097  0.0956 -0.5235 -0.1574
  127CHL1   H2015635   3.923   5.782  14.113  0.0892 -0.8213  0.5291
  127CHL1   C2115636   3.811   5.605  14.146 -0.6255 -0.5658  0.6686
  127CHL1  H21A15637   3.832   5.600  14.255 -0.2571  0.8787  0.6940
  127CHL1  H21B15638   3.893   5.553  14.092  0.6055  1.5049  0.3916
  127CHL1  H21C15639   3.715   5.561  14.114 -1.6664  1.3957  0.9449
  127CHL1   C2215640   3.738   5.855  14.185 -1.1107  0.4121  0.8657
  127CHL1  H22A15641   3.791   5.849  14.282 -0.6135 -0.1715  0.5598
  127CHL1  H22B15642   3.749   5.963  14.160  1.9200  0.8803  3.5925
  127CHL1   C2315643   3.589   5.827  14.215  0.6372  0.3110 -0.2453
  127CHL1  H23A15644   3.531   5.822  14.119 -0.2883  1.9516  0.1889
  127CHL1  H23B15645   3.581   5.728  14.264 -0.7161  1.2415  1.5408
  127CHL1   C2415646   3.538   5.936  14.307  0.5111  0.6466  0.6164
  127CHL1  H24A15647   3.617   5.971  14.376  1.2774  1.8431 -0.8112
  127CHL1  H24B15648   3.531   6.027  14.244  0.0731  0.1008 -0.1454
  127CHL1   C2515649   3.409   5.913  14.390  0.3173  0.5705 -0.5707
  127CHL1   H2515650   3.426   5.831  14.463 -1.3218 -1.8243 -2.6900
  127CHL1   C2615651   3.365   6.037  14.468 -0.6664 -0.0659 -0.1403
  127CHL1  H26A15652   3.269   6.012  14.518  0.3553  0.7063  2.3221
  127CHL1  H26B15653   3.446   6.059  14.540 -0.6319 -0.3559 -0.0921
  127CHL1  H26C15654   3.360   6.127  14.402  2.3886  1.2318  1.2039
  127CHL1   C2715655   3.284   5.875  14.297 -0.4934 -0.2583 -0.2741
  127CHL1  H27A15656   3.272   5.958  14.224  1.2355 -0.3259 -0.6782
  127CHL1  H27B15657   3.296   5.774  14.254 -0.7344  0.3124 -1.7492
  127CHL1  H27C15658   3.204   5.876  14.374  2.1057 -0.8057  2.6114
  128CHL1    C315659   1.518   2.173  13.568 -0.1152  0.0006  0.1850
  128CHL1    H315660   1.413   2.190  13.601  0.0897  2.7883 -0.3333
  128CHL1    O315661   1.518   2.210  13.431  0.2212  0.2615  0.2104
  128CHL1   H3'15662   1.454   2.160  13.379  2.0239  0.0918 -1.9862
  128CHL1    C415663   1.599   2.274  13.647 -0.3997 -0.4921  0.3892
  128CHL1   H4A15664   1.703   2.279  13.610 -0.7493 -1.2831 -0.7537
  128CHL1   H4B15665   1.549   2.372  13.631  2.2231  0.6168 -1.8913
  128CHL1    C515666   1.601   2.247  13.795  0.1133 -0.4256  1.1877
  128CHL1    C615667   1.564   2.344  13.882 -0.2044 -0.1819  0.5644
  128CHL1    H615668   1.542   2.444  13.842  0.6168 -1.1977 -2.6873
  128CHL1    C715669   1.566   2.330  14.029  0.1170 -0.3775 -0.5742
  128CHL1   H7A15670   1.615   2.416  14.080  0.6313 -0.1568 -1.4069
  128CHL1   H7B15671   1.463   2.326  14.069  0.1166 -2.7691 -0.7250
  128CHL1    C815672   1.642   2.201  14.072  0.3890  0.6735  0.0264
  128CHL1    H815673   1.749   2.227  14.061  1.3539 -3.2535 -1.3839
  128CHL1   C1415674   1.607   2.155  14.220 -0.5347 -0.3230  0.3448
  128CHL1   H1415675   1.499   2.131  14.224 -0.5241 -0.4989 -0.2753
  128CHL1   C1515676   1.618   2.264  14.330  0.1470  0.1364  0.3352
  128CHL1  H15A15677   1.710   2.325  14.315 -0.1330  0.8691  1.4759
  128CHL1  H15B15678   1.535   2.337  14.321  1.8065  2.2540  1.4270
  128CHL1   C1615679   1.628   2.187  14.457  0.4016  0.1110  0.3736
  128CHL1  H16A15680   1.730   2.209  14.495  0.7088 -0.5259 -0.0657
  128CHL1  H16B15681   1.547   2.226  14.522 -1.2520  1.1368 -2.1340
  128CHL1   C1715682   1.626   2.038  14.417 -0.0046  0.1371 -0.9537
  128CHL1   H1715683   1.520   2.008  14.432 -0.3288  1.2996 -0.8033
  128CHL1   C1315684   1.681   2.035  14.269 -0.2527  0.0709 -0.4763
  128CHL1   C1815685   1.837   2.060  14.252 -0.2721  0.5126  0.0960
  128CHL1  H18A15686   1.907   1.981  14.285 -0.4377  0.1360 -0.4487
  128CHL1  H18B15687   1.859   2.079  14.145 -0.6149 -2.6691 -0.6402
  128CHL1  H18C15688   1.865   2.151  14.310  3.5326 -0.0624 -0.5968
  128CHL1   C1215689   1.638   1.916  14.178 -0.4023 -0.0862 -0.0917
  128CHL1  H12A15690   1.696   1.827  14.210 -0.6514 -0.2936 -0.2153
  128CHL1  H12B15691   1.528   1.909  14.191 -0.1836 -0.8822  1.6182
  128CHL1   C1115692   1.665   1.943  14.028 -0.2381  0.5453 -0.1584
  128CHL1  H11A15693   1.775   1.938  14.014 -0.3685 -1.8192 -0.6265
  128CHL1  H11B15694   1.604   1.874  13.966  0.1539 -0.4722  0.5818
  128CHL1    C915695   1.607   2.085  13.979  0.4105  0.2820 -0.1054
  128CHL1    H915696   1.497   2.073  13.987  0.4753 -0.9652 -0.8924
  128CHL1   C1015697   1.635   2.108  13.832 -0.7114  0.1208  0.0867
  128CHL1   C1915698   1.792   2.081  13.804 -0.8234  0.7753 -0.1729
  128CHL1  H19A15699   1.808   1.973  13.785  0.3529  0.4724  2.1658
  128CHL1  H19B15700   1.819   2.140  13.714  1.7685 -0.2524 -0.1367
  128CHL1  H19C15701   1.854   2.122  13.887 -1.9774  0.2800  0.9764
  128CHL1    C115702   1.555   2.010  13.743  0.0008  0.9445 -0.5749
  128CHL1   H1A15703   1.575   1.902  13.760 -2.7745  0.1548 -1.6789
  128CHL1   H1B15704   1.451   2.016  13.782  0.0286 -1.3322 -0.0027
  128CHL1    C215705   1.557   2.033  13.597 -0.3843  0.0815  0.0771
  128CHL1   H2A15706   1.485   1.958  13.558 -0.5507  0.3898 -0.2141
  128CHL1   H2B15707   1.651   2.002  13.548 -0.5098  1.0700 -0.8271
  128CHL1   C2015708   1.708   1.954  14.520  0.0081 -1.1280 -0.2435
  128CHL1   H2015709   1.812   1.992  14.520  0.2497 -1.7508  0.3345
  128CHL1   C2115710   1.690   1.801  14.505 -0.1265  0.2443 -0.4390
  128CHL1  H21A15711   1.714   1.750  14.409 -1.9978 -2.6611  0.4961
  128CHL1  H21B15712   1.581   1.791  14.521  0.0261  2.5714  2.9873
  128CHL1  H21C15713   1.740   1.742  14.585 -0.5496 -0.1296 -0.4440
  128CHL1   C2215714   1.669   2.000  14.667  1.1234 -0.8027 -0.1641
  128CHL1  H22A15715   1.681   2.110  14.676  0.6928 -0.6104 -1.6603
  128CHL1  H22B15716   1.561   1.980  14.684  1.0150 -1.0401 -1.0608
  128CHL1   C2315717   1.760   1.944  14.776  0.6947  0.9289  0.0916
  128CHL1  H23A15718   1.730   1.837  14.776 -1.8943  1.5878  1.3212
  128CHL1  H23B15719   1.865   1.948  14.740  0.3262  0.6153 -1.0618
  128CHL1   C2415720   1.745   2.003  14.909 -0.6103  0.1495  0.2713
  128CHL1  H24A15721   1.761   2.113  14.910  0.8749 -0.0388  2.0224
  128CHL1  H24B15722   1.648   1.982  14.959 -0.9741 -1.3034 -0.9766
  128CHL1   C2515723   1.858   1.956  15.012  0.0414 -0.0076  0.5184
  128CHL1   H2515724   1.955   1.958  14.958  0.4308  0.2755  1.2245
  128CHL1   C2615725   1.864   2.045  15.138  0.8704  0.7517 -0.6778
  128CHL1  H26A15726   1.908   2.144  15.117  2.7995  1.0231  3.6750
  128CHL1  H26B15727   1.768   2.051  15.194  2.1187 -2.7358  2.2224
  128CHL1  H26C15728   1.927   2.001  15.218  1.0972  1.3833 -0.5079
  128CHL1   C2715729   1.825   1.811  15.058  0.1029  0.5150 -0.4159
  128CHL1  H27A15730   1.719   1.805  15.091  0.3403  1.8163  0.6973
  128CHL1  H27B15731   1.832   1.743  14.971 -2.1076 -1.9445  1.1666
  128CHL1  H27C15732   1.898   1.786  15.138  0.9400 -0.0758 -1.3377
  129CHL1    C315733   7.134   6.157  13.704  0.3724 -0.3081  0.0418
  129CHL1    H315734   7.188   6.074  13.754 -0.7819 -1.5115 -0.6405
  129CHL1    O315735   7.169   6.165  13.565  0.0150  0.5174 -0.1672
  129CHL1   H3'15736   7.156   6.077  13.530 -0.9743  1.0673 -1.2680
  129CHL1    C415737   6.983   6.133  13.716  0.2090 -0.4183 -0.0856
  129CHL1   H4A15738   6.939   6.218  13.660  2.5192  0.7219 -0.3066
  129CHL1   H4B15739   6.949   6.039  13.669 -1.8252  0.3616 -0.2834
  129CHL1    C515740   6.931   6.132  13.857 -0.0486  0.0967  0.4205
  129CHL1    C615741   6.861   6.033  13.911  0.3207  0.2032  0.5153
  129CHL1    H615742   6.851   5.945  13.845 -1.3571  0.6730  0.0900
  129CHL1    C715743   6.778   6.050  14.035 -0.4182 -0.0866 -0.5062
  129CHL1   H7A15744   6.677   6.007  14.016  0.2891 -1.4934 -1.3022
  129CHL1   H7B15745   6.829   5.994  14.116 -2.1803 -0.3436  0.4901
  129CHL1    C815746   6.776   6.196  14.081 -0.0314 -0.2570 -0.3186
  129CHL1    H815747   6.695   6.245  14.023 -0.3043 -0.1206  0.1653
  129CHL1   C1415748   6.741   6.199  14.236 -0.6161 -0.8250  0.2503
  129CHL1   H1415749   6.822   6.143  14.287 -1.0218 -1.6349  0.0276
  129CHL1   C1515750   6.609   6.125  14.277  0.4151 -0.0443  0.0896
  129CHL1  H15A15751   6.522   6.157  14.216  1.3070  0.2480 -1.0676
  129CHL1  H15B15752   6.623   6.015  14.271 -1.3097 -0.2471 -1.0067
  129CHL1   C1615753   6.586   6.185  14.415 -0.4306 -0.1870 -1.1943
  129CHL1  H16A15754   6.485   6.230  14.413 -1.6353 -2.3485  2.2624
  129CHL1  H16B15755   6.576   6.096  14.482 -3.3464  1.3277  0.5625
  129CHL1   C1715756   6.697   6.295  14.450  0.0398 -0.3446 -0.0350
  129CHL1   H1715757   6.776   6.240  14.506 -1.4681 -0.2312  2.3428
  129CHL1   C1315758   6.747   6.336  14.306  0.0648  1.0672 -0.4764
  129CHL1   C1815759   6.645   6.428  14.235 -0.5337  0.0880 -0.3740
  129CHL1  H18A15760   6.538   6.396  14.244 -0.5035  0.2419  0.6395
  129CHL1  H18B15761   6.656   6.531  14.274  0.6628 -0.1068 -0.1623
  129CHL1  H18C15762   6.681   6.430  14.130  1.0436 -2.1238  0.0630
  129CHL1   C1215763   6.893   6.388  14.298  0.2457  0.6693 -0.0053
  129CHL1  H12A15764   6.904   6.493  14.332 -0.1993  1.3083 -1.7266
  129CHL1  H12B15765   6.954   6.320  14.362 -1.0205 -2.1859 -1.6421
  129CHL1   C1115766   6.934   6.387  14.149 -0.4460  0.0935  0.3800
  129CHL1  H11A15767   6.887   6.476  14.101  0.5115 -0.3055 -1.3685
  129CHL1  H11B15768   7.043   6.406  14.144 -0.5484  0.3888 -2.7808
  129CHL1    C915769   6.918   6.258  14.069  0.8081 -0.2211  0.1769
  129CHL1    H915770   6.982   6.188  14.127  0.3586 -0.7386  0.0503
  129CHL1   C1015771   6.965   6.264  13.926 -0.1624  0.1602  0.8358
  129CHL1   C1915772   6.884   6.376  13.851 -0.2633  0.2486  0.2927
  129CHL1  H19A15773   6.896   6.474  13.901  0.9773  0.8071 -1.0428
  129CHL1  H19B15774   6.923   6.397  13.750  0.5640  2.1519  0.9678
  129CHL1  H19C15775   6.773   6.369  13.843 -0.4960  2.6305  0.7133
  129CHL1    C115776   7.114   6.305  13.916 -0.0619 -0.1489 -0.4694
  129CHL1   H1A15777   7.123   6.413  13.940 -0.7532 -0.2208  0.1649
  129CHL1   H1B15778   7.172   6.231  13.976  1.3620 -0.6771 -2.4265
  129CHL1    C215779   7.172   6.290  13.783  0.5045  0.0387  0.9782
  129CHL1   H2A15780   7.280   6.313  13.782  0.2905  1.1132  0.0790
  129CHL1   H2B15781   7.130   6.370  13.718  1.3211  1.4559  2.1438
  129CHL1   C2015782   6.644   6.407  14.550 -0.8999  0.2947 -0.1363
  129CHL1   H2015783   6.551   6.442  14.501 -1.1994  2.0916  1.6365
  129CHL1   C2115784   6.754   6.508  14.560 -0.2621 -0.8854 -0.7267
  129CHL1  H21A15785   6.755   6.568  14.466  2.0892  2.1381  1.0305
  129CHL1  H21B15786   6.851   6.455  14.577 -0.3235 -0.5697  0.6653
  129CHL1  H21C15787   6.745   6.572  14.650  1.3521 -1.7372  0.0958
  129CHL1   C2215788   6.609   6.349  14.690 -0.2483  0.2576 -0.2443
  129CHL1  H22A15789   6.534   6.272  14.662 -0.0793 -0.8439  2.1348
  129CHL1  H22B15790   6.697   6.302  14.739  1.4010  2.5794 -0.8297
  129CHL1   C2315791   6.544   6.444  14.785  0.0084  0.1955  0.5271
  129CHL1  H23A15792   6.616   6.526  14.810 -0.9248  1.9243 -1.9929
  129CHL1  H23B15793   6.457   6.491  14.734 -1.4228 -0.5370  2.1546
  129CHL1   C2415794   6.500   6.377  14.913 -0.0309 -0.3215  0.0053
  129CHL1  H24A15795   6.428   6.296  14.889 -1.3394  1.1457 -1.2261
  129CHL1  H24B15796   6.595   6.327  14.944 -0.5481 -1.5606 -0.3272
  129CHL1   C2515797   6.453   6.477  15.020 -0.2870 -0.1460  0.0428
  129CHL1   H2515798   6.524   6.562  15.016  0.1375 -0.5195 -0.5330
  129CHL1   C2615799   6.311   6.523  14.989 -0.3303 -0.0344  0.8611
  129CHL1  H26A15800   6.315   6.575  14.890 -1.2748 -0.0105  0.8189
  129CHL1  H26B15801   6.238   6.439  14.987 -3.1008  2.1117  2.5939
  129CHL1  H26C15802   6.267   6.595  15.061 -3.0670 -0.7519  0.0544
  129CHL1   C2715803   6.462   6.413  15.163  0.5295 -0.1081 -0.0677
  129CHL1  H27A15804   6.567   6.384  15.187  0.6966  0.4383 -0.1287
  129CHL1  H27B15805   6.422   6.473  15.247  0.3255 -0.1658 -0.1227
  129CHL1  H27C15806   6.412   6.314  15.161  2.4461 -1.1434 -2.1408
  130CHL1    C315807   3.473   6.080  13.003 -0.2275 -0.2030 -0.0160
  130CHL1    H315808   3.385   6.135  12.964 -2.0882 -1.9940  1.3864
  130CHL1    O315809   3.542   6.042  12.884 -0.3583 -0.1038 -0.4219
  130CHL1   H3'15810   3.582   6.121  12.848 -1.9347  1.2507  0.6572
  130CHL1    C415811   3.558   6.153  13.104 -0.3316 -0.9703 -0.2027
  130CHL1   H4A15812   3.646   6.087  13.120 -0.1694 -0.6800  0.1124
  130CHL1   H4B15813   3.601   6.248  13.064 -1.2996 -1.1448 -1.7577
  130CHL1    C515814   3.484   6.178  13.235  0.1818  0.1347 -0.2410
  130CHL1    C615815   3.474   6.306  13.267 -0.0425 -0.2193 -0.5689
  130CHL1    H615816   3.542   6.381  13.226  1.0644 -1.4725 -1.0860
  130CHL1    C715817   3.394   6.340  13.387  0.5096  0.9546 -0.1947
  130CHL1   H7A15818   3.442   6.429  13.434  0.0152  0.4283  1.3539
  130CHL1   H7B15819   3.294   6.365  13.347  0.5271  1.9653  0.3557
  130CHL1    C815820   3.381   6.229  13.489 -0.0113  1.2361  0.9068
  130CHL1    H815821   3.481   6.202  13.530 -0.4855 -2.1718  0.0882
  130CHL1   C1415822   3.282   6.269  13.597  0.1612 -0.3807  0.6777
  130CHL1   H1415823   3.191   6.302  13.542  0.2320 -2.3652 -0.7275
  130CHL1   C1515824   3.317   6.394  13.674 -0.3208 -0.3871 -0.3052
  130CHL1  H15A15825   3.426   6.383  13.690 -0.4577  1.0552  2.1816
  130CHL1  H15B15826   3.312   6.497  13.632  1.1472 -0.2427 -0.1853
  130CHL1   C1615827   3.244   6.372  13.810 -0.0031 -0.0598  0.1520
  130CHL1  H16A15828   3.310   6.377  13.899 -0.6911  1.5593  0.5963
  130CHL1  H16B15829   3.169   6.454  13.813 -0.0445 -0.0987  0.1895
  130CHL1   C1715830   3.166   6.237  13.800 -0.5101 -0.3936  0.3847
  130CHL1   H1715831   3.072   6.256  13.744 -0.3393  0.6675  0.4334
  130CHL1   C1315832   3.244   6.157  13.697 -0.5936  0.1450 -0.3621
  130CHL1   C1815833   3.374   6.102  13.760 -0.5212 -0.2390 -0.7121
  130CHL1  H18A15834   3.447   6.084  13.679 -0.2683  1.0337 -0.7831
  130CHL1  H18B15835   3.412   6.175  13.835  0.2724 -2.2312  0.9156
  130CHL1  H18C15836   3.357   6.003  13.808  0.0703 -0.7426 -1.5302
  130CHL1   C1215837   3.169   6.059  13.598  0.0861  0.5094 -0.4649
  130CHL1  H12A15838   3.114   5.974  13.644 -0.0932  0.5999 -0.5077
  130CHL1  H12B15839   3.098   6.117  13.535  0.4811  0.1970 -1.2082
  130CHL1   C1115840   3.266   5.997  13.499 -0.3025  0.3047  0.5086
  130CHL1  H11A15841   3.344   5.931  13.542 -0.6564 -0.4956 -0.0504
  130CHL1  H11B15842   3.208   5.934  13.428  0.2333  0.1151  0.2312
  130CHL1    C915843   3.323   6.107  13.409  0.1091  0.4013  0.5327
  130CHL1    H915844   3.236   6.149  13.354  0.4860 -0.2100 -0.5720
  130CHL1   C1015845   3.416   6.057  13.301  0.2827 -0.0926  1.5384
  130CHL1   C1915846   3.533   5.969  13.349 -0.6196 -0.1854  0.5428
  130CHL1  H19A15847   3.586   6.022  13.430  4.3059 -2.6677 -0.6387
  130CHL1  H19B15848   3.484   5.879  13.392 -0.6348 -0.6946 -0.4895
  130CHL1  H19C15849   3.601   5.945  13.264 -0.6931 -1.6546  0.8674
  130CHL1    C115850   3.331   5.986  13.192 -0.6132  0.0372 -0.0648
  130CHL1   H1A15851   3.290   5.891  13.231  1.9218 -1.0144  0.2422
  130CHL1   H1B15852   3.252   6.059  13.164 -0.2685  0.5636  0.2967
  130CHL1    C215853   3.414   5.956  13.065  0.0249 -0.0356 -0.7246
  130CHL1   H2A15854   3.350   5.918  12.982 -0.4786  1.9656 -1.2873
  130CHL1   H2B15855   3.493   5.885  13.097 -1.5945 -0.9092  1.6301
  130CHL1   C2015856   3.134   6.169  13.937 -0.0967 -0.0815  0.0720
  130CHL1   H2015857   3.231   6.145  13.986 -0.8050 -2.4424  0.4366
  130CHL1   C2115858   3.052   6.043  13.928 -0.0889 -0.1504 -0.2597
  130CHL1  H21A15859   3.063   5.984  14.022 -1.5017  0.2296  0.1581
  130CHL1  H21B15860   3.094   5.970  13.854  0.1513  0.2621 -0.5372
  130CHL1  H21C15861   2.947   6.058  13.895  0.4912  1.0453 -1.6946
  130CHL1   C2215862   3.049   6.263  14.027  0.4946 -0.2337  0.6663
  130CHL1  H22A15863   3.082   6.369  14.026 -2.6495  0.8780 -1.6063
  130CHL1  H22B15864   2.946   6.277  13.987 -0.3093 -0.9894  2.3552
  130CHL1   C2315865   3.029   6.218  14.171 -0.3304 -0.3354 -0.1483
  130CHL1  H23A15866   2.977   6.121  14.177 -0.6928 -0.1329  0.0305
  130CHL1  H23B15867   3.132   6.220  14.214  0.3225  0.6330 -1.6710
  130CHL1   C2415868   2.963   6.330  14.244  0.5548  0.0976  0.6437
  130CHL1  H24A15869   3.035   6.414  14.255  1.5452 -0.3965 -1.5807
  130CHL1  H24B15870   2.883   6.364  14.174  0.5846 -0.5907  0.2705
  130CHL1   C2515871   2.903   6.292  14.376  0.1384  0.4696 -0.9432
  130CHL1   H2515872   2.847   6.196  14.376  0.2171  0.4232 -0.9786
  130CHL1   C2615873   3.020   6.282  14.478  1.0283  0.3765 -0.2689
  130CHL1  H26A15874   3.108   6.223  14.443  1.3270  0.9928 -0.5849
  130CHL1  H26B15875   3.060   6.385  14.495 -0.0714  1.2060 -2.3230
  130CHL1  H26C15876   2.966   6.241  14.566  0.1862  0.6548 -0.6464
  130CHL1   C2715877   2.796   6.397  14.422 -0.4972 -0.3881  0.0253
  130CHL1  H27A15878   2.833   6.502  14.421 -1.2979 -0.0469  1.7211
  130CHL1  H27B15879   2.712   6.402  14.351  0.5627  1.6938 -1.1738
  130CHL1  H27C15880   2.764   6.369  14.525  2.6337  1.0642  1.5402
  131CHL1    C315881   2.234   4.945  13.657  0.0484 -0.2744  0.3273
  131CHL1    H315882   2.140   4.933  13.716  1.7415 -1.9783  2.8465
  131CHL1    O315883   2.207   4.894  13.529 -0.0019  0.1564  0.3385
  131CHL1   H3'15884   2.295   4.887  13.491 -0.6389 -1.5331 -0.9467
  131CHL1    C415885   2.255   5.096  13.646  0.1955  0.0961  0.2112
  131CHL1   H4A15886   2.332   5.124  13.571 -1.6862  0.3252 -1.7414
  131CHL1   H4B15887   2.156   5.135  13.616  1.1216  1.4970 -1.2048
  131CHL1    C515888   2.291   5.159  13.781  0.0408  0.1189  0.9883
  131CHL1    C615889   2.224   5.266  13.834 -0.1327 -0.2591 -0.0042
  131CHL1    H615890   2.133   5.303  13.785 -1.0095 -2.2793 -0.0194
  131CHL1    C715891   2.269   5.336  13.964  0.1480 -0.0933 -0.4549
  131CHL1   H7A15892   2.267   5.446  13.949  2.5747 -0.3476 -4.0940
  131CHL1   H7B15893   2.194   5.313  14.043  0.0816  1.0035 -0.1839
  131CHL1    C815894   2.415   5.301  14.011 -0.1226  0.3124  0.7732
  131CHL1    H815895   2.478   5.365  13.945  0.2764 -1.5564 -0.7729
  131CHL1   C1415896   2.437   5.347  14.148  0.0909 -1.3919  0.7038
  131CHL1   H1415897   2.367   5.296  14.218 -0.6196 -2.6114 -0.8367
  131CHL1   C1515898   2.415   5.495  14.178 -0.2944  0.5924 -0.1616
  131CHL1  H15A15899   2.454   5.562  14.099  2.4138 -0.1242  0.4412
  131CHL1  H15B15900   2.309   5.512  14.208 -0.0573 -0.1142  1.1739
  131CHL1   C1615901   2.485   5.504  14.315  0.1727 -0.0486 -0.2097
  131CHL1  H16A15902   2.539   5.601  14.312  0.7604 -0.3847 -0.6739
  131CHL1  H16B15903   2.409   5.508  14.396  0.5351 -1.1996  0.2079
  131CHL1   C1715904   2.569   5.376  14.328 -0.1864  0.3066  0.0005
  131CHL1   H1715905   2.498   5.312  14.386 -0.8506  0.9371 -0.1000
  131CHL1   C1315906   2.582   5.315  14.186 -1.0410  0.0435 -0.1939
  131CHL1   C1815907   2.698   5.391  14.104 -0.6059 -0.5394 -0.1406
  131CHL1  H18A15908   2.797   5.366  14.149  1.0904  2.1423 -2.1221
  131CHL1  H18B15909   2.712   5.358  13.999  0.4759  0.8368 -0.4645
  131CHL1  H18C15910   2.672   5.499  14.103 -0.7039 -0.5504  0.6424
  131CHL1   C1215911   2.608   5.161  14.188  0.1208  0.6228 -0.0693
  131CHL1  H12A15912   2.713   5.138  14.219 -0.4998 -1.5291  0.6017
  131CHL1  H12B15913   2.536   5.113  14.257 -0.2060 -1.5845 -1.8184
  131CHL1   C1115914   2.576   5.101  14.053  0.0604  0.3294  0.7378
  131CHL1  H11A15915   2.662   5.122  13.986  0.6161 -0.8489  1.0473
  131CHL1  H11B15916   2.575   4.991  14.068 -0.7176  0.4475  1.6047
  131CHL1    C915917   2.444   5.150  13.989 -0.0458 -0.7090  0.0694
  131CHL1    H915918   2.371   5.104  14.059 -0.9063  0.7318  0.1673
  131CHL1   C1015919   2.414   5.099  13.845 -0.2038 -0.6103 -0.4009
  131CHL1   C1915920   2.531   5.145  13.759  0.2500 -0.2179  0.2022
  131CHL1  H19A15921   2.626   5.095  13.790  2.0389  2.1905 -1.0150
  131CHL1  H19B15922   2.521   5.120  13.652  0.9000 -1.0285  0.3191
  131CHL1  H19C15923   2.555   5.254  13.758 -0.6620 -0.0096 -1.0409
  131CHL1    C115924   2.406   4.946  13.851  0.2233 -0.4227  0.6301
  131CHL1   H1A15925   2.504   4.906  13.886  1.6071  2.0733 -0.1611
  131CHL1   H1B15926   2.328   4.916  13.925 -1.7060  0.5633 -0.9051
  131CHL1    C215927   2.365   4.885  13.713  0.6575 -0.2823 -0.0104
  131CHL1   H2A15928   2.368   4.774  13.719  1.3089 -0.2236  1.1258
  131CHL1   H2B15929   2.446   4.916  13.644  0.0076 -1.5137 -1.3655
  131CHL1   C2015930   2.692   5.392  14.418  0.4627  0.0831 -0.2796
  131CHL1   H2015931   2.760   5.454  14.355 -0.3743  1.8810  0.5048
  131CHL1   C2115932   2.766   5.264  14.441  0.3794  0.4914  0.5012
  131CHL1  H21A15933   2.820   5.228  14.350  0.1284  0.8739  0.1967
  131CHL1  H21B15934   2.693   5.188  14.478 -0.4953  1.4513  0.7975
  131CHL1  H21C15935   2.847   5.269  14.516  0.0028 -1.0498  1.0568
  131CHL1   C2215936   2.649   5.464  14.551 -0.8638  0.0718 -0.1083
  131CHL1  H22A15937   2.747   5.466  14.603 -0.9460  0.0480  0.0469
  131CHL1  H22B15938   2.620   5.567  14.522  0.8239  0.6479  0.1425
  131CHL1   C2315939   2.554   5.387  14.638  0.1485 -0.0354  1.0134
  131CHL1  H23A15940   2.465   5.370  14.574  1.1682 -0.5815 -0.2838
  131CHL1  H23B15941   2.584   5.284  14.667  1.8179 -0.0584 -0.6186
  131CHL1   C2415942   2.508   5.471  14.758 -0.3034 -0.0289 -0.0861
  131CHL1  H24A15943   2.597   5.505  14.816 -0.0859 -0.5549 -0.1078
  131CHL1  H24B15944   2.436   5.545  14.718 -0.1321 -0.3670 -1.0271
  131CHL1   C2515945   2.426   5.382  14.858  0.5791 -0.9496  0.4275
  131CHL1   H2515946   2.500   5.303  14.883  1.2420  0.1926  2.2122
  131CHL1   C2615947   2.395   5.473  14.981 -0.1990 -0.8382 -0.0350
  131CHL1  H26A15948   2.317   5.547  14.953  0.1532  0.4983  2.2386
  131CHL1  H26B15949   2.336   5.416  15.057  2.6264 -3.7139  0.1971
  131CHL1  H26C15950   2.488   5.522  15.019  0.3296 -0.5529 -1.6338
  131CHL1   C2715951   2.300   5.313  14.797  0.8504  0.5090 -0.0284
  131CHL1  H27A15952   2.265   5.237  14.870 -0.4853  0.7827 -0.3630
  131CHL1  H27B15953   2.214   5.382  14.784 -1.7134 -2.1728  1.4908
  131CHL1  H27C15954   2.315   5.265  14.698 -0.9183 -0.1435 -0.0156
  132CHL1    C315955   5.329   6.392  13.370  0.3809 -0.4111  0.2468
  132CHL1    H315956   5.305   6.496  13.338  4.0662 -0.4280 -3.4226
  132CHL1    O315957   5.376   6.342  13.249 -0.4598 -0.1697 -0.8879
  132CHL1   H3'15958   5.441   6.274  13.269 -1.2613 -0.4821  0.8567
  132CHL1    C415959   5.430   6.364  13.486  0.7461  0.0507  0.5817
  132CHL1   H4A15960   5.455   6.256  13.483  2.9860  0.5263 -1.7138
  132CHL1   H4B15961   5.522   6.417  13.454  1.1720 -0.4095  1.0382
  132CHL1    C515962   5.367   6.409  13.612  0.5619 -0.1913  0.4720
  132CHL1    C615963   5.427   6.500  13.694 -0.7074  0.7989 -0.6173
  132CHL1    H615964   5.525   6.537  13.663 -1.4351  1.8125 -1.7858
  132CHL1    C715965   5.386   6.541  13.835 -0.1730 -0.3469  0.0429
  132CHL1   H7A15966   5.471   6.528  13.905 -0.1758  2.0487  0.5864
  132CHL1   H7B15967   5.370   6.651  13.839  3.3351  0.2711  0.5242
  132CHL1    C815968   5.268   6.456  13.888 -1.0496  0.1933  0.3298
  132CHL1    H815969   5.322   6.367  13.927 -0.3624  1.2223  1.7914
  132CHL1   C1415970   5.197   6.531  13.998 -0.7406  0.1981 -0.5274
  132CHL1   H1415971   5.145   6.619  13.954 -2.1152  0.1454  0.9031
  132CHL1   C1515972   5.275   6.592  14.113  0.3677 -0.8896 -0.4095
  132CHL1  H15A15973   5.355   6.526  14.153  2.0141 -0.0959 -2.2417
  132CHL1  H15B15974   5.331   6.683  14.084 -0.5299 -0.2412 -0.1420
  132CHL1   C1615975   5.166   6.624  14.222  0.3315 -0.1177  0.1587
  132CHL1  H16A15976   5.203   6.589  14.320  1.0838  0.0885 -0.0378
  132CHL1  H16B15977   5.159   6.733  14.240 -0.2923 -0.0604 -0.3877
  132CHL1   C1715978   5.042   6.552  14.171 -0.1765  0.3418  0.7514
  132CHL1   H1715979   4.986   6.630  14.114 -0.5850 -2.5341 -3.2773
  132CHL1   C1315980   5.083   6.449  14.064  0.4745 -1.1380 -0.2115
  132CHL1   C1815981   5.130   6.310  14.123 -0.1114 -0.7935  0.2938
  132CHL1  H18A15982   5.041   6.256  14.163  0.0028  1.0457  3.3575
  132CHL1  H18B15983   5.188   6.244  14.054  1.0275  2.2221 -1.8479
  132CHL1  H18C15984   5.187   6.323  14.218 -0.3653 -1.4049  0.5384
  132CHL1   C1215985   4.981   6.417  13.951 -0.3370  0.3939  0.2193
  132CHL1  H12A15986   4.912   6.344  13.999  0.2057 -0.2106  0.0978
  132CHL1  H12B15987   4.924   6.508  13.924 -1.0803  0.4927  2.0267
  132CHL1   C1115988   5.046   6.342  13.829  0.1376 -0.0163 -0.4408
  132CHL1  H11A15989   5.075   6.241  13.863  0.0192  0.0348 -0.1883
  132CHL1  H11B15990   4.981   6.342  13.739  2.7354 -0.4409 -2.4252
  132CHL1    C915991   5.174   6.417  13.775 -0.3544 -0.2272  0.0945
  132CHL1    H915992   5.126   6.512  13.742 -0.4498  0.5320  2.2504
  132CHL1   C1015993   5.233   6.354  13.650  0.1148  0.5921 -0.2380
  132CHL1   C1915994   5.245   6.198  13.679  0.5181  0.4911  0.5952
  132CHL1  H19A15995   5.300   6.182  13.774  1.5750 -2.6146 -0.4017
  132CHL1  H19B15996   5.151   6.139  13.686  2.4553 -3.2596 -1.4971
  132CHL1  H19C15997   5.313   6.151  13.604  1.0098  0.8168  0.8265
  132CHL1    C115998   5.140   6.368  13.525  0.3675  0.1420  0.7834
  132CHL1   H1A15999   5.048   6.309  13.546  0.9382 -0.4758  1.5917
  132CHL1   H1B16000   5.106   6.473  13.514  1.5080  0.5052  0.6621
  132CHL1    C216001   5.196   6.318  13.394  0.2124  0.6423 -0.0829
  132CHL1   H2A16002   5.127   6.326  13.307 -2.0800  0.5220  1.6598
  132CHL1   H2B16003   5.211   6.211  13.419 -0.8190  0.7827  1.1957
  132CHL1   C2016004   4.946   6.518  14.279  0.4091 -0.1108  0.2573
  132CHL1   H2016005   4.983   6.432  14.340 -0.7533 -0.5146  0.4189
  132CHL1   C2116006   4.810   6.483  14.215  0.5482 -0.6433  0.3548
  132CHL1  H21A16007   4.770   6.571  14.159 -1.3201 -2.4402 -1.2734
  132CHL1  H21B16008   4.740   6.450  14.294  0.8796  0.7927  1.2985
  132CHL1  H21C16009   4.816   6.398  14.144  1.4287 -1.2632  1.1535
  132CHL1   C2216010   4.926   6.628  14.386  0.3245  0.3013 -0.2128
  132CHL1  H22A16011   5.026   6.651  14.427 -0.0893  2.3397 -0.2519
  132CHL1  H22B16012   4.881   6.718  14.338 -2.4358 -1.2575 -0.7968
  132CHL1   C2316013   4.840   6.585  14.506 -0.6125  0.8322  0.3580
  132CHL1  H23A16014   4.737   6.571  14.467  0.0535 -0.3088 -1.0874
  132CHL1  H23B16015   4.875   6.486  14.543 -1.1220  0.5940  0.2043
  132CHL1   C2416016   4.830   6.686  14.620 -0.3986 -0.6324 -0.1606
  132CHL1  H24A16017   4.934   6.710  14.650  0.8160 -2.2636 -2.7339
  132CHL1  H24B16018   4.784   6.781  14.586  2.9671  1.6260  1.0356
  132CHL1   C2516019   4.764   6.636  14.750  0.2753  0.4770  0.6014
  132CHL1   H2516020   4.795   6.530  14.764 -1.0976 -0.2148 -1.1955
  132CHL1   C2616021   4.814   6.728  14.868  0.3017  0.2801 -0.0519
  132CHL1  H26A16022   4.786   6.695  14.971  0.6597 -0.5154 -0.2035
  132CHL1  H26B16023   4.925   6.721  14.866  0.6270  2.8987  2.2380
  132CHL1  H26C16024   4.778   6.832  14.854  0.1709  0.0615 -1.4998
  132CHL1   C2716025   4.616   6.643  14.735 -0.1835 -0.4170 -0.1156
  132CHL1  H27A16026   4.573   6.624  14.835  0.1241  1.4639  0.3991
  132CHL1  H27B16027   4.580   6.741  14.696  0.3860 -0.2325 -0.1833
  132CHL1  H27C16028   4.574   6.565  14.668 -0.6972  0.2279 -0.5568
  133CHL1    C316029   0.875   2.416  13.842 -0.3167  0.1690  0.3910
  133CHL1    H316030   0.811   2.326  13.859  1.8856 -1.2380  1.8592
  133CHL1    O316031   0.862   2.468  13.714 -0.0644 -0.3566 -0.4919
  133CHL1   H3'16032   0.860   2.395  13.651 -0.1165  1.5714 -2.8421
  133CHL1    C416033   0.860   2.530  13.944  0.0807 -0.2156  0.6201
  133CHL1   H4A16034   0.916   2.617  13.904 -2.1452  0.1751 -1.9201
  133CHL1   H4B16035   0.761   2.578  13.937 -0.3122 -0.6021  2.7011
  133CHL1    C516036   0.899   2.497  14.088 -1.0130  0.8321 -0.0994
  133CHL1    C616037   0.803   2.512  14.183 -0.3022  0.4585  0.0672
  133CHL1    H616038   0.700   2.541  14.157 -1.2146 -3.6758 -1.6798
  133CHL1    C716039   0.834   2.483  14.330  0.7289  0.7909  0.4429
  133CHL1   H7A16040   0.782   2.558  14.393 -0.9665  0.4461 -0.4840
  133CHL1   H7B16041   0.791   2.383  14.351 -0.1193  0.7818 -1.1697
  133CHL1    C816042   0.986   2.470  14.364  0.1788  0.6933  0.2287
  133CHL1    H816043   1.022   2.575  14.361 -0.6099  0.9781  0.5488
  133CHL1   C1416044   1.005   2.400  14.499 -0.4597  0.2668  0.1109
  133CHL1   H1416045   0.958   2.300  14.488 -0.7012  0.0721  2.4501
  133CHL1   C1516046   0.934   2.448  14.625 -0.3397 -0.2206  0.5235
  133CHL1  H15A16047   0.962   2.555  14.625  0.6873 -0.3856 -2.6906
  133CHL1  H15B16048   0.824   2.453  14.638 -0.0357  2.0770  2.9977
  133CHL1   C1616049   1.004   2.382  14.736 -0.5593  0.3177 -0.2778
  133CHL1  H16A16050   1.029   2.456  14.815 -0.0933 -0.4790  0.3238
  133CHL1  H16B16051   0.933   2.323  14.796 -0.9338  0.6069 -0.4344
  133CHL1   C1716052   1.132   2.310  14.680  0.6864  0.1289 -0.1699
  133CHL1   H1716053   1.098   2.206  14.660 -3.1938  1.3138 -0.4975
  133CHL1   C1316054   1.148   2.378  14.545 -0.3002  0.2252  0.1785
  133CHL1   C1816055   1.226   2.514  14.569 -0.1768  0.1127  0.5595
  133CHL1  H18A16056   1.336   2.501  14.580  0.0784 -0.6352 -2.1624
  133CHL1  H18B16057   1.215   2.574  14.476 -2.1198 -0.9853  0.0221
  133CHL1  H18C16058   1.179   2.574  14.649  0.8263  0.5027  0.8737
  133CHL1   C1216059   1.221   2.296  14.436  0.2605 -0.1206  0.0186
  133CHL1  H12A16060   1.331   2.292  14.448  0.4570  1.3118 -1.0490
  133CHL1  H12B16061   1.177   2.195  14.448 -2.1821  0.9774  1.0674
  133CHL1   C1116062   1.203   2.364  14.301  0.0865  0.1790 -0.4829
  133CHL1  H11A16063   1.259   2.460  14.310 -0.6107  0.4154  2.0848
  133CHL1  H11B16064   1.258   2.299  14.229 -3.8888 -1.7413 -2.0851
  133CHL1    C916065   1.060   2.385  14.256 -0.2854  0.1186 -0.2678
  133CHL1    H916066   1.022   2.282  14.271  0.9110 -0.1131  1.5668
  133CHL1   C1016067   1.040   2.436  14.114 -0.4423 -0.1364  0.2939
  133CHL1   C1916068   1.155   2.547  14.085  0.4995  0.1701 -0.0819
  133CHL1  H19A16069   1.244   2.489  14.053  2.1949  1.8498  1.3729
  133CHL1  H19B16070   1.121   2.611  14.001  0.7950 -0.0412 -0.3630
  133CHL1  H19C16071   1.190   2.613  14.166  1.7119  0.7611 -1.0611
  133CHL1    C116072   1.056   2.325  14.004 -0.6224  0.0455 -0.1907
  133CHL1   H1A16073   1.160   2.285  14.004 -0.2400  0.8866 -2.5753
  133CHL1   H1B16074   0.984   2.245  14.031  0.3187 -0.5561  0.6273
  133CHL1    C216075   1.017   2.356  13.857  0.7481  0.3962 -0.1135
  133CHL1   H2A16076   1.039   2.266  13.797  1.3994  1.5097 -1.5999
  133CHL1   H2B16077   1.087   2.438  13.829  0.9295  1.4372  2.9483
  133CHL1   C2016078   1.237   2.297  14.784 -1.1587 -0.3664 -0.1405
  133CHL1   H2016079   1.270   2.399  14.815  0.1453 -1.8723  4.2407
  133CHL1   C2116080   1.363   2.229  14.730  0.0820  0.3606 -0.6324
  133CHL1  H21A16081   1.440   2.230  14.810 -2.0879 -0.6459  1.5706
  133CHL1  H21B16082   1.403   2.282  14.641 -0.2848  1.2727 -0.2616
  133CHL1  H21C16083   1.331   2.126  14.703  0.3244  0.3089 -0.7314
  133CHL1   C2216084   1.197   2.247  14.923  0.1922  0.3517  0.0906
  133CHL1  H22A16085   1.100   2.292  14.951  0.0552 -0.8326  1.6593
  133CHL1  H22B16086   1.184   2.137  14.921 -1.4385  0.5127  0.4691
  133CHL1   C2316087   1.299   2.291  15.024 -0.3155 -0.2969  0.0567
  133CHL1  H23A16088   1.401   2.254  14.999 -0.9921 -2.1762 -0.0862
  133CHL1  H23B16089   1.309   2.401  15.017  2.7273 -0.5884 -2.5821
  133CHL1   C2416090   1.269   2.241  15.166  0.4677  0.2650  0.1190
  133CHL1  H24A16091   1.171   2.280  15.201  1.0258  0.2100  1.8217
  133CHL1  H24B16092   1.258   2.130  15.164 -0.4875  0.3139  1.2382
  133CHL1   C2516093   1.373   2.277  15.274  0.7784 -0.4834  0.6785
  133CHL1   H2516094   1.331   2.258  15.375  1.2159  1.2243  1.2163
  133CHL1   C2616095   1.507   2.197  15.261  0.0885 -0.2566 -0.8391
  133CHL1  H26A16096   1.559   2.196  15.359  0.1310 -0.2680 -0.8612
  133CHL1  H26B16097   1.483   2.095  15.224  2.1878 -1.1184 -0.0087
  133CHL1  H26C16098   1.570   2.241  15.180  1.3125  0.7987  0.6310
  133CHL1   C2716099   1.387   2.428  15.280 -0.0169 -0.1730  0.6321
  133CHL1  H27A16100   1.445   2.451  15.372 -1.5860  1.3199  1.2955
  133CHL1  H27B16101   1.438   2.468  15.189 -0.8465 -2.9295 -1.1714
  133CHL1  H27C16102   1.291   2.482  15.291 -0.1055 -0.6182  2.2349
  134CHL1    C316103   6.129   2.293  13.923  0.2253 -0.5470  0.3380
  134CHL1    H316104   6.207   2.353  13.975 -0.5110  0.9823 -0.2558
  134CHL1    O316105   6.112   2.331  13.789 -0.1184  0.7232  0.4621
  134CHL1   H3'16106   6.059   2.262  13.747 -0.0006  1.6227 -1.2534
  134CHL1    C416107   6.165   2.139  13.935  0.4800  0.5842 -0.5058
  134CHL1   H4A16108   6.071   2.092  13.897  1.4241  0.0729 -2.2777
  134CHL1   H4B16109   6.247   2.120  13.863  0.6786  1.6110 -0.5574
  134CHL1    C516110   6.189   2.099  14.082  0.2207 -0.2422  0.4446
  134CHL1    C616111   6.310   2.061  14.128  0.6982  0.1572  0.4049
  134CHL1    H616112   6.392   2.044  14.057 -0.9615 -1.2226 -1.2932
  134CHL1    C716113   6.334   2.039  14.270 -0.3508 -0.5077 -0.5769
  134CHL1   H7A16114   6.407   1.957  14.287  1.1703  0.9697  0.2652
  134CHL1   H7B16115   6.376   2.128  14.321 -2.0390  1.7203 -2.8595
  134CHL1    C816116   6.196   2.013  14.342  0.5711  0.3962 -0.8883
  134CHL1    H816117   6.149   1.921  14.303 -1.0707  0.3283  1.0592
  134CHL1   C1416118   6.221   2.006  14.493 -0.3384  0.0167  0.6824
  134CHL1   H1416119   6.265   2.103  14.525  0.1459 -0.1973  0.6826
  134CHL1   C1516120   6.316   1.897  14.535  0.5545  0.1994 -0.0985
  134CHL1  H15A16121   6.297   1.795  14.497 -0.1878  0.5122 -0.5853
  134CHL1  H15B16122   6.417   1.920  14.497  0.6012 -1.2716 -0.9300
  134CHL1   C1616123   6.299   1.894  14.683 -0.6840  0.2338 -0.6648
  134CHL1  H16A16124   6.268   1.791  14.711  0.0198  0.0527 -0.5445
  134CHL1  H16B16125   6.394   1.919  14.734  0.8573 -1.5832 -2.4749
  134CHL1   C1716126   6.184   1.992  14.715 -0.4378  0.1204  0.6428
  134CHL1   H1716127   6.220   2.094  14.742  0.6384 -0.4828  1.5355
  134CHL1   C1316128   6.103   1.995  14.582 -0.3324  0.0112 -0.3528
  134CHL1   C1816129   6.030   1.858  14.563 -0.4278 -0.1126 -0.1594
  134CHL1  H18A16130   6.088   1.782  14.619 -0.3297  0.0499 -0.0376
  134CHL1  H18B16131   5.934   1.862  14.618 -1.5589  1.4039 -2.1238
  134CHL1  H18C16132   6.010   1.824  14.459  2.9501  0.8636 -1.2626
  134CHL1   C1216133   6.016   2.110  14.558  0.0249 -0.4524 -0.2047
  134CHL1  H12A16134   5.916   2.093  14.603 -0.5961 -2.6992 -2.2991
  134CHL1  H12B16135   6.059   2.205  14.598 -0.5284 -0.2769 -0.0094
  134CHL1   C1116136   5.975   2.119  14.411 -0.0239  0.3771  0.0267
  134CHL1  H11A16137   5.926   2.022  14.393  2.5986 -0.9323 -0.5620
  134CHL1  H11B16138   5.906   2.202  14.387  0.1732  0.3934 -0.4967
  134CHL1    C916139   6.099   2.128  14.315  0.0288  0.1730 -0.4002
  134CHL1    H916140   6.152   2.220  14.350 -1.1938  0.9969 -0.6374
  134CHL1   C1016141   6.065   2.136  14.167  0.1098 -0.2738  0.4059
  134CHL1   C1916142   5.960   2.028  14.139 -0.0044  0.1820  0.1584
  134CHL1  H19A16143   5.923   2.042  14.035  3.7784  0.6802 -1.2659
  134CHL1  H19B16144   5.992   1.922  14.147 -0.5736 -0.4132 -3.5975
  134CHL1  H19C16145   5.866   2.033  14.199  0.2867  1.6568  0.5429
  134CHL1    C116146   6.013   2.276  14.141  0.2581 -1.2075 -0.2916
  134CHL1   H1A16147   5.919   2.295  14.198  1.2837  0.3964  0.9749
  134CHL1   H1B16148   6.081   2.357  14.174 -0.1520 -0.9620 -0.0453
  134CHL1    C216149   5.997   2.317  13.994 -0.3118 -0.0331  0.1229
  134CHL1   H2A16150   5.969   2.425  13.999  2.5496  0.9439 -2.1296
  134CHL1   H2B16151   5.911   2.266  13.945  2.1462 -4.0984 -0.4251
  134CHL1   C2016152   6.112   1.951  14.841 -0.6174 -0.4616  0.1564
  134CHL1   H2016153   6.067   1.852  14.817  1.4769 -1.6257  0.6638
  134CHL1   C2116154   6.003   2.050  14.871  0.7991  0.4037  0.4310
  134CHL1  H21A16155   5.910   2.020  14.817  0.8729  0.9507 -0.0013
  134CHL1  H21B16156   6.034   2.155  14.852  1.5359  0.0327 -0.4988
  134CHL1  H21C16157   5.970   2.046  14.977  0.6009 -1.0624  0.3445
  134CHL1   C2216158   6.201   1.927  14.963 -0.6727 -0.1346 -0.3179
  134CHL1  H22A16159   6.287   1.860  14.944  1.0073  1.4984  1.1707
  134CHL1  H22B16160   6.246   2.020  15.004  0.3001 -0.1194 -1.3709
  134CHL1   C2316161   6.127   1.849  15.080 -0.1567 -0.9953  0.5811
  134CHL1  H23A16162   6.051   1.918  15.121  0.5161  0.1252  0.0125
  134CHL1  H23B16163   6.081   1.754  15.046  0.4313 -1.7419  1.7815
  134CHL1   C2416164   6.218   1.834  15.202  0.0558  0.9906  0.3003
  134CHL1  H24A16165   6.303   1.768  15.177 -1.3425 -1.4858  1.6080
  134CHL1  H24B16166   6.260   1.934  15.223  1.3913  0.2948  1.0450
  134CHL1   C2516167   6.146   1.791  15.337 -0.2663  0.2843 -0.2101
  134CHL1   H2516168   6.047   1.838  15.357 -0.3409 -0.3896  1.0895
  134CHL1   C2616169   6.130   1.637  15.354 -0.3864 -0.1436  0.2008
  134CHL1  H26A16170   6.052   1.604  15.281 -1.4489 -0.0721  1.2665
  134CHL1  H26B16171   6.228   1.587  15.345 -1.2676 -1.7622 -1.0041
  134CHL1  H26C16172   6.092   1.613  15.456  0.2284 -0.0241  0.4576
  134CHL1   C2716173   6.233   1.834  15.450 -0.1040  0.0975 -0.3224
  134CHL1  H27A16174   6.338   1.806  15.428 -0.1827 -0.8871  0.4438
  134CHL1  H27B16175   6.232   1.945  15.454  2.5878  0.1971 -1.0071
  134CHL1  H27C16176   6.207   1.797  15.552  0.9907 -0.7438 -0.3229
  135CHL1    C316177   6.592   2.801  13.823  0.3450 -0.4953 -0.9922
  135CHL1    H316178   6.485   2.818  13.799 -0.6755  0.6487  3.4017
  135CHL1    O316179   6.669   2.815  13.709 -0.7215  0.2224  0.9411
  135CHL1   H3'16180   6.682   2.909  13.694  0.5534  0.1863  1.6839
  135CHL1    C416181   6.638   2.892  13.939 -0.0555  0.0569  0.2525
  135CHL1   H4A16182   6.749   2.889  13.943 -0.0457 -1.5847 -0.5206
  135CHL1   H4B16183   6.620   2.999  13.914  2.5812  0.4653 -0.1947
  135CHL1    C516184   6.564   2.854  14.063  0.1699 -0.4719 -0.2087
  135CHL1    C616185   6.488   2.944  14.133  0.2439 -0.4442  0.5459
  135CHL1    H616186   6.484   3.043  14.085  3.1934 -0.7065 -0.4318
  135CHL1    C716187   6.412   2.920  14.259 -0.9237  0.2203  0.2647
  135CHL1   H7A16188   6.434   2.999  14.335 -0.4526  0.5227 -0.1769
  135CHL1   H7B16189   6.304   2.925  14.234 -0.8713  0.4511  0.0853
  135CHL1    C816190   6.452   2.784  14.324 -0.5083  0.5650  0.2892
  135CHL1    H816191   6.556   2.801  14.359 -0.6646  0.1888  0.9313
  135CHL1   C1416192   6.359   2.749  14.431  0.3013  0.1433 -1.1223
  135CHL1   H1416193   6.266   2.719  14.378  0.7018 -1.6893 -0.8643
  135CHL1   C1516194   6.305   2.852  14.531 -0.5037  0.7365 -0.0476
  135CHL1  H15A16195   6.382   2.930  14.548 -1.0480  2.5673 -4.4530
  135CHL1  H15B16196   6.214   2.900  14.489 -1.7650 -1.0420  0.5326
  135CHL1   C1616197   6.264   2.778  14.660  0.1583 -0.1195 -0.1523
  135CHL1  H16A16198   6.334   2.789  14.746  0.1208 -2.8004  0.2878
  135CHL1  H16B16199   6.157   2.794  14.686 -0.0762 -0.0640 -1.1410
  135CHL1   C1716200   6.276   2.628  14.616 -0.2880 -0.4234 -0.0812
  135CHL1   H1716201   6.189   2.602  14.553  0.6263 -1.5952 -0.9200
  135CHL1   C1316202   6.392   2.629  14.509  0.2619 -1.1230 -1.2982
  135CHL1   C1816203   6.531   2.648  14.579 -0.4205 -0.3343 -0.5631
  135CHL1  H18A16204   6.604   2.685  14.503 -0.0304 -0.5076 -0.2771
  135CHL1  H18B16205   6.530   2.725  14.659 -0.3967  2.3247 -2.9541
  135CHL1  H18C16206   6.569   2.553  14.621 -0.4256  0.5725  1.6135
  135CHL1   C1216207   6.396   2.505  14.416 -0.5021 -0.0500  0.1545
  135CHL1  H12A16208   6.439   2.414  14.462  2.8522  1.3656  0.1039
  135CHL1  H12B16209   6.290   2.480  14.393 -0.7073  1.7639 -1.1243
  135CHL1   C1116210   6.484   2.535  14.293  0.0392  0.2344  0.4088
  135CHL1  H11A16211   6.588   2.535  14.333  0.3979 -0.1144 -0.5004
  135CHL1  H11B16212   6.483   2.451  14.220  1.9483  0.2626  0.2917
  135CHL1    C916213   6.469   2.675  14.215  0.0452 -0.2493  0.1653
  135CHL1    H916214   6.368   2.682  14.169 -1.1749  1.0424  2.7919
  135CHL1   C1016215   6.571   2.706  14.107 -0.4185  0.7196  0.0904
  135CHL1   C1916216   6.712   2.673  14.161  0.7941 -0.1827  0.6662
  135CHL1  H19A16217   6.719   2.697  14.269 -0.0007 -0.6664  0.8279
  135CHL1  H19B16218   6.735   2.565  14.147  0.6992 -0.0323 -0.8293
  135CHL1  H19C16219   6.793   2.729  14.110 -1.0488  0.7140 -1.4476
  135CHL1    C116220   6.530   2.619  13.982 -0.0093 -0.2654 -0.5769
  135CHL1   H1A16221   6.545   2.509  13.990  0.5510 -0.1945 -0.6062
  135CHL1   H1B16222   6.424   2.632  13.951  0.3208 -0.2648 -1.7499
  135CHL1    C216223   6.614   2.653  13.860 -0.2517  1.0345 -0.7728
  135CHL1   H2A16224   6.586   2.592  13.771 -0.8689 -1.8535  1.2479
  135CHL1   H2B16225   6.721   2.628  13.881  0.4678  2.1227 -2.8646
  135CHL1   C2016226   6.291   2.531  14.733  0.4458  0.3089  0.8524
  135CHL1   H2016227   6.392   2.539  14.779  0.1875  2.1732  1.1823
  135CHL1   C2116228   6.283   2.385  14.684 -0.2711  0.1380  0.4001
  135CHL1  H21A16229   6.367   2.345  14.623 -1.4386 -1.3294 -0.3178
  135CHL1  H21B16230   6.194   2.366  14.620  1.3497 -1.3477 -1.5411
  135CHL1  H21C16231   6.275   2.321  14.774 -1.4516  1.7066  1.4858
  135CHL1   C2216232   6.189   2.562  14.843  0.1471 -0.2986  0.2675
  135CHL1  H22A16233   6.194   2.669  14.872  1.1891 -0.3830  0.4305
  135CHL1  H22B16234   6.093   2.539  14.791  0.9257 -1.1992 -0.8318
  135CHL1   C2316235   6.186   2.467  14.973 -0.1681 -0.3745 -0.8163
  135CHL1  H23A16236   6.185   2.363  14.936  1.7340 -0.5270 -0.5026
  135CHL1  H23B16237   6.278   2.475  15.034 -2.0293 -0.6396  2.2431
  135CHL1   C2416238   6.062   2.487  15.066 -0.4295 -0.9265  0.0253
  135CHL1  H24A16239   6.087   2.571  15.134 -0.5420  0.5807 -1.7272
  135CHL1  H24B16240   5.967   2.512  15.014  0.4006  3.4313  0.2536
  135CHL1   C2516241   6.012   2.360  15.144 -0.3578  0.1928 -0.3319
  135CHL1   H2516242   6.006   2.282  15.065  1.9185  1.6491 -2.0552
  135CHL1   C2616243   6.122   2.307  15.233  0.2493  0.1095 -0.2826
  135CHL1  H26A16244   6.158   2.375  15.314 -0.8242  0.5773 -0.1768
  135CHL1  H26B16245   6.092   2.210  15.279 -0.7226 -0.2196 -1.5551
  135CHL1  H26C16246   6.213   2.286  15.174  0.3254 -0.4743  0.0302
  135CHL1   C2716247   5.877   2.376  15.204 -0.5018 -0.3518  0.1615
  135CHL1  H27A16248   5.872   2.418  15.306  0.6836  1.3221 -0.4215
  135CHL1  H27B16249   5.817   2.435  15.131 -1.4218  1.5196  2.3107
  135CHL1  H27C16250   5.834   2.274  15.201  2.6835 -1.8103 -2.0560
  136CHL1    C316251   5.429   0.540  13.481 -0.8310  0.5009 -0.2691
  136CHL1    H316252   5.362   0.628  13.491  1.3514  2.0849  1.6772
  136CHL1    O316253   5.436   0.502  13.343 -0.4419  0.2843 -0.0712
  136CHL1   H3'16254   5.346   0.507  13.312 -0.7337  0.4485  0.7697
  136CHL1    C416255   5.570   0.568  13.537  0.0389 -0.7920 -0.3670
  136CHL1   H4A16256   5.645   0.488  13.518  0.6558 -0.5833  1.0534
  136CHL1   H4B16257   5.610   0.658  13.485 -0.2733 -0.1463  0.4880
  136CHL1    C516258   5.569   0.607  13.682 -0.0374 -0.2802 -1.0741
  136CHL1    C616259   5.627   0.714  13.744  0.3965 -0.1818  0.1854
  136CHL1    H616260   5.678   0.784  13.675  0.0200 -1.0939 -1.0553
  136CHL1    C716261   5.640   0.738  13.882 -0.0287 -0.0744  0.2568
  136CHL1   H7A16262   5.742   0.774  13.910  0.2481 -0.6868  0.0594
  136CHL1   H7B16263   5.575   0.817  13.923  0.5916  0.9571 -0.6970
  136CHL1    C816264   5.619   0.603  13.960 -0.7928 -0.6982 -0.4997
  136CHL1    H816265   5.704   0.536  13.934 -0.3822 -0.4440  0.1623
  136CHL1   C1416266   5.613   0.641  14.106 -0.7275 -0.2766 -0.4745
  136CHL1   H1416267   5.526   0.710  14.115 -1.4703 -1.4353  2.3221
  136CHL1   C1516268   5.723   0.723  14.168 -0.1383  0.0095  0.3898
  136CHL1  H15A16269   5.826   0.691  14.139 -0.0760  0.6987 -0.1890
  136CHL1  H15B16270   5.722   0.828  14.132  1.4745 -0.4272 -1.1060
  136CHL1   C1616271   5.706   0.712  14.321  0.5935 -0.0861 -0.5682
  136CHL1  H16A16272   5.796   0.672  14.373 -0.0948  1.3475  1.8889
  136CHL1  H16B16273   5.674   0.811  14.360 -0.3453  0.2178 -2.0163
  136CHL1   C1716274   5.595   0.605  14.341 -0.4226 -0.6292 -0.0080
  136CHL1   H1716275   5.499   0.661  14.352 -1.0103 -1.2039 -1.8552
  136CHL1   C1316276   5.580   0.530  14.207 -0.5029  0.0606 -0.4072
  136CHL1   C1816277   5.698   0.417  14.200 -0.0815 -0.3533 -0.0185
  136CHL1  H18A16278   5.663   0.329  14.258  2.8498 -1.5080  0.1179
  136CHL1  H18B16279   5.716   0.386  14.095 -1.2411  0.8659 -0.6193
  136CHL1  H18C16280   5.791   0.453  14.249 -0.6534  1.5802 -0.2694
  136CHL1   C1216281   5.442   0.474  14.165  0.4272 -0.2097  0.1060
  136CHL1  H12A16282   5.402   0.390  14.226  2.0019 -0.7171  0.4748
  136CHL1  H12B16283   5.367   0.556  14.163 -2.8434 -2.9894 -1.0353
  136CHL1   C1116284   5.447   0.423  14.021 -0.3202 -0.4618  1.0985
  136CHL1  H11A16285   5.511   0.333  14.014 -1.7721 -1.4274 -3.7687
  136CHL1  H11B16286   5.349   0.392  13.978 -1.0475  0.6904  1.8327
  136CHL1    C916287   5.489   0.537  13.920  0.1272  0.9207 -0.5363
  136CHL1    H916288   5.412   0.614  13.940 -0.5409  0.1800 -0.2316
  136CHL1   C1016289   5.496   0.502  13.770 -0.7706 -0.0880 -0.2660
  136CHL1   C1916290   5.587   0.374  13.759  0.3371 -0.0229 -0.0277
  136CHL1  H19A16291   5.544   0.287  13.813  0.6422 -0.7247 -0.8840
  136CHL1  H19B16292   5.597   0.340  13.654 -0.7838  0.6256 -0.3579
  136CHL1  H19C16293   5.690   0.391  13.796  0.3784  0.9796 -0.5625
  136CHL1    C116294   5.354   0.461  13.710  0.7035  0.2828  0.3028
  136CHL1   H1A16295   5.316   0.376  13.771 -2.8815  1.7646  0.3765
  136CHL1   H1B16296   5.289   0.550  13.720  0.8169  0.8277 -2.9405
  136CHL1    C216297   5.369   0.431  13.562  0.2219  0.2261 -0.4852
  136CHL1   H2A16298   5.264   0.419  13.527  0.5891 -0.1718 -1.5072
  136CHL1   H2B16299   5.411   0.328  13.557 -2.8562 -1.2296  1.0790
  136CHL1   C2016300   5.613   0.529  14.479  0.2557 -0.2917  0.7183
  136CHL1   H2016301   5.709   0.474  14.474  0.7419  0.4059  2.0254
  136CHL1   C2116302   5.499   0.433  14.498 -0.3954  0.5205  0.1706
  136CHL1  H21A16303   5.513   0.356  14.419  0.2907 -1.2251  1.9079
  136CHL1  H21B16304   5.396   0.472  14.485 -0.1932  0.7863 -0.6593
  136CHL1  H21C16305   5.515   0.385  14.597  1.3083  2.6858  1.0451
  136CHL1   C2216306   5.625   0.629  14.599 -0.1166  0.1061 -0.6068
  136CHL1  H22A16307   5.706   0.705  14.592  0.1663 -0.0104  1.0725
  136CHL1  H22B16308   5.529   0.683  14.617  0.1674  0.3063  0.3303
  136CHL1   C2316309   5.667   0.549  14.722 -0.3730  1.0645 -0.1775
  136CHL1  H23A16310   5.597   0.467  14.751  1.6159 -0.6472  0.0404
  136CHL1  H23B16311   5.766   0.499  14.722 -0.9400 -0.2186  2.0105
  136CHL1   C2416312   5.660   0.644  14.845 -0.6222  0.0838  0.3216
  136CHL1  H24A16313   5.757   0.697  14.857  0.4473 -1.9340  1.0124
  136CHL1  H24B16314   5.578   0.718  14.831  0.8646  1.4292 -1.8426
  136CHL1   C2516315   5.642   0.574  14.980  0.4420 -0.2089 -0.7413
  136CHL1   H2516316   5.534   0.546  14.983 -0.2465  1.9013 -2.7429
  136CHL1   C2616317   5.729   0.449  14.999  0.3119  0.2908 -0.2996
  136CHL1  H26A16318   5.722   0.365  14.927 -0.3917 -0.8058  1.0077
  136CHL1  H26B16319   5.832   0.484  15.018  0.0812  0.8704 -0.0853
  136CHL1  H26C16320   5.700   0.405  15.097 -1.0827  0.2671 -0.6939
  136CHL1   C2716321   5.670   0.680  15.091 -0.1879 -0.7692 -0.1736
  136CHL1  H27A16322   5.646   0.655  15.197  1.7412  1.2533  0.8113
  136CHL1  H27B16323   5.773   0.720  15.093  0.4618 -2.2511 -1.9002
  136CHL1  H27C16324   5.604   0.770  15.082  3.3437  2.1127  0.5527
  137CHL1    C316325   1.072   1.746  13.547  0.5152  0.4897  0.3189
  137CHL1    H316326   0.969   1.780  13.571  1.0392  0.9355  2.1065
  137CHL1    O316327   1.077   1.734  13.404  1.0551  0.4590 -0.4471
  137CHL1   H3'16328   1.156   1.681  13.393  0.5964 -0.4472  0.5050
  137CHL1    C416329   1.188   1.843  13.602 -0.0896  0.1381  0.1562
  137CHL1   H4A16330   1.283   1.797  13.566 -0.2967 -0.6954  0.6405
  137CHL1   H4B16331   1.155   1.941  13.561 -3.3237 -0.8983 -0.0028
  137CHL1    C516332   1.191   1.853  13.752  0.2239  0.7504  0.4348
  137CHL1    C616333   1.175   1.964  13.821  0.4034 -0.3966 -0.8043
  137CHL1    H616334   1.155   2.062  13.775  3.0051  0.6922  0.1934
  137CHL1    C716335   1.188   1.973  13.970  0.5524 -0.5208 -0.5201
  137CHL1   H7A16336   1.247   2.063  13.998 -0.2762 -0.4731  1.1910
  137CHL1   H7B16337   1.085   1.987  14.010  1.0184  1.1719  0.1920
  137CHL1    C816338   1.237   1.847  14.046  0.5021 -0.5223 -1.3821
  137CHL1    H816339   1.348   1.855  14.041  0.3810  4.0458 -0.9300
  137CHL1   C1416340   1.187   1.841  14.191 -0.0029  0.2757 -0.2815
  137CHL1   H1416341   1.077   1.837  14.187 -0.0084 -0.7036  0.5695
  137CHL1   C1516342   1.212   1.968  14.270 -0.7631 -0.0693 -0.1161
  137CHL1  H15A16343   1.301   2.022  14.232 -0.1899  0.9152  2.4559
  137CHL1  H15B16344   1.134   2.047  14.264 -0.8336 -0.0111  1.2321
  137CHL1   C1616345   1.208   1.921  14.418 -0.3289 -0.4307 -0.4683
  137CHL1  H16A16346   1.310   1.927  14.462  0.0237 -1.5802 -1.0871
  137CHL1  H16B16347   1.136   1.980  14.478  1.0497  3.1065 -2.0374
  137CHL1   C1716348   1.172   1.771  14.402 -0.2128 -0.6098 -0.8678
  137CHL1   H1716349   1.063   1.767  14.382  0.1092  0.0982 -3.1210
  137CHL1   C1316350   1.231   1.720  14.274  0.0236  0.5939  0.5680
  137CHL1   C1816351   1.383   1.697  14.279  0.4617 -0.3566  0.2500
  137CHL1  H18A16352   1.392   1.594  14.321 -3.2695 -1.2117 -0.6551
  137CHL1  H18B16353   1.439   1.705  14.184 -0.9385  0.8294 -0.5040
  137CHL1  H18C16354   1.431   1.765  14.354  1.6914 -0.8322 -0.0745
  137CHL1   C1216355   1.167   1.596  14.202  0.3488 -0.3494 -0.1885
  137CHL1  H12A16356   1.187   1.497  14.249  0.1749 -0.5147 -0.4604
  137CHL1  H12B16357   1.057   1.608  14.199  0.2542 -1.2911 -1.2659
  137CHL1   C1116358   1.213   1.587  14.055 -0.3899 -0.0095 -0.6154
  137CHL1  H11A16359   1.323   1.572  14.052 -0.4222 -1.0406  1.5917
  137CHL1  H11B16360   1.164   1.509  13.993  1.2763 -1.5789 -0.0557
  137CHL1    C916361   1.182   1.725  13.980 -0.3496 -0.2186 -0.0327
  137CHL1    H916362   1.071   1.734  13.979 -0.3004  0.5902 -1.2661
  137CHL1   C1016363   1.209   1.719  13.826 -0.1501 -0.8621  0.5676
  137CHL1   C1916364   1.363   1.674  13.808 -0.0701  0.3763  0.2888
  137CHL1  H19A16365   1.370   1.565  13.828 -0.4046  0.5370  1.3750
  137CHL1  H19B16366   1.403   1.698  13.708 -1.4416  1.8561  0.0388
  137CHL1  H19C16367   1.422   1.738  13.877 -0.5481  0.5885  0.5062
  137CHL1    C116368   1.110   1.613  13.769 -0.0072 -0.2877 -0.3206
  137CHL1   H1A16369   1.134   1.510  13.803  0.3774 -1.2749 -3.2853
  137CHL1   H1B16370   1.007   1.631  13.806  0.6828 -0.6909  1.9303
  137CHL1    C216371   1.089   1.606  13.614  0.7440 -0.4113 -0.3754
  137CHL1   H2A16372   1.010   1.535  13.580  2.5138 -1.5433 -2.3168
  137CHL1   H2B16373   1.186   1.571  13.574  0.3023 -1.5148 -0.5048
  137CHL1   C2016374   1.200   1.692  14.535  0.0691  0.0575 -0.2521
  137CHL1   H2016375   1.309   1.709  14.553 -0.2149  0.7894  0.9221
  137CHL1   C2116376   1.153   1.546  14.523  0.4502 -0.1379  0.5513
  137CHL1  H21A16377   1.166   1.492  14.620  0.1090 -0.6729  0.3047
  137CHL1  H21B16378   1.208   1.484  14.450 -1.3403 -1.8545  0.5739
  137CHL1  H21C16379   1.043   1.541  14.504  0.4044  0.3567  0.6634
  137CHL1   C2216380   1.142   1.769  14.664  0.5409 -0.2602  0.5641
  137CHL1  H22A16381   1.188   1.870  14.668 -0.4501  0.1642  1.7501
  137CHL1  H22B16382   1.031   1.774  14.656  0.4969 -0.0979  1.2399
  137CHL1   C2316383   1.180   1.700  14.791  0.0947 -0.3235  0.2762
  137CHL1  H23A16384   1.126   1.603  14.797 -0.7419  0.2329  2.2715
  137CHL1  H23B16385   1.290   1.685  14.797  0.0631 -0.4900  0.4534
  137CHL1   C2416386   1.140   1.783  14.905  0.1529 -0.9700  0.4503
  137CHL1  H24A16387   1.176   1.888  14.900 -2.8057  0.2139  1.2289
  137CHL1  H24B16388   1.030   1.802  14.905  0.3012  0.0637 -1.2544
  137CHL1   C2516389   1.171   1.732  15.045  0.1053 -0.2472 -0.4538
  137CHL1   H2516390   1.280   1.725  15.066 -0.1867 -2.3321  0.5964
  137CHL1   C2616391   1.105   1.812  15.158 -0.1535  0.5403  0.4019
  137CHL1  H26A16392   1.131   1.762  15.254 -1.6355 -0.6875  0.2084
  137CHL1  H26B16393   1.139   1.917  15.158 -1.0714  0.8867 -1.2920
  137CHL1  H26C16394   0.995   1.816  15.138  0.0128 -0.0379 -0.6955
  137CHL1   C2716395   1.112   1.592  15.055  0.5558 -0.4986  0.5231
  137CHL1  H27A16396   1.110   1.558  15.161  3.7839  0.0905  0.8879
  137CHL1  H27B16397   1.007   1.587  15.020  1.6582  1.7859 -3.8454
  137CHL1  H27C16398   1.164   1.508  15.004 -1.3549 -1.5902  0.2896
  138CHL1    C316399   6.719   1.153  13.191 -0.1415 -0.0848  0.4385
  138CHL1    H316400   6.725   1.050  13.149  0.1330 -0.0483  0.3897
  138CHL1    O316401   6.750   1.232  13.076 -0.8190  0.0358  0.1007
  138CHL1   H3'16402   6.790   1.313  13.107  2.2585 -2.1931  2.6152
  138CHL1    C416403   6.587   1.194  13.265 -0.0977 -0.1331  0.7690
  138CHL1   H4A16404   6.591   1.305  13.262 -0.3139 -0.1434 -0.2489
  138CHL1   H4B16405   6.514   1.167  13.185  0.3650 -0.4382  0.4468
  138CHL1    C516406   6.547   1.133  13.394 -0.8417  0.2831 -0.0373
  138CHL1    C616407   6.430   1.069  13.414 -0.4055  0.2841  0.2258
  138CHL1    H616408   6.356   1.083  13.334 -1.2339  0.1697  0.9598
  138CHL1    C716409   6.393   0.983  13.541  0.4784  0.1735 -0.2565
  138CHL1   H7A16410   6.300   1.011  13.596  2.0157 -0.3805  2.8264
  138CHL1   H7B16411   6.396   0.880  13.500 -4.1932 -0.5700  0.7194
  138CHL1    C816412   6.504   0.996  13.647  0.6669  0.2538 -0.7553
  138CHL1    H816413   6.496   1.087  13.709 -0.6900  0.2879 -0.9505
  138CHL1   C1416414   6.494   0.873  13.746 -0.2798 -0.1686  0.7177
  138CHL1   H1416415   6.508   0.782  13.683 -3.3889  0.0580 -0.4748
  138CHL1   C1516416   6.362   0.853  13.819 -0.3734 -0.6872  0.2212
  138CHL1  H15A16417   6.325   0.953  13.852 -1.0619 -1.1375  0.8627
  138CHL1  H15B16418   6.294   0.804  13.747  0.7205 -3.4358  0.9265
  138CHL1   C1616419   6.394   0.769  13.935  0.1055  0.6136  0.0294
  138CHL1  H16A16420   6.354   0.808  14.031 -1.1922 -2.9880  1.1391
  138CHL1  H16B16421   6.359   0.663  13.930  1.2257  0.1022  2.0659
  138CHL1   C1716422   6.546   0.763  13.945  0.3023 -0.2285  0.2057
  138CHL1   H1716423   6.585   0.679  13.885  0.3133  0.2239 -0.4307
  138CHL1   C1316424   6.600   0.881  13.857 -0.0163  0.2181 -0.1557
  138CHL1   C1816425   6.588   1.008  13.947 -0.6783  0.0245 -0.2393
  138CHL1  H18A16426   6.500   0.993  14.013 -0.3437 -3.0774 -0.3402
  138CHL1  H18B16427   6.677   1.035  14.008 -0.8176  1.9882 -0.8348
  138CHL1  H18C16428   6.569   1.098  13.885 -1.3136 -0.2584 -0.4619
  138CHL1   C1216429   6.736   0.872  13.788 -0.3106 -0.0345 -0.3475
  138CHL1  H12A16430   6.816   0.870  13.866  0.2483 -0.7352 -0.9256
  138CHL1  H12B16431   6.742   0.776  13.732 -2.9056 -1.6718  1.8865
  138CHL1   C1116432   6.758   0.989  13.696  0.4690 -0.3738 -0.1047
  138CHL1  H11A16433   6.767   1.084  13.752  0.7054  0.6355 -1.7795
  138CHL1  H11B16434   6.857   0.966  13.650 -0.1922  0.8248 -2.2431
  138CHL1    C916435   6.646   1.001  13.587  0.1188  0.3141  0.5298
  138CHL1    H916436   6.652   0.906  13.530  0.2330 -1.3084  3.0557
  138CHL1   C1016437   6.666   1.115  13.485  0.4711 -0.5824  0.7616
  138CHL1   C1916438   6.677   1.249  13.552 -0.4036  0.3204 -0.0559
  138CHL1  H19A16439   6.593   1.271  13.621  1.8324 -0.4379  3.1775
  138CHL1  H19B16440   6.770   1.250  13.615  0.9215 -2.1566 -1.7922
  138CHL1  H19C16441   6.694   1.328  13.476  2.0714 -0.0022  0.0640
  138CHL1    C116442   6.800   1.083  13.419  0.6043  0.0674 -0.2920
  138CHL1   H1A16443   6.880   1.101  13.495  1.2755 -2.8256 -0.1905
  138CHL1   H1B16444   6.806   0.975  13.394 -1.2746  0.3212 -2.1456
  138CHL1    C216445   6.830   1.164  13.292  0.3682 -0.5043  1.0873
  138CHL1   H2A16446   6.915   1.115  13.240 -0.9622 -0.9014 -0.8521
  138CHL1   H2B16447   6.847   1.273  13.302  2.1216 -0.1573 -3.2881
  138CHL1   C2016448   6.590   0.746  14.091 -0.0971  0.4163 -0.0276
  138CHL1   H2016449   6.554   0.835  14.147  1.1628  2.0199 -1.6468
  138CHL1   C2116450   6.739   0.727  14.091 -0.1490  0.2689  1.1139
  138CHL1  H21A16451   6.766   0.646  14.020  0.4091  1.1838  0.2516
  138CHL1  H21B16452   6.791   0.702  14.186  0.9808  1.2816  0.7915
  138CHL1  H21C16453   6.795   0.819  14.063  0.1811 -0.0760  0.6344
  138CHL1   C2216454   6.522   0.623  14.161  0.0161  0.3766 -0.0883
  138CHL1  H22A16455   6.412   0.626  14.147 -0.1603  2.2738  1.3562
  138CHL1  H22B16456   6.556   0.527  14.117 -1.4722 -0.8235  1.2745
  138CHL1   C2316457   6.550   0.605  14.317 -0.0338 -0.0571  0.1636
  138CHL1  H23A16458   6.503   0.515  14.362  0.8502 -0.1582  0.9156
  138CHL1  H23B16459   6.661   0.606  14.318 -0.0288  0.9389 -0.4172
  138CHL1   C2416460   6.482   0.728  14.388 -0.8430  0.3090  0.3904
  138CHL1  H24A16461   6.538   0.820  14.361  1.8297 -0.5626  2.6006
  138CHL1  H24B16462   6.377   0.734  14.352 -0.8518  4.1887  0.6217
  138CHL1   C2516463   6.483   0.707  14.534  0.3565 -0.5362 -1.0429
  138CHL1   H2516464   6.457   0.600  14.547  0.9297 -0.7878 -1.8414
  138CHL1   C2616465   6.625   0.740  14.605  0.0832 -0.1341  0.4577
  138CHL1  H26A16466   6.696   0.681  14.543  0.6820  0.2128  0.8141
  138CHL1  H26B16467   6.658   0.845  14.613  1.3487 -0.6145  2.0274
  138CHL1  H26C16468   6.626   0.691  14.705  1.8698 -3.7068 -1.1264
  138CHL1   C2716469   6.373   0.798  14.598  0.1819 -0.2998  0.0618
  138CHL1  H27A16470   6.354   0.774  14.705  4.0267 -1.9803  0.5346
  138CHL1  H27B16471   6.402   0.904  14.581 -0.3627 -0.3607 -1.4452
  138CHL1  H27C16472   6.277   0.781  14.544 -0.3017 -0.1228  0.8500
  139CHL1    C316473   0.298   7.269  13.314  0.1424 -0.2009 -0.4748
  139CHL1    H316474   0.409   7.258  13.310  0.0704 -1.4963  0.4728
  139CHL1    O316475   0.241   7.269  13.183 -0.2926 -0.1925  0.2178
  139CHL1   H3'16476   0.158   7.228  13.209  1.0839 -0.9375  4.0622
  139CHL1    C416477   0.247   7.144  13.396 -0.0873  0.2805  0.1582
  139CHL1   H4A16478   0.136   7.156  13.389 -0.2078 -0.9618 -0.3548
  139CHL1   H4B16479   0.273   7.053  13.337 -1.9033 -0.2391  0.0763
  139CHL1    C516480   0.286   7.134  13.541  0.1836  0.3041 -0.1851
  139CHL1    C616481   0.366   7.039  13.589  0.5825 -0.2867  0.4767
  139CHL1    H616482   0.383   6.956  13.519  1.4339  2.1955 -2.5480
  139CHL1    C716483   0.412   7.033  13.733  0.1718 -1.0123 -0.3038
  139CHL1   H7A16484   0.412   6.929  13.772 -0.5283 -0.7017  0.5580
  139CHL1   H7B16485   0.518   7.066  13.739  0.0665 -0.4513 -1.2902
  139CHL1    C816486   0.336   7.131  13.823 -0.0482  0.4817  0.4638
  139CHL1    H816487   0.235   7.086  13.819 -0.0376  0.5323 -1.6098
  139CHL1   C1416488   0.394   7.142  13.966  0.1677 -0.8963  0.7722
  139CHL1   H1416489   0.498   7.177  13.949  0.2009 -0.0143  2.5657
  139CHL1   C1516490   0.426   7.016  14.053  1.4120 -0.3760 -0.7130
  139CHL1  H15A16491   0.340   6.947  14.063  1.8732 -0.6423  2.5760
  139CHL1  H15B16492   0.510   6.957  14.010  0.1675 -0.4489 -3.1860
  139CHL1   C1616493   0.445   7.079  14.200 -0.1066 -0.4083 -0.4285
  139CHL1  H16A16494   0.377   7.021  14.267 -0.4112  0.6351  0.2003
  139CHL1  H16B16495   0.551   7.069  14.230 -0.7709  0.2906  2.4977
  139CHL1   C1716496   0.402   7.231  14.196  0.7723  0.6626  0.1812
  139CHL1   H1716497   0.493   7.293  14.186  0.2806  1.2376 -0.9542
  139CHL1   C1316498   0.327   7.249  14.061  0.0430 -0.7222 -0.2875
  139CHL1   C1816499   0.181   7.212  14.078  0.7976 -0.0281 -0.3539
  139CHL1  H18A16500   0.128   7.187  13.984  1.2162  0.5871 -0.7596
  139CHL1  H18B16501   0.178   7.124  14.146  1.4003  0.9155  0.9353
  139CHL1  H18C16502   0.120   7.283  14.138 -1.1816 -0.7275 -1.4484
  139CHL1   C1216503   0.342   7.384  13.986 -0.0285  0.2922 -0.5514
  139CHL1  H12A16504   0.298   7.466  14.046  0.0852 -0.7883  1.0559
  139CHL1  H12B16505   0.448   7.408  13.964  0.9633 -0.3996  2.8639
  139CHL1   C1116506   0.269   7.388  13.850  0.0908 -0.2936  0.5993
  139CHL1  H11A16507   0.160   7.378  13.870  0.1534  1.5704  2.1762
  139CHL1  H11B16508   0.280   7.490  13.807 -1.8850  0.0251  0.7546
  139CHL1    C916509   0.320   7.272  13.749  0.0259  0.0806 -0.7823
  139CHL1    H916510   0.426   7.298  13.732  0.4596 -0.3891  1.0307
  139CHL1   C1016511   0.246   7.263  13.621  0.0570  0.1503  0.4115
  139CHL1   C1916512   0.098   7.262  13.644  0.0424 -0.3533 -0.3405
  139CHL1  H19A16513   0.053   7.194  13.719 -0.9491  0.6949  0.0642
  139CHL1  H19B16514   0.047   7.361  13.657 -0.5090 -0.7877  0.9695
  139CHL1  H19C16515   0.048   7.218  13.554 -2.2193 -3.0008  2.0319
  139CHL1    C116516   0.275   7.392  13.531 -0.9244 -0.2256 -0.2101
  139CHL1   H1A16517   0.220   7.475  13.582  0.4623 -0.0522  1.0858
  139CHL1   H1B16518   0.382   7.416  13.549 -0.6882 -0.9711 -0.6220
  139CHL1    C216519   0.239   7.392  13.393  0.5095  0.2587 -0.3451
  139CHL1   H2A16520   0.263   7.491  13.349  0.6143 -0.3687 -1.7496
  139CHL1   H2B16521   0.131   7.372  13.376  1.0769 -0.7174 -3.3998
  139CHL1   C2016522   0.338   7.288  14.324 -0.1970  0.2631 -0.6237
  139CHL1   H2016523   0.235   7.249  14.340 -0.1437  0.6734  0.8633
  139CHL1   C2116524   0.339   7.442  14.319  0.0457 -0.4277 -0.6065
  139CHL1  H21A16525   0.348   7.488  14.420  3.5111 -2.5127  0.2091
  139CHL1  H21B16526   0.263   7.482  14.249 -2.2226 -1.7654  0.9725
  139CHL1  H21C16527   0.439   7.475  14.282  0.3621 -2.1837 -1.4381
  139CHL1   C2216528   0.420   7.237  14.449 -0.1346  0.2417 -0.0891
  139CHL1  H22A16529   0.372   7.279  14.540 -0.4448  0.1455 -0.2084
  139CHL1  H22B16530   0.402   7.128  14.453 -3.4283  0.7186  2.3821
  139CHL1   C2316531   0.572   7.271  14.458  0.4179  0.5287 -0.4438
  139CHL1  H23A16532   0.618   7.217  14.372  2.1752  0.0986  0.7168
  139CHL1  H23B16533   0.581   7.381  14.448 -1.2063  0.5943 -1.6118
  139CHL1   C2416534   0.637   7.225  14.596  0.3217 -0.1127  0.3403
  139CHL1  H24A16535   0.610   7.301  14.672  2.6483  0.7155  0.4085
  139CHL1  H24B16536   0.603   7.122  14.624  0.7043  0.0374  1.3934
  139CHL1   C2516537   0.787   7.209  14.597  0.5985 -0.1968  0.5442
  139CHL1   H2516538   0.819   7.159  14.503 -2.7116  3.2579 -2.7380
  139CHL1   C2616539   0.844   7.354  14.575  0.3269  0.8114  0.4299
  139CHL1  H26A16540   0.850   7.416  14.667 -0.0963 -0.5102  1.3936
  139CHL1  H26B16541   0.947   7.355  14.535 -0.2128  1.0417 -1.0049
  139CHL1  H26C16542   0.785   7.415  14.503  2.3062  2.0830 -0.1717
  139CHL1   C2716543   0.850   7.139  14.715 -0.2887  0.1149 -0.6010
  139CHL1  H27A16544   0.831   7.190  14.812  2.3109 -1.5952  0.9524
  139CHL1  H27B16545   0.805   7.038  14.728  1.8694 -0.7263  0.9939
  139CHL1  H27C16546   0.958   7.120  14.696 -0.4838 -0.9741 -0.6864
  140CHL1    C316547   6.986   0.641  13.481 -0.5455  0.1573 -0.6486
  140CHL1    H316548   6.904   0.708  13.516  0.3066  1.2119 -0.6259
  140CHL1    O316549   6.931   0.599  13.360  0.1412 -0.1900  0.8480
  140CHL1   H3'16550   7.008   0.572  13.308  0.0994  1.7460 -0.3207
  140CHL1    C416551   7.117   0.720  13.452 -0.0353  0.0695  1.1344
  140CHL1   H4A16552   7.191   0.660  13.394 -0.8256  0.8364 -0.7767
  140CHL1   H4B16553   7.101   0.799  13.375  0.3348 -1.9354 -1.1307
  140CHL1    C516554   7.159   0.784  13.584 -0.0057  0.6100  0.8011
  140CHL1    C616555   7.174   0.918  13.594  1.2340  0.0053 -0.2401
  140CHL1    H616556   7.154   0.987  13.512  0.4500  0.0808  0.0040
  140CHL1    C716557   7.201   0.985  13.727  1.3216 -0.7937  0.0630
  140CHL1   H7A16558   7.275   1.067  13.716  0.0388  0.1743 -2.1585
  140CHL1   H7B16559   7.108   1.030  13.767  0.5824 -2.3842  0.1986
  140CHL1    C816560   7.264   0.896  13.834  0.1660  0.5084  0.4828
  140CHL1    H816561   7.370   0.876  13.806  0.4034  1.9997  0.1986
  140CHL1   C1416562   7.259   0.966  13.967  0.0676  0.0383  0.2070
  140CHL1   H1416563   7.149   0.974  13.979 -0.0311 -1.2340  0.3175
  140CHL1   C1516564   7.315   1.103  13.982 -1.2463 -0.5803 -0.5954
  140CHL1  H15A16565   7.422   1.115  13.953 -1.9826 -0.6773 -3.6549
  140CHL1  H15B16566   7.267   1.181  13.919 -0.2737  3.2039  2.8629
  140CHL1   C1616567   7.312   1.133  14.133  0.3506  0.4861  0.1052
  140CHL1  H16A16568   7.396   1.177  14.191  1.0481  1.8147 -1.8474
  140CHL1  H16B16569   7.217   1.189  14.141 -0.9040 -1.5744  0.5635
  140CHL1   C1716570   7.269   0.993  14.197 -0.1127  0.3773 -0.2296
  140CHL1   H1716571   7.158   1.005  14.196  0.0954  2.8601  0.5177
  140CHL1   C1316572   7.302   0.880  14.090  0.3907 -0.1023  0.1421
  140CHL1   C1816573   7.455   0.853  14.093  0.4000  0.0786  0.1511
  140CHL1  H18A16574   7.510   0.940  14.135 -0.4721  1.3189 -1.2191
  140CHL1  H18B16575   7.480   0.767  14.160 -2.9977  0.1466  1.7141
  140CHL1  H18C16576   7.496   0.835  13.992 -1.3941  1.3712 -0.8583
  140CHL1   C1216577   7.227   0.746  14.095  0.3716 -0.2413 -0.1949
  140CHL1  H12A16578   7.268   0.669  14.165 -1.3272  0.8515  2.1660
  140CHL1  H12B16579   7.119   0.761  14.116  0.2197 -0.8132 -0.5506
  140CHL1   C1116580   7.250   0.683  13.954 -0.3459  0.1132  0.3488
  140CHL1  H11A16581   7.360   0.676  13.944 -0.5537 -1.4684 -1.1900
  140CHL1  H11B16582   7.205   0.582  13.962 -1.1995  0.5578  1.4586
  140CHL1    C916583   7.191   0.759  13.839 -0.4584 -0.6029  0.6318
  140CHL1    H916584   7.089   0.784  13.875  0.2561  2.5445  0.7907
  140CHL1   C1016585   7.172   0.688  13.708 -0.8315  0.4034 -0.2525
  140CHL1   C1916586   7.310   0.604  13.681  0.2083 -0.4524  0.4961
  140CHL1  H19A16587   7.308   0.537  13.592 -0.0497  0.2548 -0.0448
  140CHL1  H19B16588   7.394   0.678  13.676  0.7930 -0.9929  1.9114
  140CHL1  H19C16589   7.327   0.541  13.770 -0.0995  0.3182  1.1069
  140CHL1    C116590   7.054   0.592  13.714  0.6140 -0.1663  0.6208
  140CHL1   H1A16591   7.073   0.513  13.790  0.7466  0.7245  1.5309
  140CHL1   H1B16592   6.958   0.635  13.752 -1.3431  0.1691 -4.0266
  140CHL1    C216593   7.009   0.524  13.585 -0.3494 -0.5468  0.5765
  140CHL1   H2A16594   6.917   0.462  13.598 -1.1616  0.8309  1.7240
  140CHL1   H2B16595   7.093   0.458  13.555 -1.2601 -1.2643 -0.5090
  140CHL1   C2016596   7.303   0.980  14.354  0.2523 -0.6474  0.8176
  140CHL1   H2016597   7.255   1.065  14.408  1.7875 -0.0806  1.3676
  140CHL1   C2116598   7.457   0.988  14.386 -0.2634 -0.4694 -0.0716
  140CHL1  H21A16599   7.506   0.896  14.346 -1.7131 -1.4764  0.3881
  140CHL1  H21B16600   7.479   1.008  14.493 -0.9729 -0.9232  0.1633
  140CHL1  H21C16601   7.500   1.077  14.334 -2.1116  1.0639  0.9128
  140CHL1   C2216602   7.235   0.860  14.417  0.6116 -0.6259  0.7254
  140CHL1  H22A16603   7.131   0.863  14.377  0.4564  3.0891  1.0807
  140CHL1  H22B16604   7.286   0.768  14.382  1.9487  0.6447 -0.8527
  140CHL1   C2316605   7.226   0.868  14.571 -0.4737 -1.3813  0.0973
  140CHL1  H23A16606   7.320   0.829  14.616  0.1657 -0.0633 -0.0405
  140CHL1  H23B16607   7.212   0.973  14.605 -0.3729 -0.5416 -2.2404
  140CHL1   C2416608   7.113   0.779  14.630 -0.1679  0.0421  0.3257
  140CHL1  H24A16609   7.016   0.808  14.584 -1.0878  1.1919  2.8359
  140CHL1  H24B16610   7.134   0.674  14.602  1.8429  0.2165  1.0491
  140CHL1   C2516611   7.095   0.775  14.789 -0.1248  0.2978  0.1852
  140CHL1   H2516612   7.097   0.876  14.835 -0.2683  0.0852  0.6631
  140CHL1   C2616613   7.193   0.687  14.866  0.3278 -0.3684  0.0208
  140CHL1  H26A16614   7.149   0.675  14.967  0.2990 -0.3460  0.0106
  140CHL1  H26B16615   7.209   0.585  14.823  1.2264 -0.8209  1.3457
  140CHL1  H26C16616   7.288   0.743  14.879  0.5268 -0.6930 -0.0247
  140CHL1   C2716617   6.958   0.716  14.818 -0.4438  0.0329  0.2848
  140CHL1  H27A16618   6.884   0.770  14.755 -0.3443  1.6498  1.5171
  140CHL1  H27B16619   6.950   0.610  14.783 -0.3659 -0.7294  2.3979
  140CHL1  H27C16620   6.922   0.735  14.921 -0.0693  2.0488  0.0666
  141DOPC     N16621   3.794   1.713  17.014 -0.4396  0.6352 -0.1237
  141DOPC   C1216622   3.740   1.797  16.899 -0.1805  0.9278 -0.4983
  141DOPC  H12A16623   3.777   1.753  16.808  0.8588  1.0618 -0.1646
  141DOPC  H12B16624   3.785   1.895  16.889  0.7357  0.5883  0.1126
  141DOPC   C1316625   3.939   1.687  16.979  0.3824 -0.3494 -0.0481
  141DOPC  H13A16626   3.981   1.780  16.943 -0.5308  1.1231  2.4853
  141DOPC  H13B16627   3.996   1.643  17.060  0.4726 -0.6652 -0.2758
  141DOPC  H13C16628   3.943   1.603  16.911  1.0987 -0.2947 -0.0810
  141DOPC   C1416629   3.721   1.583  17.017 -0.0432  0.1932 -0.2562
  141DOPC  H14A16630   3.767   1.522  17.093  0.8568 -0.4113 -1.2479
  141DOPC  H14B16631   3.619   1.594  17.052  0.3572 -1.2001  1.5237
  141DOPC  H14C16632   3.737   1.522  16.929 -1.4132 -0.3141 -0.1712
  141DOPC   C1516633   3.800   1.789  17.144  0.2055  0.1549  0.5168
  141DOPC  H15A16634   3.700   1.800  17.183 -1.2104 -1.2466 -2.4168
  141DOPC  H15B16635   3.863   1.875  17.131 -0.7908  0.8264 -0.0556
  141DOPC  H15C16636   3.863   1.732  17.210  2.8338  1.0024 -1.1010
  141DOPC   C1116637   3.591   1.800  16.899  0.9967 -0.2284  0.3087
  141DOPC  H11A16638   3.559   1.832  16.798  0.4194 -2.2740 -0.2182
  141DOPC  H11B16639   3.537   1.703  16.906 -0.7328  0.6977  0.4878
  141DOPC     P16640   3.546   2.045  16.984 -0.3034  0.1109 -0.2386
  141DOPC   O1316641   3.638   2.098  17.089  0.0675 -0.0706 -0.0173
  141DOPC   O1416642   3.410   2.099  16.983  0.2652  0.1929 -0.0251
  141DOPC   O1216643   3.544   1.890  17.000  0.0808 -0.5268  0.4510
  141DOPC   O1116644   3.611   2.075  16.841  1.0033 -0.1580 -0.2119
  141DOPC    C116645   3.678   2.189  16.800  0.0926  0.0308 -0.1200
  141DOPC    HA16646   3.779   2.202  16.847  0.6930 -0.8856 -1.1234
  141DOPC    HB16647   3.615   2.281  16.796 -0.1548 -0.1743 -2.6352
  141DOPC    C216648   3.709   2.169  16.651 -0.2006  0.0654 -0.6236
  141DOPC    HS16649   3.771   2.078  16.636 -0.9795 -0.6268  0.2698
  141DOPC   O2116650   3.762   2.292  16.602 -0.6404 -0.9049  0.0428
  141DOPC   C2116651   3.890   2.294  16.607 -0.7896 -0.3463  0.1847
  141DOPC   O2216652   3.969   2.204  16.641  0.7697 -0.9855  0.4551
  141DOPC   C2216653   3.948   2.430  16.550 -0.1154 -0.1332  0.2024
  141DOPC   H2R16654   3.905   2.506  16.619 -0.9692 -0.6044  0.1994
  141DOPC   H2S16655   3.920   2.434  16.442  0.3948 -1.1626  0.0205
  141DOPC    C316656   3.587   2.133  16.566 -0.5596 -0.1288 -0.5202
  141DOPC    HX16657   3.513   2.215  16.582 -0.1980  0.4160 -1.5636
  141DOPC    HY16658   3.541   2.041  16.609 -1.0097  0.8323  1.1783
  141DOPC   O3116659   3.615   2.123  16.425 -0.0739  0.1874  0.2148
  141DOPC   C3116660   3.552   2.039  16.351  0.2774  0.1780  0.0072
  141DOPC   O3216661   3.457   1.971  16.386  0.0727  0.0970 -0.3461
  141DOPC   C3216662   3.605   2.032  16.212 -0.0485 -0.3794 -0.6169
  141DOPC   H2X16663   3.600   2.136  16.174 -0.4579 -0.1555  0.0214
  141DOPC   H2Y16664   3.711   2.001  16.225 -0.3985 -1.2827  0.3490
  141DOPC   C2316665   4.108   2.446  16.561  0.5097  0.0177  0.3599
  141DOPC   H3R16666   4.144   2.415  16.661  0.5229 -1.4710 -0.0779
  141DOPC   H3S16667   4.134   2.552  16.541 -1.2487  0.3990 -0.0753
  141DOPC   C2416668   4.184   2.362  16.457 -0.1786 -0.3502 -0.0760
  141DOPC   H4R16669   4.143   2.260  16.442 -0.1155 -0.3341 -0.3456
  141DOPC   H4S16670   4.289   2.355  16.493 -0.0850  1.4989  0.1118
  141DOPC   C2516671   4.180   2.427  16.324 -0.0294 -0.3868  0.6188
  141DOPC   H5R16672   4.248   2.513  16.341  0.4031 -0.4425 -0.6910
  141DOPC   H5S16673   4.086   2.474  16.290  0.5475 -0.2481 -0.8716
  141DOPC   C2616674   4.227   2.342  16.203 -0.4943  0.2538  0.2373
  141DOPC   H6R16675   4.152   2.263  16.186 -1.9539  1.4458  0.9732
  141DOPC   H6S16676   4.324   2.293  16.228 -0.6994 -0.1285  0.2857
  141DOPC   C2716677   4.241   2.424  16.067  0.3451  0.3120 -0.3934
  141DOPC   H7R16678   4.320   2.502  16.080  2.2448 -1.5556 -0.1878
  141DOPC   H7S16679   4.146   2.478  16.047  0.1535  0.5411  1.0610
  141DOPC   C2816680   4.287   2.325  15.956  0.1480 -0.1430  0.7693
  141DOPC   H8R16681   4.225   2.233  15.948  1.6141 -1.0465 -1.0192
  141DOPC   H8S16682   4.386   2.286  15.991  0.4302 -0.9034 -0.7773
  141DOPC   C2916683   4.307   2.402  15.827  0.1336  0.5302 -0.2189
  141DOPC   H9R16684   4.352   2.502  15.835 -0.2944  0.7503 -0.5552
  141DOPC  C21016685   4.280   2.366  15.701  0.1531  0.1353  0.3315
  141DOPC  H10R16686   4.286   2.441  15.621  1.1101  0.3016  0.5494
  141DOPC  C21116687   4.219   2.233  15.652  0.3144 -0.6724 -1.1491
  141DOPC  H11R16688   4.115   2.251  15.615  0.4224  2.4304 -0.1688
  141DOPC  H11S16689   4.209   2.166  15.740 -1.3018  1.2009  0.1718
  141DOPC  C21216690   4.289   2.149  15.545  0.0781 -0.0518  0.3463
  141DOPC  H12R16691   4.238   2.052  15.561 -2.0510  0.7680 -1.0254
  141DOPC  H12S16692   4.397   2.130  15.562  0.0031  0.4321  1.4722
  141DOPC  C21316693   4.258   2.169  15.393  0.7237  0.1311  0.3942
  141DOPC  H13R16694   4.298   2.271  15.373  2.4794 -0.6751 -0.4614
  141DOPC  H13S16695   4.148   2.159  15.387  0.8248 -2.2085  1.1741
  141DOPC  C21416696   4.325   2.053  15.316  0.1425 -0.3504  0.1764
  141DOPC  H14R16697   4.289   1.960  15.366 -1.5984  0.9050  1.3648
  141DOPC  H14S16698   4.435   2.052  15.329  0.1133  0.5956  0.5133
  141DOPC  C21516699   4.278   2.050  15.172  0.2081  0.1494 -0.7084
  141DOPC  H15R16700   4.275   2.155  15.136 -0.8129  1.7220  3.3513
  141DOPC  H15S16701   4.175   2.009  15.170  0.0480  0.5419 -0.6666
  141DOPC  C21616702   4.361   1.965  15.075  0.1056 -0.5650 -0.2524
  141DOPC  H16R16703   4.465   2.003  15.071  0.0774 -0.5577 -1.2944
  141DOPC  H16S16704   4.333   1.980  14.969  1.7471 -2.7720 -1.0718
  141DOPC  C21716705   4.365   1.816  15.097 -0.0608  0.0471 -0.2197
  141DOPC  H17R16706   4.273   1.760  15.070  1.2723 -1.7491 -1.2493
  141DOPC  H17S16707   4.386   1.805  15.206 -2.5902 -1.0178  0.2133
  141DOPC  C21816708   4.484   1.752  15.021  0.0052 -0.3957 -0.6957
  141DOPC  H18R16709   4.496   1.646  15.051 -1.0417 -0.1877  0.5360
  141DOPC  H18S16710   4.571   1.808  15.062  0.4471 -3.0575  2.3991
  141DOPC  H18T16711   4.489   1.782  14.914 -2.1491 -0.0929 -0.7474
  141DOPC   C3316712   3.520   1.938  16.120 -0.4830 -0.8483 -0.0570
  141DOPC   H3X16713   3.417   1.979  16.109 -2.0773 -4.1415  1.0555
  141DOPC   H3Y16714   3.506   1.842  16.175 -3.4207  0.5356  1.8841
  141DOPC   C3416715   3.584   1.913  15.980  0.0251 -0.2746 -0.7369
  141DOPC   H4X16716   3.692   1.888  15.994  0.5306  1.3715 -1.3959
  141DOPC   H4Y16717   3.583   2.004  15.917  0.0961 -0.9815 -1.7928
  141DOPC   C3516718   3.499   1.818  15.896  1.2427 -0.4517  0.0127
  141DOPC   H5X16719   3.401   1.864  15.873  2.3305  1.8882 -0.2742
  141DOPC   H5Y16720   3.468   1.731  15.957 -4.1640  0.3766 -1.0321
  141DOPC   C3616721   3.568   1.785  15.759 -0.1493  0.3500 -0.9723
  141DOPC   H6X16722   3.677   1.783  15.784 -1.0487  0.5374  3.9503
  141DOPC   H6Y16723   3.535   1.681  15.742 -0.6963  0.6726 -1.9699
  141DOPC   C3716724   3.521   1.873  15.648 -0.0032  0.3921 -0.1476
  141DOPC   H7X16725   3.412   1.852  15.644 -0.0396 -0.1356  2.1023
  141DOPC   H7Y16726   3.546   1.976  15.682 -0.9974  0.8642 -0.8158
  141DOPC   C3816727   3.590   1.843  15.513  0.0154 -0.5186  0.4752
  141DOPC   H8X16728   3.701   1.846  15.522  0.0572  1.5371 -0.2578
  141DOPC   H8Y16729   3.576   1.928  15.443  0.8489 -1.7745 -1.2751
  141DOPC   C3916730   3.544   1.718  15.447  0.3070 -0.1668  0.3391
  141DOPC   H9X16731   3.609   1.630  15.457  0.2009 -0.2651  0.1583
  141DOPC  C31016732   3.431   1.702  15.373  0.1772  0.4979  0.5428
  141DOPC  H10X16733   3.416   1.619  15.302 -0.3298 -0.4793  1.7568
  141DOPC  C31116734   3.319   1.801  15.366  0.2299  0.0631 -0.0053
  141DOPC  H11X16735   3.331   1.892  15.428 -0.3132 -0.7380  1.3298
  141DOPC  H11Y16736   3.231   1.761  15.421 -0.1367  0.1592 -0.5155
  141DOPC  C31216737   3.277   1.835  15.224  0.4928 -0.0568  0.0538
  141DOPC  H12X16738   3.230   1.747  15.175 -0.1777 -0.4614  1.3656
  141DOPC  H12Y16739   3.371   1.872  15.177  0.5554  0.0875  0.2879
  141DOPC  C31316740   3.173   1.948  15.209 -0.4652 -0.3748  0.2560
  141DOPC  H13X16741   3.087   1.935  15.279 -0.6308  0.9770  0.3350
  141DOPC  H13Y16742   3.226   2.037  15.248 -0.6281  0.1249 -0.6429
  141DOPC  C31416743   3.131   1.972  15.068 -0.3972  0.0336  0.3009
  141DOPC  H14X16744   3.075   1.897  15.009  1.1786  0.1326 -1.4285
  141DOPC  H14Y16745   3.067   2.062  15.064 -2.3951 -1.3524 -0.7127
  141DOPC  C31516746   3.252   2.003  14.972 -0.1411 -0.5785  0.1166
  141DOPC  H15X16747   3.317   1.914  14.964 -1.5350 -1.5825 -0.5092
  141DOPC  H15Y16748   3.307   2.092  15.010 -0.6294 -1.1970  2.4839
  141DOPC  C31616749   3.198   2.037  14.834 -0.0138  0.5537  0.1563
  141DOPC  H16X16750   3.127   1.958  14.803  0.0251 -0.3503  2.1808
  141DOPC  H16Y16751   3.134   2.128  14.839  0.1214  0.7490 -1.3200
  141DOPC  C31716752   3.319   2.065  14.743 -0.4121  0.3726 -0.0721
  141DOPC  H17X16753   3.357   2.164  14.775 -1.4023  1.1703 -1.2829
  141DOPC  H17Y16754   3.392   1.982  14.749 -1.7194 -0.7837  0.3771
  141DOPC  C31816755   3.270   2.082  14.596  0.7398  0.5222  0.1119
  141DOPC  H18X16756   3.210   2.174  14.582  1.4078  1.2586  1.8642
  141DOPC  H18Y16757   3.361   2.088  14.532  0.3153  0.4149 -0.5192
  141DOPC  H18Z16758   3.210   1.992  14.571  0.2004  0.9894 -0.2988
  142DOPC     N16759   4.537   2.689  17.207  0.4453  0.8958 -0.4491
  142DOPC   C1216760   4.624   2.710  17.083 -0.2513 -0.4250 -0.1498
  142DOPC  H12A16761   4.589   2.658  16.996  0.3699  0.3858 -0.8962
  142DOPC  H12B16762   4.722   2.669  17.105  0.6037  0.0148 -2.7473
  142DOPC   C1316763   4.402   2.743  17.186  0.7649 -0.1604  0.2534
  142DOPC  H13A16764   4.337   2.737  17.272 -1.8466  4.0361 -1.1133
  142DOPC  H13B16765   4.399   2.848  17.161  1.7057  0.6516  3.1853
  142DOPC  H13C16766   4.352   2.686  17.108  0.8368 -1.6514  1.2560
  142DOPC   C1416767   4.599   2.757  17.329 -0.2685 -0.0284  0.0849
  142DOPC  H14A16768   4.707   2.744  17.332 -0.4347 -2.0126 -1.0988
  142DOPC  H14B16769   4.574   2.862  17.333 -2.4851 -0.3472 -2.6382
  142DOPC  H14C16770   4.553   2.716  17.417  0.0157  1.0835  0.7816
  142DOPC   C1516771   4.520   2.543  17.241  0.0546 -0.4257  0.0199
  142DOPC  H15A16772   4.463   2.495  17.162 -2.0285  3.4267 -1.0757
  142DOPC  H15B16773   4.455   2.528  17.327 -0.1262  0.3510  0.0209
  142DOPC  H15C16774   4.618   2.499  17.248  0.4923  0.2983 -1.3785
  142DOPC   C1116775   4.642   2.861  17.040 -0.3178 -0.0855 -0.5449
  142DOPC  H11A16776   4.683   2.922  17.124  0.4475 -3.6163  1.8896
  142DOPC  H11B16777   4.715   2.878  16.958  0.0319 -1.4868 -0.5548
  142DOPC     P16778   4.435   2.907  16.878  0.3258 -0.0866  0.0262
  142DOPC   O1316779   4.337   3.016  16.878  0.1790 -0.2050  0.3178
  142DOPC   O1416780   4.384   2.767  16.879  0.1939  0.0476  0.7061
  142DOPC   O1216781   4.524   2.932  17.011 -0.1584 -0.4321 -0.9344
  142DOPC   O1116782   4.540   2.920  16.761  0.2619 -0.0587  0.4171
  142DOPC    C116783   4.588   2.805  16.698  0.0801  0.5411  0.0089
  142DOPC    HA16784   4.601   2.724  16.774  0.3687 -0.3086 -0.9257
  142DOPC    HB16785   4.690   2.831  16.665  0.3590 -0.3081  0.1622
  142DOPC    C216786   4.497   2.759  16.584 -0.2682  0.3812 -0.4253
  142DOPC    HS16787   4.410   2.727  16.644  0.1174  0.4150  0.1638
  142DOPC   O2116788   4.550   2.657  16.494  0.1949  0.4335 -0.4265
  142DOPC   C2116789   4.534   2.530  16.531  0.0763 -0.7966  0.9803
  142DOPC   O2216790   4.477   2.481  16.626 -0.1768 -0.3222  0.0325
  142DOPC   C2216791   4.602   2.438  16.430  0.3888 -0.4748 -0.0930
  142DOPC   H2R16792   4.541   2.345  16.428 -1.0854  0.4637 -1.8112
  142DOPC   H2S16793   4.707   2.412  16.457 -0.0030 -0.7611  1.2604
  142DOPC    C316794   4.454   2.881  16.501 -0.1552 -0.1449  0.0860
  142DOPC    HX16795   4.536   2.943  16.459  1.0037 -2.4180 -1.2109
  142DOPC    HY16796   4.399   2.950  16.569  2.1126 -0.3422  2.2567
  142DOPC   O3116797   4.373   2.845  16.392 -0.6869  0.0678  0.3431
  142DOPC   C3116798   4.317   2.945  16.328 -0.1029  0.0929 -0.0056
  142DOPC   O3216799   4.318   3.061  16.367 -0.1567 -0.1388  0.4307
  142DOPC   C3216800   4.253   2.892  16.205  0.1610 -0.0178  0.6898
  142DOPC   H2X16801   4.340   2.880  16.137 -0.0747  1.4584  0.0955
  142DOPC   H2Y16802   4.211   2.794  16.237 -4.0617  1.7905  1.3400
  142DOPC   C2316803   4.595   2.491  16.283  0.3822 -0.0253  0.2215
  142DOPC   H3R16804   4.673   2.570  16.280  1.3897 -0.8833  2.2416
  142DOPC   H3S16805   4.492   2.528  16.266  0.0153  0.0293  2.3177
  142DOPC   C2416806   4.634   2.377  16.182  0.4070  0.3690 -0.0769
  142DOPC   H4R16807   4.568   2.288  16.189 -0.0021  0.7511  1.6745
  142DOPC   H4S16808   4.734   2.345  16.216  0.5487  0.8079 -0.0700
  142DOPC   C2516809   4.630   2.421  16.033  0.8416 -0.1121  0.4638
  142DOPC   H5R16810   4.676   2.522  16.022  0.8989 -0.3017 -1.3282
  142DOPC   H5S16811   4.529   2.439  15.991 -0.5481  1.7985  4.1451
  142DOPC   C2616812   4.710   2.324  15.943  0.2845  0.0749  0.0165
  142DOPC   H6R16813   4.651   2.231  15.951  0.7851 -0.4490 -1.8808
  142DOPC   H6S16814   4.816   2.313  15.974  0.4577  1.4676 -0.0253
  142DOPC   C2716815   4.696   2.355  15.796 -0.6969 -0.2618 -0.0469
  142DOPC   H7R16816   4.586   2.360  15.779 -0.5211  0.2039 -1.1730
  142DOPC   H7S16817   4.734   2.263  15.747 -2.3387 -1.6186  1.1044
  142DOPC   C2816818   4.769   2.484  15.752  0.4989  0.0930 -0.7657
  142DOPC   H8R16819   4.728   2.569  15.810  1.2698  1.3461 -2.0017
  142DOPC   H8S16820   4.748   2.509  15.645  0.8022  0.3332 -0.7690
  142DOPC   C2916821   4.919   2.481  15.770  0.5618 -0.0332 -0.4314
  142DOPC   H9R16822   4.958   2.512  15.868  0.9082  0.8367 -0.8334
  142DOPC  C21016823   5.011   2.430  15.683  0.3013 -0.0819 -0.4294
  142DOPC  H10R16824   5.116   2.427  15.715 -0.0370  0.6335  0.7935
  142DOPC  C21116825   4.976   2.373  15.546 -0.4618 -0.0212  0.0764
  142DOPC  H11R16826   4.871   2.339  15.537  0.7000 -3.8630 -0.9858
  142DOPC  H11S16827   5.044   2.285  15.533 -0.1172  0.3804 -0.9540
  142DOPC  C21216828   4.988   2.475  15.428  0.6044  0.4140  0.1017
  142DOPC  H12R16829   4.958   2.418  15.337 -1.8634  1.5707  0.1098
  142DOPC  H12S16830   5.097   2.493  15.413  0.7328 -0.9176 -0.7856
  142DOPC  C21316831   4.920   2.610  15.438 -0.3923  0.0179  0.8807
  142DOPC  H13R16832   4.928   2.653  15.540  2.5099  1.4303  0.1408
  142DOPC  H13S16833   4.812   2.598  15.413 -0.0085  2.1453 -2.3958
  142DOPC  C21416834   4.961   2.707  15.322 -0.7100 -0.2905  0.1257
  142DOPC  H14R16835   4.934   2.670  15.221  0.2365  0.2304 -0.3210
  142DOPC  H14S16836   5.072   2.709  15.318 -0.6332 -0.3313  1.5180
  142DOPC  C21516837   4.906   2.845  15.352  0.3594  0.1775 -0.6014
  142DOPC  H15R16838   4.976   2.884  15.429  0.8603 -1.5297 -0.1578
  142DOPC  H15S16839   4.802   2.832  15.391 -0.3814 -1.2782 -2.8484
  142DOPC  C21616840   4.907   2.944  15.235 -0.2020 -1.0693 -0.4783
  142DOPC  H16R16841   4.846   2.910  15.149 -1.1467  0.8302 -0.6121
  142DOPC  H16S16842   5.013   2.966  15.211 -0.5954  1.2510 -0.3126
  142DOPC  C21716843   4.854   3.088  15.271  0.5279  0.5581  0.7828
  142DOPC  H17R16844   4.745   3.074  15.286  0.6961  0.5406  2.1112
  142DOPC  H17S16845   4.843   3.145  15.176 -1.3562  1.0602  1.2607
  142DOPC  C21816846   4.929   3.165  15.386  0.2594  0.1926 -0.4660
  142DOPC  H18R16847   4.923   3.108  15.482 -1.0404  0.9023 -0.1036
  142DOPC  H18S16848   4.877   3.260  15.408 -0.7740 -0.5196  0.2907
  142DOPC  H18T16849   5.034   3.191  15.362 -0.0302  0.3414 -1.6034
  142DOPC   C3316850   4.135   2.982  16.147  0.4133 -0.4384  0.4232
  142DOPC   H3X16851   4.160   3.085  16.179 -0.6800  0.8613 -2.5603
  142DOPC   H3Y16852   4.033   2.962  16.185  0.0032  0.2780 -0.2866
  142DOPC   C3416853   4.134   2.984  15.991  0.0046  0.1220  0.9824
  142DOPC   H4X16854   4.240   2.993  15.957 -0.7787 -2.4732 -2.6924
  142DOPC   H4Y16855   4.080   3.075  15.957  0.9793  1.1967  2.1669
  142DOPC   C3516856   4.073   2.857  15.924  0.5162  0.0395  0.3878
  142DOPC   H5X16857   3.964   2.857  15.948  0.9711  2.0168  2.8864
  142DOPC   H5Y16858   4.134   2.777  15.972 -0.7565 -1.2120 -0.0111
  142DOPC   C3616859   4.095   2.852  15.774  0.2831  0.5087  0.1681
  142DOPC   H6X16860   4.010   2.912  15.736  0.7408 -0.3721 -2.4687
  142DOPC   H6Y16861   4.195   2.894  15.751  0.6352 -0.5242 -0.2527
  142DOPC   C3716862   4.068   2.711  15.727  0.6911  0.6088 -0.1470
  142DOPC   H7X16863   4.161   2.651  15.740  1.0557  0.9561 -1.0551
  142DOPC   H7Y16864   3.982   2.660  15.777 -0.6980  0.8672 -2.1583
  142DOPC   C3816865   4.032   2.707  15.577  0.8670 -0.3259  0.1977
  142DOPC   H8X16866   3.935   2.756  15.555  2.0263  1.8941 -0.2586
  142DOPC   H8Y16867   4.025   2.598  15.555  2.3507 -0.1388 -1.3926
  142DOPC   C3916868   4.118   2.773  15.475 -0.4257  0.1214 -0.3252
  142DOPC   H9X16869   4.153   2.874  15.499  1.6107 -0.2597 -1.4875
  142DOPC  C31016870   4.143   2.733  15.350  0.3330  0.5987  0.5506
  142DOPC  H10X16871   4.214   2.787  15.286  1.1484 -1.2994 -0.2157
  142DOPC  C31116872   4.089   2.601  15.303  0.2960 -0.1093 -0.4525
  142DOPC  H11X16873   3.979   2.613  15.313  0.2619 -0.0019 -0.9148
  142DOPC  H11Y16874   4.131   2.513  15.355 -0.0808  0.6435  1.2010
  142DOPC  C31216875   4.090   2.559  15.155 -0.2150  0.1593 -0.4435
  142DOPC  H12X16876   4.053   2.454  15.152  2.3305 -0.8142 -0.2032
  142DOPC  H12Y16877   4.196   2.559  15.121 -0.2860  2.9016 -0.8395
  142DOPC  C31316878   4.018   2.645  15.057 -0.1837  0.0701  0.4634
  142DOPC  H13X16879   4.028   2.752  15.086  1.0763 -0.8095  3.7645
  142DOPC  H13Y16880   4.070   2.637  14.959  0.8211  0.0507  0.9832
  142DOPC  C31416881   3.869   2.614  15.027 -1.1935  0.2931  0.4727
  142DOPC  H14X16882   3.884   2.518  14.973  1.1535 -0.2943  2.0273
  142DOPC  H14Y16883   3.820   2.588  15.124 -0.7124 -3.8291 -0.2011
  142DOPC  C31516884   3.814   2.731  14.954  0.0754  0.0435 -0.8506
  142DOPC  H15X16885   3.890   2.762  14.878 -0.4085 -2.4104 -2.4412
  142DOPC  H15Y16886   3.803   2.818  15.023  0.5124  0.1011 -0.8492
  142DOPC  C31616887   3.678   2.701  14.895 -0.9514 -0.1645  0.5025
  142DOPC  H16X16888   3.614   2.679  14.984 -0.9234  3.2473  1.5177
  142DOPC  H16Y16889   3.630   2.790  14.848  1.1212  1.9041  2.0486
  142DOPC  C31716890   3.676   2.590  14.791 -0.4084 -0.2102 -0.2842
  142DOPC  H17X16891   3.704   2.495  14.841 -1.2528  0.6732  2.0206
  142DOPC  H17Y16892   3.570   2.576  14.758 -0.9458 -0.1754  1.3362
  142DOPC  C31816893   3.758   2.607  14.671 -0.0671 -0.2592  0.2773
  142DOPC  H18X16894   3.733   2.701  14.618 -0.3514 -0.4867 -0.0028
  142DOPC  H18Y16895   3.867   2.612  14.691  0.8591 -0.2256 -3.8463
  142DOPC  H18Z16896   3.752   2.516  14.606 -0.9252 -1.1251  1.5207
  143DOPC     N16897   2.428   2.860  17.240 -0.1003  0.3305  0.2644
  143DOPC   C1216898   2.442   2.796  17.102 -0.2366  0.0189  0.2743
  143DOPC  H12A16899   2.349   2.790  17.047 -0.7906 -0.6011  1.2400
  143DOPC  H12B16900   2.470   2.693  17.118 -2.6658 -0.7123  0.3626
  143DOPC   C1316901   2.331   2.982  17.225  0.0161  0.7296  0.2037
  143DOPC  H13A16902   2.374   3.043  17.147 -3.8238  0.0439 -2.7367
  143DOPC  H13B16903   2.228   2.955  17.209  0.7547 -1.5742 -1.1681
  143DOPC  H13C16904   2.332   3.056  17.304  0.6050  1.2205 -0.2520
  143DOPC   C1416905   2.565   2.907  17.290  0.0894  0.2535  0.8583
  143DOPC  H14A16906   2.556   2.966  17.380  0.7114  1.5091  0.1244
  143DOPC  H14B16907   2.627   2.824  17.319  0.7506  0.4251 -0.0055
  143DOPC  H14C16908   2.606   2.961  17.206 -1.2953  1.5228  0.9563
  143DOPC   C1516909   2.365   2.769  17.338 -0.0965  0.6379  0.3133
  143DOPC  H15A16910   2.272   2.727  17.301 -0.0723  0.3901  0.5305
  143DOPC  H15B16911   2.349   2.813  17.436  1.4211  1.1097  0.3679
  143DOPC  H15C16912   2.423   2.680  17.354 -0.0640  0.5653 -0.1933
  143DOPC   C1116913   2.536   2.858  16.989 -0.4872  1.0790 -0.0892
  143DOPC  H11A16914   2.639   2.840  17.027 -0.6708 -0.9031 -0.4602
  143DOPC  H11B16915   2.541   2.801  16.894 -0.8399 -0.5247  0.8170
  143DOPC     P16916   2.401   3.035  16.855 -0.3483 -0.2501 -0.4727
  143DOPC   O1316917   2.403   3.184  16.845 -0.3712  0.0564 -0.1456
  143DOPC   O1416918   2.270   2.972  16.878 -0.1114  0.9053 -0.0666
  143DOPC   O1216919   2.507   2.995  16.968  0.3117 -0.4485 -0.1339
  143DOPC   O1116920   2.465   2.957  16.735  0.2850  0.4297 -0.2413
  143DOPC    C116921   2.589   2.995  16.676 -0.5169 -0.4297  0.2786
  143DOPC    HA16922   2.639   2.899  16.648  0.0481 -0.1414  0.2789
  143DOPC    HB16923   2.652   3.060  16.740  0.8941 -0.5266 -0.9501
  143DOPC    C216924   2.560   3.076  16.547 -0.4333  0.0946  0.2575
  143DOPC    HS16925   2.475   3.147  16.561  0.7055  1.7738 -0.8964
  143DOPC   O2116926   2.547   2.984  16.439  0.4376  0.3301  0.7409
  143DOPC   C2116927   2.459   3.029  16.346  0.4303  0.1621  0.3817
  143DOPC   O2216928   2.383   3.127  16.357 -0.3815 -0.2076  0.1129
  143DOPC   C2216929   2.469   2.943  16.224 -0.6706  0.0736  0.2379
  143DOPC   H2R16930   2.365   2.918  16.196 -0.7135 -1.1557  1.3854
  143DOPC   H2S16931   2.516   2.850  16.263 -2.5988 -0.9998  0.0932
  143DOPC    C316932   2.690   3.151  16.513  0.0520  1.1292  0.0495
  143DOPC    HX16933   2.772   3.075  16.513 -0.4642  0.5616  0.2596
  143DOPC    HY16934   2.707   3.230  16.589 -0.2313  1.4718 -0.2409
  143DOPC   O3116935   2.691   3.201  16.380 -0.2279  0.1963  0.1296
  143DOPC   C3116936   2.629   3.325  16.376 -0.3452  0.1357  0.3912
  143DOPC   O3216937   2.568   3.370  16.474 -0.4272 -0.5767  0.4617
  143DOPC   C3216938   2.645   3.391  16.238 -0.5700 -0.4911 -0.1793
  143DOPC   H2X16939   2.718   3.475  16.240  1.2488 -2.0249  1.2715
  143DOPC   H2Y16940   2.677   3.310  16.168 -1.1062  0.0726 -1.1074
  143DOPC   C2316941   2.548   3.021  16.129 -0.1683 -0.2315  1.3729
  143DOPC   H3R16942   2.655   3.044  16.151  0.8061 -0.2274 -2.5552
  143DOPC   H3S16943   2.495   3.115  16.105  1.9439  0.6395 -0.2250
  143DOPC   C2416944   2.549   2.954  15.993 -0.1497 -0.6726  0.3239
  143DOPC   H4R16945   2.456   2.894  15.977 -0.8841  0.4027  0.4356
  143DOPC   H4S16946   2.633   2.882  15.982  1.0962  0.4241  2.2555
  143DOPC   C2516947   2.564   3.061  15.879  0.2276  0.9965  0.0605
  143DOPC   H5R16948   2.663   3.108  15.899  0.9522 -0.3516 -0.2348
  143DOPC   H5S16949   2.492   3.146  15.883  0.0392  0.8295  0.2534
  143DOPC   C2616950   2.554   3.012  15.737 -0.1215  0.0402 -0.3225
  143DOPC   H6R16951   2.462   2.952  15.721  1.9195 -2.5383 -3.6840
  143DOPC   H6S16952   2.633   2.935  15.745 -0.7931 -0.5860  0.5357
  143DOPC   C2716953   2.583   3.118  15.628  0.0563  0.2889 -0.0762
  143DOPC   H7R16954   2.646   3.197  15.674 -0.7130  0.3413  0.9271
  143DOPC   H7S16955   2.484   3.164  15.610  0.0283  0.0048 -0.6695
  143DOPC   C2816956   2.653   3.049  15.506  0.3496 -0.2632 -0.6806
  143DOPC   H8R16957   2.578   2.989  15.450  0.7483  0.1997 -1.7401
  143DOPC   H8S16958   2.730   2.981  15.547  0.2366  0.9438  1.6760
  143DOPC   C2916959   2.720   3.163  15.420  0.2470  1.2186 -0.1985
  143DOPC   H9R16960   2.806   3.219  15.459 -0.7529  2.2360  0.6224
  143DOPC  C21016961   2.682   3.193  15.299 -0.2234  0.5574  0.4403
  143DOPC  H10R16962   2.734   3.275  15.247 -0.1403  0.1142 -0.1888
  143DOPC  C21116963   2.562   3.138  15.225  0.0058  0.4230 -0.5025
  143DOPC  H11R16964   2.475   3.126  15.293  0.0523  0.2806 -0.4678
  143DOPC  H11S16965   2.585   3.040  15.178 -3.4324 -0.8468  0.1838
  143DOPC  C21216966   2.514   3.221  15.104 -0.2907  0.3954 -0.7018
  143DOPC  H12R16967   2.597   3.252  15.036  1.0978 -0.3912  0.5711
  143DOPC  H12S16968   2.473   3.311  15.156 -0.4074  0.1188 -0.3148
  143DOPC  C21316969   2.406   3.162  15.011  0.1847 -0.0428  0.6454
  143DOPC  H13R16970   2.312   3.148  15.068 -0.6830 -0.0526 -0.7596
  143DOPC  H13S16971   2.441   3.066  14.968 -1.2170 -0.6837  0.8940
  143DOPC  C21416972   2.357   3.259  14.908 -0.0122 -0.4069  0.2452
  143DOPC  H14R16973   2.335   3.354  14.961  1.0751 -0.5052  0.9111
  143DOPC  H14S16974   2.264   3.231  14.855 -0.2237 -1.4059  1.1115
  143DOPC  C21516975   2.454   3.307  14.797  0.0698 -0.0925 -0.5029
  143DOPC  H15R16976   2.475   3.225  14.726  0.1849  0.8161 -1.5468
  143DOPC  H15S16977   2.550   3.346  14.837 -0.3843  2.0046 -1.3048
  143DOPC  C21616978   2.383   3.425  14.729 -0.0114 -0.3388  0.1475
  143DOPC  H16R16979   2.382   3.512  14.797  0.4460  0.5680 -0.9634
  143DOPC  H16S16980   2.277   3.410  14.699 -0.4615 -3.5271  2.8051
  143DOPC  C21716981   2.455   3.464  14.597  0.6463 -0.1154 -0.2789
  143DOPC  H17R16982   2.450   3.381  14.523 -0.1344 -1.1483  0.8944
  143DOPC  H17S16983   2.561   3.489  14.617  0.1769  0.6897  1.3376
  143DOPC  C21816984   2.389   3.578  14.524 -0.0263  0.0494  0.5538
  143DOPC  H18R16985   2.427   3.674  14.565 -0.4576 -0.0297  1.1535
  143DOPC  H18S16986   2.278   3.572  14.527 -0.0054 -0.5823  0.0229
  143DOPC  H18T16987   2.422   3.572  14.419 -0.4452 -1.7093  0.4948
  143DOPC   C3316988   2.509   3.434  16.180 -0.0777 -0.0296  0.1588
  143DOPC   H3X16989   2.458   3.505  16.249 -1.5568  0.5089 -1.4378
  143DOPC   H3Y16990   2.443   3.344  16.176  1.6309 -1.2861 -1.2707
  143DOPC   C3416991   2.510   3.490  16.038  0.2029 -0.1423  0.4256
  143DOPC   H4X16992   2.572   3.418  15.980 -1.0759  1.1620 -2.7879
  143DOPC   H4Y16993   2.545   3.595  16.026 -2.0294  0.4792 -1.2816
  143DOPC   C3516994   2.375   3.494  15.975 -0.1582 -0.3991 -0.0394
  143DOPC   H5X16995   2.313   3.563  16.035  0.8610 -0.7031  1.4061
  143DOPC   H5Y16996   2.323   3.396  15.988 -1.7790  0.4940  0.4682
  143DOPC   C3616997   2.371   3.545  15.828 -0.1493 -0.4831  0.5654
  143DOPC   H6X16998   2.273   3.595  15.814  0.1079  0.1178  0.8577
  143DOPC   H6Y16999   2.449   3.621  15.808 -0.0735  0.0427  2.5820
  143DOPC   C3717000   2.394   3.433  15.728  0.3425 -0.3510 -0.4207
  143DOPC   H7X17001   2.492   3.391  15.758  1.3994  2.3491  0.2398
  143DOPC   H7Y17002   2.327   3.347  15.748 -1.7144  0.9500 -1.3150
  143DOPC   C3817003   2.379   3.474  15.582  0.4106  0.0053 -0.3201
  143DOPC   H8X17004   2.414   3.392  15.516  0.5624  0.4253 -0.7649
  143DOPC   H8Y17005   2.445   3.563  15.571  0.3273  0.3743  1.8184
  143DOPC   C3917006   2.239   3.509  15.539 -0.5092  0.7574  0.2848
  143DOPC   H9X17007   2.173   3.552  15.616  0.4127  2.1765  0.3101
  143DOPC  C31017008   2.164   3.475  15.432 -0.8892  0.5458  0.7182
  143DOPC  H10X17009   2.058   3.505  15.428 -1.0475  0.0628  1.1486
  143DOPC  C31117010   2.211   3.405  15.302 -0.1218  0.2959  0.2566
  143DOPC  H11X17011   2.222   3.295  15.314  1.1620  0.3787 -0.1041
  143DOPC  H11Y17012   2.311   3.438  15.267 -0.0979 -1.7435 -1.8766
  143DOPC  C31217013   2.110   3.437  15.184 -0.4227 -0.5297 -0.2055
  143DOPC  H12X17014   2.007   3.407  15.214  0.0971 -1.2759  0.9438
  143DOPC  H12Y17015   2.139   3.373  15.099  0.5814  1.1492 -1.1771
  143DOPC  C31317016   2.107   3.574  15.129  0.5885 -0.3890  0.2578
  143DOPC  H13X17017   2.067   3.645  15.205 -3.4881 -2.1701 -0.0082
  143DOPC  H13Y17018   2.209   3.608  15.098 -0.5214  1.8323 -1.2733
  143DOPC  C31417019   2.024   3.582  15.000  0.3341  0.2742  0.3380
  143DOPC  H14X17020   2.065   3.519  14.918  2.4624  2.0201 -0.0087
  143DOPC  H14Y17021   1.922   3.541  15.020  0.6894 -0.1335  1.4067
  143DOPC  C31517022   2.019   3.723  14.941  0.2740  0.3356  0.1216
  143DOPC  H15X17023   2.023   3.802  15.019  1.9490 -0.9681  1.4271
  143DOPC  H15Y17024   1.920   3.726  14.890  0.8774  1.4001 -1.0218
  143DOPC  C31617025   2.134   3.749  14.844  0.3122 -0.2019  0.0706
  143DOPC  H16X17026   2.226   3.761  14.906 -0.6784 -0.9940  1.7637
  143DOPC  H16Y17027   2.138   3.661  14.777 -0.7719 -0.6607  0.5916
  143DOPC  C31717028   2.106   3.876  14.760  0.5242  0.4087 -0.1415
  143DOPC  H17X17029   2.029   3.858  14.681 -0.9944  0.3389  1.2924
  143DOPC  H17Y17030   2.073   3.951  14.834 -0.5902  0.7035 -0.8962
  143DOPC  C31817031   2.222   3.936  14.680 -0.3063  0.2402  0.3486
  143DOPC  H18X17032   2.261   3.874  14.596 -0.7194  2.2809 -1.4377
  143DOPC  H18Y17033   2.197   4.036  14.639  0.1646  0.3905  0.4268
  143DOPC  H18Z17034   2.318   3.946  14.735  0.7310 -1.5635 -1.0177
  144DOPC     N17035   2.090   2.145  16.691 -0.3571 -0.3433 -0.5768
  144DOPC   C1217036   2.099   2.244  16.572  0.6346  0.2599 -0.1591
  144DOPC  H12A17037   2.018   2.316  16.566 -0.0140 -0.3620  0.8770
  144DOPC  H12B17038   2.090   2.175  16.490 -2.6006  2.2727 -1.7202
  144DOPC   C1317039   2.111   2.209  16.824 -0.0763 -0.0925  0.0890
  144DOPC  H13A17040   2.128   2.133  16.898 -2.7787 -0.4768  0.4390
  144DOPC  H13B17041   2.199   2.271  16.825 -0.9593  1.2379 -0.5667
  144DOPC  H13C17042   2.029   2.274  16.853  0.7630  1.0025  0.0713
  144DOPC   C1417043   2.184   2.031  16.686  0.4825 -0.0944  0.1229
  144DOPC  H14A17044   2.182   1.967  16.599  2.1348  0.7029 -0.5542
  144DOPC  H14B17045   2.284   2.070  16.671  0.2810 -0.0763 -1.4110
  144DOPC  H14C17046   2.189   1.972  16.776  0.0765 -0.0963  0.1484
  144DOPC   C1517047   1.952   2.088  16.690 -0.1784  0.4973  0.1076
  144DOPC  H15A17048   1.945   2.011  16.765 -0.1366 -1.2124 -1.5723
  144DOPC  H15B17049   1.920   2.041  16.598 -1.5209  0.1928  0.6993
  144DOPC  H15C17050   1.875   2.164  16.700 -0.7609 -0.0668  0.0050
  144DOPC   C1117051   2.231   2.313  16.540 -0.6090 -0.1127  0.0062
  144DOPC  H11A17052   2.309   2.242  16.505  0.4717  1.6936 -1.4179
  144DOPC  H11B17053   2.214   2.381  16.454  0.2036 -1.3289 -1.1684
  144DOPC     P17054   2.434   2.359  16.706 -0.1744  0.4549  0.0923
  144DOPC   O1317055   2.490   2.223  16.671 -0.4926 -0.1230  0.2418
  144DOPC   O1417056   2.424   2.378  16.848  0.1709 -0.0023  0.5037
  144DOPC   O1217057   2.293   2.386  16.648  0.0902 -0.1307  0.4579
  144DOPC   O1117058   2.537   2.457  16.644  0.0755  0.8107 -0.1521
  144DOPC    C117059   2.529   2.542  16.538  0.4351  0.5567 -0.4974
  144DOPC    HA17060   2.619   2.608  16.535  0.0514  1.1186  0.0525
  144DOPC    HB17061   2.441   2.609  16.551  0.1716  0.7425 -2.7919
  144DOPC    C217062   2.526   2.468  16.404  1.1396  0.5024 -0.5083
  144DOPC    HS17063   2.437   2.403  16.418  0.2859  1.2579 -2.1531
  144DOPC   O2117064   2.651   2.398  16.384  0.5402 -0.1661  0.6928
  144DOPC   C2117065   2.637   2.280  16.320  0.2237 -0.7408  0.0201
  144DOPC   O2217066   2.529   2.221  16.309  0.1126  0.0561 -0.5513
  144DOPC   C2217067   2.770   2.246  16.256  0.0332  0.4341  0.4415
  144DOPC   H2R17068   2.806   2.155  16.309  0.7418  0.6608  0.3562
  144DOPC   H2S17069   2.848   2.324  16.264 -0.2746  0.9764 -1.2777
  144DOPC    C317070   2.494   2.560  16.286 -0.4920  0.0911 -0.7686
  144DOPC    HX17071   2.575   2.636  16.290 -1.0170  0.6045  1.3700
  144DOPC    HY17072   2.402   2.622  16.295 -0.2378  0.4412 -0.5389
  144DOPC   O3117073   2.493   2.488  16.160  0.9149 -0.6397 -0.4305
  144DOPC   C3117074   2.362   2.446  16.135 -0.1692  0.1420  0.4046
  144DOPC   O3217075   2.272   2.447  16.219 -0.0875  0.3366 -0.0021
  144DOPC   C3217076   2.355   2.386  16.000 -0.9318  0.2118 -0.4641
  144DOPC   H2X17077   2.456   2.345  15.975 -1.5950 -3.8619  2.4930
  144DOPC   H2Y17078   2.291   2.295  16.007 -0.9663  0.1376 -1.5392
  144DOPC   C2317079   2.763   2.213  16.102  0.7588  0.8151 -0.3845
  144DOPC   H3R17080   2.679   2.159  16.054  1.0857 -0.5419  0.5107
  144DOPC   H3S17081   2.836   2.134  16.072 -1.2226 -0.3431 -2.4603
  144DOPC   C2417082   2.781   2.342  16.022  0.1453  0.0926 -0.3823
  144DOPC   H4R17083   2.886   2.373  16.040  0.2287 -0.6134  0.4060
  144DOPC   H4S17084   2.711   2.419  16.060 -0.5952 -0.6030 -0.3051
  144DOPC   C2517085   2.777   2.325  15.867 -0.0854 -0.6476  0.5470
  144DOPC   H5R17086   2.683   2.273  15.839 -0.4173 -0.5625  1.4701
  144DOPC   H5S17087   2.860   2.258  15.838 -0.0320 -0.4017  0.1279
  144DOPC   C2617088   2.788   2.462  15.801 -0.1434 -0.4908  1.2371
  144DOPC   H6R17089   2.891   2.503  15.805 -0.2658 -0.2297  1.9341
  144DOPC   H6S17090   2.721   2.536  15.849  1.1146  1.8824 -0.4712
  144DOPC   C2717091   2.756   2.454  15.643 -0.2006 -0.3577 -0.9248
  144DOPC   H7R17092   2.670   2.385  15.627  0.4551 -0.5947 -4.2352
  144DOPC   H7S17093   2.847   2.405  15.601  0.4709  0.4326 -0.4094
  144DOPC   C2817094   2.737   2.593  15.579 -0.5035  0.3359 -0.0269
  144DOPC   H8R17095   2.767   2.597  15.472 -3.9277  2.4350 -1.0400
  144DOPC   H8S17096   2.808   2.662  15.629  0.7000  0.6556 -2.0388
  144DOPC   C2917097   2.604   2.652  15.600  0.4890  0.0574 -0.0095
  144DOPC   H9R17098   2.565   2.657  15.702  0.7666  0.2900  0.0870
  144DOPC  C21017099   2.523   2.704  15.505 -0.0105 -0.0735  0.1200
  144DOPC  H10R17100   2.427   2.751  15.529 -0.1070  0.1381 -0.6525
  144DOPC  C21117101   2.543   2.688  15.351  0.0761  0.5312 -0.0915
  144DOPC  H11R17102   2.648   2.698  15.316  0.2044  0.4402  0.2714
  144DOPC  H11S17103   2.477   2.766  15.307  0.8777  1.3033  0.0464
  144DOPC  C21217104   2.489   2.543  15.309 -0.4862  0.6280 -0.1187
  144DOPC  H12R17105   2.384   2.545  15.347 -0.3841  1.6665  0.1486
  144DOPC  H12S17106   2.543   2.464  15.364 -0.4626  0.0842 -0.9003
  144DOPC  C21317107   2.492   2.516  15.157 -0.0248  0.4871  0.3585
  144DOPC  H13R17108   2.443   2.600  15.103  0.9450  1.1908  0.5490
  144DOPC  H13S17109   2.432   2.423  15.144  1.6524 -0.4191 -1.3384
  144DOPC  C21417110   2.634   2.498  15.098  0.7996  0.0858  0.0406
  144DOPC  H14R17111   2.691   2.422  15.155 -0.0349 -1.5465 -1.2429
  144DOPC  H14S17112   2.685   2.597  15.108  0.6696 -0.0350  2.3715
  144DOPC  C21517113   2.630   2.443  14.952  0.3681 -0.2162  0.2828
  144DOPC  H15R17114   2.567   2.504  14.884  1.7701  2.1118  0.9308
  144DOPC  H15S17115   2.601   2.336  14.945 -1.1267  0.2193 -0.5014
  144DOPC  C21617116   2.772   2.445  14.894 -0.3666  0.2073  0.3272
  144DOPC  H16R17117   2.843   2.398  14.965 -0.3713  2.6231  2.0882
  144DOPC  H16S17118   2.784   2.554  14.876 -0.9132  0.0930 -0.8237
  144DOPC  C21717119   2.788   2.392  14.751 -0.1553 -0.4746 -0.4570
  144DOPC  H17R17120   2.739   2.454  14.674  1.7688  2.4320  0.5061
  144DOPC  H17S17121   2.738   2.292  14.758 -0.5401 -0.3706 -1.5454
  144DOPC  C21817122   2.930   2.385  14.708  0.2583  0.2458 -0.0855
  144DOPC  H18R17123   2.941   2.314  14.624 -1.9388 -0.6041  0.2828
  144DOPC  H18S17124   3.000   2.365  14.791 -0.6205 -1.4365  0.2843
  144DOPC  H18T17125   2.965   2.483  14.669 -3.2152  1.5375 -0.3707
  144DOPC   C3317126   2.299   2.488  15.898 -0.3480  0.2500  0.2550
  144DOPC   H3X17127   2.350   2.586  15.909  0.4473 -0.1230 -0.0325
  144DOPC   H3Y17128   2.194   2.498  15.932 -0.0276 -0.1179  1.4050
  144DOPC   C3417129   2.309   2.440  15.749 -0.3543  0.7126  0.0042
  144DOPC   H4X17130   2.414   2.453  15.714 -1.4612 -0.6107 -4.3637
  144DOPC   H4Y17131   2.250   2.508  15.685  2.9232  2.1313 -1.7417
  144DOPC   C3517132   2.258   2.292  15.716  0.1112 -0.0087 -0.5436
  144DOPC   H5X17133   2.148   2.295  15.731 -0.1421  0.1579 -2.2028
  144DOPC   H5Y17134   2.301   2.217  15.785 -0.1221 -0.4780 -0.9010
  144DOPC   C3617135   2.290   2.249  15.569  0.0961  0.5712 -0.4581
  144DOPC   H6X17136   2.243   2.329  15.507  0.9339  1.6824  0.3072
  144DOPC   H6Y17137   2.398   2.262  15.549  0.2663 -2.3923 -2.0667
  144DOPC   C3717138   2.254   2.111  15.525  0.3188  0.7954 -0.2802
  144DOPC   H7X17139   2.293   2.089  15.424  0.5696  1.9242 -0.4483
  144DOPC   H7Y17140   2.307   2.037  15.589 -0.8239  1.4751  1.5504
  144DOPC   C3817141   2.105   2.067  15.521  0.0318  0.6858 -0.1592
  144DOPC   H8X17142   2.071   2.068  15.627  0.1726 -0.5867 -0.0923
  144DOPC   H8Y17143   2.111   1.963  15.483 -1.1142 -0.1437  1.7937
  144DOPC   C3917144   2.018   2.155  15.430  0.2342  0.2031  0.1912
  144DOPC   H9X17145   2.038   2.122  15.327 -0.8380  0.0023  0.0441
  144DOPC  C31017146   1.902   2.220  15.469 -0.0515  0.5358 -0.2805
  144DOPC  H10X17147   1.845   2.285  15.401 -0.8225  1.0666  0.8346
  144DOPC  C31117148   1.854   2.237  15.610 -0.1942  0.4482  0.3886
  144DOPC  H11X17149   1.901   2.328  15.652  0.5549  1.1889 -1.8931
  144DOPC  H11Y17150   1.878   2.153  15.678  1.7383  0.0891 -0.6380
  144DOPC  C31217151   1.701   2.255  15.616 -1.4427  0.5948  0.1696
  144DOPC  H12X17152   1.653   2.159  15.586  0.8648 -0.7002  0.4020
  144DOPC  H12Y17153   1.673   2.332  15.541  0.9139  0.6974 -0.6840
  144DOPC  C31317154   1.656   2.283  15.757 -0.0473  0.1425 -0.3820
  144DOPC  H13X17155   1.706   2.211  15.825 -1.7399 -0.3697  0.3744
  144DOPC  H13Y17156   1.697   2.384  15.778  0.3056 -0.1364  0.2901
  144DOPC  C31417157   1.509   2.259  15.768 -0.5688  0.1971  0.0722
  144DOPC  H14X17158   1.456   2.329  15.699 -1.5050  1.0742  1.6307
  144DOPC  H14Y17159   1.490   2.152  15.744 -1.1784  0.6384 -1.5765
  144DOPC  C31517160   1.467   2.287  15.915  0.3759  0.1966  0.3662
  144DOPC  H15X17161   1.486   2.394  15.937 -2.1918  1.1047 -1.3731
  144DOPC  H15Y17162   1.533   2.238  15.990  1.4700  1.3614  0.1999
  144DOPC  C31617163   1.320   2.241  15.939  0.2227 -0.7344 -0.1972
  144DOPC  H16X17164   1.312   2.136  15.904 -0.2870 -0.9579  0.5532
  144DOPC  H16Y17165   1.301   2.253  16.048  0.1906  0.9454 -0.3605
  144DOPC  C31717166   1.223   2.329  15.855 -0.3749 -0.9794 -0.1415
  144DOPC  H17X17167   1.248   2.433  15.886 -0.6335 -0.6073 -1.1212
  144DOPC  H17Y17168   1.254   2.326  15.748  1.0074 -0.4788  0.2249
  144DOPC  C31817169   1.072   2.311  15.852  0.1660  0.3336  0.0446
  144DOPC  H18X17170   1.038   2.210  15.822 -0.2295  1.2360 -2.9206
  144DOPC  H18Y17171   1.038   2.325  15.957 -1.9175  1.3965 -0.7260
  144DOPC  H18Z17172   1.017   2.388  15.794 -3.1938 -2.7292 -1.1936
  145DOPC     N17173   2.792   4.899  16.639 -0.6898 -0.1615  0.1513
  145DOPC   C1217174   2.881   4.969  16.535 -1.1130  0.2052  0.5060
  145DOPC  H12A17175   2.853   4.954  16.432  3.5325  0.8140 -1.0526
  145DOPC  H12B17176   2.977   4.920  16.538 -2.2778 -2.3114 -0.3257
  145DOPC   C1317177   2.878   4.867  16.758 -0.8365  0.0735 -0.1601
  145DOPC  H13A17178   2.968   4.816  16.728 -1.5559 -0.8711 -0.7860
  145DOPC  H13B17179   2.905   4.965  16.792  1.3300 -0.5563  0.0437
  145DOPC  H13C17180   2.826   4.812  16.835  0.3995 -0.4222  0.3329
  145DOPC   C1417181   2.742   4.769  16.583 -0.4837  0.1759  0.0527
  145DOPC  H14A17182   2.680   4.727  16.661 -0.6948  1.2113  0.4592
  145DOPC  H14B17183   2.685   4.769  16.491 -0.1842 -3.6744 -0.2878
  145DOPC  H14C17184   2.825   4.702  16.567 -2.2530 -1.9698 -0.6525
  145DOPC   C1517185   2.667   4.980  16.664 -0.5010  0.1244  0.2165
  145DOPC  H15A17186   2.683   5.082  16.696 -1.1878  0.4814 -0.5469
  145DOPC  H15B17187   2.622   4.933  16.750  1.6023 -1.4273  0.5487
  145DOPC  H15C17188   2.592   4.968  16.586 -2.1215  3.3177  1.1258
  145DOPC   C1117189   2.910   5.117  16.570  0.4829 -0.8069  0.0449
  145DOPC  H11A17190   2.956   5.172  16.485  0.9950  0.7317  1.2612
  145DOPC  H11B17191   2.818   5.178  16.582  0.1528 -1.5020  1.2301
  145DOPC     P17192   3.083   5.257  16.705  0.4673  0.0365 -0.1537
  145DOPC   O1317193   3.177   5.243  16.818 -0.1117 -0.3538  0.4497
  145DOPC   O1417194   3.002   5.381  16.695 -0.3701  0.4882  0.0492
  145DOPC   O1217195   2.982   5.137  16.692  0.2219 -0.2846  0.1396
  145DOPC   O1117196   3.165   5.244  16.573 -0.3096  0.3880  0.8439
  145DOPC    C117197   3.254   5.138  16.552  0.6083 -0.2058  0.3361
  145DOPC    HA17198   3.199   5.043  16.563  1.7927 -0.7879  1.5281
  145DOPC    HB17199   3.331   5.136  16.632  0.6192  0.0522  0.3316
  145DOPC    C217200   3.317   5.135  16.411 -0.5315 -0.4528 -0.3160
  145DOPC    HS17201   3.392   5.217  16.412 -1.2259  0.2279  2.1141
  145DOPC   O2117202   3.228   5.169  16.299  0.3198 -0.1783 -0.2121
  145DOPC   C2117203   3.143   5.076  16.255 -0.7068  0.0020 -0.2595
  145DOPC   O2217204   3.136   4.960  16.296 -0.1655 -0.2856  0.1977
  145DOPC   C2217205   3.059   5.133  16.147 -0.0195 -0.6809  0.9472
  145DOPC   H2R17206   3.048   5.242  16.168  1.4906 -0.4241  0.5684
  145DOPC   H2S17207   2.955   5.099  16.166  0.0168 -0.5848  1.3135
  145DOPC    C317208   3.408   5.014  16.385 -0.0456 -0.1511  0.0762
  145DOPC    HX17209   3.347   4.927  16.419  0.0076  0.3348  1.5178
  145DOPC    HY17210   3.504   5.010  16.440  1.5175 -1.5863 -2.6000
  145DOPC   O3117211   3.453   5.005  16.245 -0.3358 -0.4130 -0.0897
  145DOPC   C3117212   3.514   4.898  16.216  0.3075  0.3620 -0.5354
  145DOPC   O3217213   3.521   4.799  16.287  0.6130 -0.3585  0.2393
  145DOPC   C3217214   3.569   4.916  16.081 -0.3609 -0.4051  0.1506
  145DOPC   H2X17215   3.490   4.924  16.002  1.1199 -0.7260 -1.4283
  145DOPC   H2Y17216   3.626   5.011  16.067 -1.6383  0.4419  0.4500
  145DOPC   C2317217   3.119   5.098  16.017  0.2805 -0.1974 -0.1118
  145DOPC   H3R17218   3.229   5.117  16.019  0.1353  0.6168  1.2581
  145DOPC   H3S17219   3.073   5.163  15.940 -0.1936 -1.1749 -0.6767
  145DOPC   C2417220   3.098   4.949  15.978  0.0396 -0.8881  0.0093
  145DOPC   H4R17221   2.989   4.933  15.966  0.1843 -3.3875  1.4805
  145DOPC   H4S17222   3.118   4.877  16.060  2.7956  1.0101  1.1689
  145DOPC   C2517223   3.175   4.906  15.854  0.1422  0.1862  0.0386
  145DOPC   H5R17224   3.131   4.807  15.831 -1.7749  0.8908  0.5255
  145DOPC   H5S17225   3.282   4.884  15.876  0.4163  1.3897 -0.0194
  145DOPC   C2617226   3.177   4.988  15.720  0.1449 -0.6342 -1.1179
  145DOPC   H6R17227   3.208   5.092  15.741  1.7679 -1.4765  1.1065
  145DOPC   H6S17228   3.072   5.000  15.685  0.4704 -0.6851 -2.1443
  145DOPC   C2717229   3.264   4.912  15.620  1.0411 -0.5620 -0.3132
  145DOPC   H7R17230   3.210   4.888  15.526  0.5248 -0.9545  0.0778
  145DOPC   H7S17231   3.300   4.813  15.655 -0.1399 -0.5793  0.9315
  145DOPC   C2817232   3.395   4.983  15.575 -0.1778  0.0393 -0.2379
  145DOPC   H8R17233   3.379   5.085  15.534 -1.8942 -0.2437 -0.3566
  145DOPC   H8S17234   3.433   4.930  15.485 -0.3730 -1.2889  0.4261
  145DOPC   C2917235   3.493   4.990  15.693 -0.2508 -0.5372  0.1707
  145DOPC   H9R17236   3.518   4.897  15.745 -0.7671  0.3383  2.0543
  145DOPC  C21017237   3.565   5.099  15.735  0.3880 -0.1422 -0.2347
  145DOPC  H10R17238   3.627   5.092  15.826 -1.8712 -0.1318  1.3783
  145DOPC  C21117239   3.538   5.242  15.691  0.4402  0.1051  1.1932
  145DOPC  H11R17240   3.534   5.307  15.782 -0.9364  0.7387  0.7209
  145DOPC  H11S17241   3.433   5.255  15.657  0.9426  1.2198 -0.0449
  145DOPC  C21217242   3.623   5.294  15.576  0.4749  0.1148  0.2698
  145DOPC  H12R17243   3.602   5.402  15.570 -0.7378 -0.1335 -0.2647
  145DOPC  H12S17244   3.586   5.245  15.483 -2.6085  1.6086  0.5968
  145DOPC  C21317245   3.776   5.282  15.594  1.1035  0.5189  0.3922
  145DOPC  H13R17246   3.794   5.173  15.586  1.0366  0.5983 -1.1829
  145DOPC  H13S17247   3.817   5.318  15.691  0.2019  2.0951  0.2266
  145DOPC  C21417248   3.857   5.367  15.493  0.0460 -0.1132 -0.2426
  145DOPC  H14R17249   3.952   5.400  15.541 -0.7397 -1.0335  2.0671
  145DOPC  H14S17250   3.792   5.454  15.469 -1.2483 -1.3145 -1.2964
  145DOPC  C21517251   3.879   5.284  15.363 -0.0821  0.1241 -0.4017
  145DOPC  H15R17252   3.798   5.209  15.358  0.2241 -0.1577 -1.3447
  145DOPC  H15S17253   3.973   5.225  15.374 -0.3493 -0.8536 -2.7616
  145DOPC  C21617254   3.887   5.363  15.235 -0.3949  0.0267  0.0259
  145DOPC  H16R17255   3.963   5.441  15.257 -0.4703 -0.1739  1.0382
  145DOPC  H16S17256   3.795   5.426  15.229  0.6181  1.8036  1.8608
  145DOPC  C21717257   3.920   5.281  15.120 -0.1026 -0.2580 -0.0068
  145DOPC  H17R17258   3.852   5.195  15.102 -0.9492  0.5182 -0.5873
  145DOPC  H17S17259   4.026   5.249  15.132  0.0905  0.8441  1.5468
  145DOPC  C21817260   3.919   5.359  14.990 -0.2401  0.3743  0.2511
  145DOPC  H18R17261   3.977   5.296  14.919  0.4674  0.1614  1.0088
  145DOPC  H18S17262   3.965   5.460  14.984 -3.3056  1.8243 -1.1341
  145DOPC  H18T17263   3.818   5.364  14.942  1.1235 -0.1672 -2.9821
  145DOPC   C3317264   3.675   4.805  16.049  0.3435 -0.5904 -0.2997
  145DOPC   H3X17265   3.746   4.798  16.135 -1.0081  0.2270  0.9407
  145DOPC   H3Y17266   3.729   4.846  15.961 -0.0975 -1.2524 -0.8828
  145DOPC   C3417267   3.606   4.668  16.020  0.0127 -0.4780 -0.8573
  145DOPC   H4X17268   3.542   4.627  16.101 -1.1374 -1.2098 -2.0860
  145DOPC   H4Y17269   3.687   4.593  16.033 -0.3141 -0.3866  2.3149
  145DOPC   C3517270   3.537   4.645  15.883  0.4400 -0.2209 -0.0318
  145DOPC   H5X17271   3.447   4.709  15.873 -0.1968 -1.1648 -0.5432
  145DOPC   H5Y17272   3.502   4.540  15.898  1.3385 -0.3581  1.2785
  145DOPC   C3617273   3.636   4.655  15.768 -0.4100 -0.6282  0.3955
  145DOPC   H6X17274   3.676   4.758  15.760  1.2978 -1.3772 -2.0955
  145DOPC   H6Y17275   3.724   4.592  15.794  0.8614  0.4168 -1.1864
  145DOPC   C3717276   3.577   4.633  15.633 -0.2429 -0.1267 -0.0234
  145DOPC   H7X17277   3.523   4.536  15.628  1.3641 -1.0339 -0.5088
  145DOPC   H7Y17278   3.496   4.706  15.615  0.0049  1.1729  3.4014
  145DOPC   C3817279   3.677   4.651  15.511  0.9706  0.2398  0.4164
  145DOPC   H8X17280   3.780   4.618  15.540  0.9587  0.5227  0.7932
  145DOPC   H8Y17281   3.689   4.757  15.479  1.3058 -0.6872 -2.8488
  145DOPC   C3917282   3.642   4.567  15.392  0.2338  0.2696  0.4255
  145DOPC   H9X17283   3.717   4.489  15.377 -0.1992 -0.5596  2.3460
  145DOPC  C31017284   3.548   4.591  15.302  0.0260 -0.1249 -0.1031
  145DOPC  H10X17285   3.551   4.524  15.214  1.6215 -0.0665 -0.1319
  145DOPC  C31117286   3.444   4.702  15.307 -0.8611  0.2915  0.0356
  145DOPC  H11X17287   3.441   4.751  15.406  0.9928 -0.0663  0.3111
  145DOPC  H11Y17288   3.337   4.678  15.290 -0.9214  1.8427 -2.2669
  145DOPC  C31217289   3.482   4.814  15.211  0.1829 -0.7879 -0.2395
  145DOPC  H12X17290   3.590   4.837  15.220  0.2637 -1.7322  1.6108
  145DOPC  H12Y17291   3.439   4.906  15.256  0.0081 -0.4998 -0.9730
  145DOPC  C31317292   3.442   4.795  15.069  0.1865 -0.6231  0.4797
  145DOPC  H13X17293   3.508   4.716  15.027 -1.0193 -0.4489 -1.9451
  145DOPC  H13Y17294   3.338   4.757  15.069 -0.4047  0.8981  1.4226
  145DOPC  C31417295   3.463   4.919  14.980 -0.0152  0.4328 -0.1874
  145DOPC  H14X17296   3.396   4.998  15.020 -1.1958  1.2013 -3.3271
  145DOPC  H14Y17297   3.568   4.958  14.978  0.6087 -0.9860  1.8255
  145DOPC  C31517298   3.408   4.887  14.844  0.3084  0.5311  0.3707
  145DOPC  H15X17299   3.322   4.817  14.852 -0.2853  1.4192  2.1378
  145DOPC  H15Y17300   3.480   4.829  14.782 -1.7300 -0.8874 -0.8233
  145DOPC  C31617301   3.341   5.004  14.766  0.1222  0.4195  0.0709
  145DOPC  H16X17302   3.251   5.045  14.816 -0.0120  0.8534 -0.5132
  145DOPC  H16Y17303   3.401   5.097  14.749  0.9355  0.1503  1.3358
  145DOPC  C31717304   3.282   4.974  14.625  0.1974  0.0276  0.0531
  145DOPC  H17X17305   3.361   4.950  14.552 -1.7477 -0.8388 -1.8935
  145DOPC  H17Y17306   3.219   4.882  14.627 -0.2670  0.2696 -1.7247
  145DOPC  C31817307   3.194   5.091  14.575 -0.4305 -0.2680  0.2650
  145DOPC  H18X17308   3.227   5.191  14.612 -1.7564  0.2167  0.1646
  145DOPC  H18Y17309   3.199   5.085  14.464 -1.0105 -5.0986  0.2686
  145DOPC  H18Z17310   3.089   5.080  14.608 -0.7063  0.1771 -0.4382
  146DOPC     N17311   5.243   1.396  16.809  0.4891 -0.1878  0.4528
  146DOPC   C1217312   5.092   1.424  16.806 -0.6425 -0.5495 -0.5123
  146DOPC  H12A17313   5.060   1.349  16.734  1.8892 -0.6013 -1.6957
  146DOPC  H12B17314   5.074   1.518  16.757 -0.8728  0.0561  0.6989
  146DOPC   C1317315   5.296   1.431  16.672  0.2008  0.0545  0.0012
  146DOPC  H13A17316   5.259   1.527  16.639  1.0188 -0.1442 -1.5968
  146DOPC  H13B17317   5.403   1.430  16.657  0.1034 -2.1057 -0.8776
  146DOPC  H13C17318   5.258   1.359  16.601 -0.1916  0.9993 -0.7737
  146DOPC   C1417319   5.258   1.248  16.825  0.6816 -0.3102 -0.6238
  146DOPC  H14A17320   5.225   1.219  16.923  2.1432 -1.8979 -0.5585
  146DOPC  H14B17321   5.198   1.195  16.752  0.2779  0.9320 -1.2330
  146DOPC  H14C17322   5.363   1.225  16.813  0.4741 -1.2695 -0.6701
  146DOPC   C1517323   5.316   1.471  16.921  0.6545 -0.2884 -0.0805
  146DOPC  H15A17324   5.252   1.464  17.008 -1.7289  0.4102 -1.6821
  146DOPC  H15B17325   5.316   1.576  16.896  1.0024  0.2404  1.9261
  146DOPC  H15C17326   5.418   1.438  16.932  0.0831 -1.6491  1.7943
  146DOPC   C1117327   5.012   1.394  16.936  0.1158 -0.6862  0.6377
  146DOPC  H11A17328   4.904   1.397  16.909  0.3037  0.1572 -0.0432
  146DOPC  H11B17329   5.037   1.291  16.970 -1.7912 -1.2622  0.4035
  146DOPC     P17330   4.940   1.595  17.096  0.2302 -0.1295 -0.2890
  146DOPC   O1317331   5.013   1.708  17.165  0.3259 -0.4568  0.0833
  146DOPC   O1417332   4.834   1.521  17.167  0.0221  0.0077 -0.1982
  146DOPC   O1217333   5.047   1.490  17.041  0.0721 -0.2483  0.0817
  146DOPC   O1117334   4.891   1.649  16.951 -0.4528 -0.0146 -0.0258
  146DOPC    C117335   4.978   1.734  16.880 -0.0598 -1.0088  0.3963
  146DOPC    HA17336   5.074   1.684  16.854  0.1834 -0.7277  0.7529
  146DOPC    HB17337   5.010   1.825  16.936  1.4836 -0.5329 -1.1475
  146DOPC    C217338   4.919   1.765  16.734 -0.7336  0.5325  0.8482
  146DOPC    HS17339   4.832   1.827  16.766 -0.4063  0.3262  2.2325
  146DOPC   O2117340   4.881   1.633  16.673  0.0145 -0.3631 -0.5820
  146DOPC   C2117341   4.749   1.619  16.661  0.7793 -0.9402 -0.0585
  146DOPC   O2217342   4.660   1.701  16.689 -0.0193  0.1461  0.3883
  146DOPC   C2217343   4.712   1.494  16.574 -0.4391 -0.2778 -0.5927
  146DOPC   H2R17344   4.765   1.402  16.608 -0.0504 -0.0632 -0.6184
  146DOPC   H2S17345   4.735   1.523  16.469 -1.7305  1.4462 -0.4370
  146DOPC    C317346   5.013   1.853  16.644  0.1820  0.1251 -0.7515
  146DOPC    HX17347   5.106   1.791  16.638 -0.3285 -0.5016 -3.5626
  146DOPC    HY17348   5.029   1.951  16.694  0.1118 -0.6665  0.8851
  146DOPC   O3117349   4.950   1.870  16.511 -0.4482 -0.0014 -0.8509
  146DOPC   C3117350   5.029   1.852  16.405  0.0540  0.6955 -0.0175
  146DOPC   O3217351   5.146   1.816  16.408  0.3685 -0.9449  0.5987
  146DOPC   C3217352   4.936   1.859  16.287  0.1439  0.0603  0.5561
  146DOPC   H2X17353   4.896   1.759  16.262  0.5018  0.0436  0.0201
  146DOPC   H2Y17354   4.851   1.927  16.308 -1.2375 -1.4508  0.0748
  146DOPC   C2317355   4.561   1.445  16.589  0.5449 -0.2999  0.4474
  146DOPC   H3R17356   4.500   1.516  16.528  2.3162  1.1162  0.2198
  146DOPC   H3S17357   4.519   1.441  16.691  0.6606  1.3378  0.5919
  146DOPC   C2417358   4.552   1.312  16.513 -0.3327  0.1669  0.2968
  146DOPC   H4R17359   4.444   1.284  16.507 -0.7563  1.8285 -0.5232
  146DOPC   H4S17360   4.612   1.244  16.576 -0.5934  0.2096  0.5947
  146DOPC   C2517361   4.612   1.304  16.368  0.0122 -0.5400  0.2482
  146DOPC   H5R17362   4.718   1.334  16.384 -0.7885  1.7703  1.8061
  146DOPC   H5S17363   4.576   1.382  16.298  1.0574  1.1214  1.4586
  146DOPC   C2617364   4.603   1.161  16.306  0.2317 -0.3080 -0.2130
  146DOPC   H6R17365   4.657   1.167  16.209 -1.2270 -2.0626 -1.1873
  146DOPC   H6S17366   4.500   1.142  16.270 -1.1723 -1.0658  3.7451
  146DOPC   C2717367   4.672   1.054  16.399  0.0225 -0.0021  0.1919
  146DOPC   H7R17368   4.597   1.029  16.477  1.4102  2.3750  2.4587
  146DOPC   H7S17369   4.763   1.098  16.446 -0.4561  1.7615 -0.4811
  146DOPC   C2817370   4.711   0.912  16.342 -0.0060  0.1296  0.2231
  146DOPC   H8R17371   4.614   0.867  16.310 -0.9329  1.8301  0.5422
  146DOPC   H8S17372   4.769   0.850  16.414  2.6259  1.1848 -0.8868
  146DOPC   C2917373   4.794   0.936  16.211 -0.4015  0.1907 -0.1772
  146DOPC   H9R17374   4.896   0.969  16.236 -0.1329  1.2976 -2.4618
  146DOPC  C21017375   4.751   0.922  16.083  0.0903 -0.5073 -0.1643
  146DOPC  H10R17376   4.823   0.944  16.003  0.0334 -0.0038 -0.0755
  146DOPC  C21117377   4.614   0.881  16.039 -0.2958 -0.6412  0.5541
  146DOPC  H11R17378   4.543   0.847  16.117 -1.2192  1.4766  0.7053
  146DOPC  H11S17379   4.619   0.788  15.978  0.7122 -0.1576 -0.1268
  146DOPC  C21217380   4.545   0.998  15.964 -0.2563 -0.1453  0.0366
  146DOPC  H12R17381   4.525   1.075  16.042  1.1963 -1.5439  1.8776
  146DOPC  H12S17382   4.446   0.967  15.925 -0.8051  1.9861 -0.4142
  146DOPC  C21317383   4.628   1.054  15.842  0.1485 -0.4417 -0.7826
  146DOPC  H13R17384   4.734   1.073  15.867 -0.2532  0.1375  0.5639
  146DOPC  H13S17385   4.589   1.156  15.821  0.0819 -0.1631  0.6046
  146DOPC  C21417386   4.613   0.955  15.718  0.0756 -0.0172 -0.2368
  146DOPC  H14R17387   4.505   0.940  15.699  0.0555  0.3088 -0.3893
  146DOPC  H14S17388   4.639   0.853  15.755 -1.5046 -0.0178  1.0258
  146DOPC  C21517389   4.701   0.988  15.604 -0.2899 -0.5055  0.0629
  146DOPC  H15R17390   4.799   0.935  15.615  0.9427  2.1442  4.5785
  146DOPC  H15S17391   4.716   1.098  15.599 -0.2470 -0.5615 -1.4163
  146DOPC  C21617392   4.645   0.941  15.468 -0.9550  0.3142  0.2403
  146DOPC  H16R17393   4.694   0.990  15.381 -0.8251 -0.7799 -0.3209
  146DOPC  H16S17394   4.538   0.971  15.460 -2.0761 -2.9917  1.2215
  146DOPC  C21717395   4.638   0.792  15.451 -0.8996 -0.1561  0.3034
  146DOPC  H17R17396   4.572   0.743  15.527  0.1623 -0.4852  1.0318
  146DOPC  H17S17397   4.735   0.742  15.467 -1.0402 -0.0448  1.6667
  146DOPC  C21817398   4.599   0.765  15.307  0.1232  0.1473  0.3405
  146DOPC  H18R17399   4.591   0.656  15.284 -2.2544 -0.1234  1.9937
  146DOPC  H18S17400   4.668   0.814  15.235  0.6444  0.5986  1.1396
  146DOPC  H18T17401   4.498   0.810  15.290  0.6263  1.3558  0.4645
  146DOPC   C3317402   5.009   1.909  16.159 -0.1284  0.5541 -0.2454
  146DOPC   H3X17403   5.100   1.850  16.131  1.4168  2.5455  0.3610
  146DOPC   H3Y17404   5.038   2.015  16.172 -2.4163  1.1014  0.7425
  146DOPC   C3417405   4.925   1.906  16.032 -0.2750 -0.4793  0.4787
  146DOPC   H4X17406   4.833   1.965  16.052  0.8891  1.4284  0.5443
  146DOPC   H4Y17407   4.897   1.799  16.021  3.2393 -1.5021  0.2911
  146DOPC   C3517408   4.985   1.966  15.897 -0.2276  0.5580 -0.0597
  146DOPC   H5X17409   5.061   1.896  15.857 -0.0679  0.8608 -0.2888
  146DOPC   H5Y17410   5.034   2.065  15.905 -0.4456  0.8009 -1.5608
  146DOPC   C3617411   4.864   1.977  15.800 -0.3290 -1.5127 -0.0063
  146DOPC   H6X17412   4.813   1.881  15.781 -0.8762 -1.1007 -0.6740
  146DOPC   H6Y17413   4.794   2.043  15.855  1.3288  0.8900 -0.5978
  146DOPC   C3717414   4.891   2.044  15.663  0.0353  0.4135 -0.2856
  146DOPC   H7X17415   4.908   2.154  15.674  3.4994  0.1087 -1.5483
  146DOPC   H7Y17416   4.983   2.000  15.620 -0.1839  1.8735 -2.4198
  146DOPC   C3817417   4.772   2.023  15.567 -0.4458  0.3851  0.2951
  146DOPC   H8X17418   4.683   2.072  15.612 -1.2672 -1.0826  0.3464
  146DOPC   H8Y17419   4.743   1.916  15.559  1.4128 -0.2973  1.9375
  146DOPC   C3917420   4.796   2.085  15.436 -0.7360 -0.3414  0.1420
  146DOPC   H9X17421   4.767   2.191  15.424  0.7563 -0.0605 -1.4135
  146DOPC  C31017422   4.853   2.032  15.323  0.2379  0.1622  0.3487
  146DOPC  H10X17423   4.875   2.098  15.239 -1.0678  1.1116  0.7303
  146DOPC  C31117424   4.895   1.890  15.301 -0.2152  0.3009 -0.2180
  146DOPC  H11X17425   4.839   1.857  15.210 -0.5744  1.1515 -0.3130
  146DOPC  H11Y17426   4.893   1.818  15.386  0.3101 -1.3256 -1.5150
  146DOPC  C31217427   5.044   1.889  15.257  0.0951 -0.0761 -0.8814
  146DOPC  H12X17428   5.059   1.952  15.168  0.6502  0.1447 -0.6340
  146DOPC  H12Y17429   5.059   1.782  15.232  1.4881  0.5971 -3.1322
  146DOPC  C31317430   5.148   1.937  15.364  0.3063  0.7388  0.1934
  146DOPC  H13X17431   5.138   2.048  15.365 -0.6531  0.6628  0.7238
  146DOPC  H13Y17432   5.119   1.892  15.461  0.8317  0.7489  0.3544
  146DOPC  C31417433   5.292   1.893  15.350 -0.1829  0.2268 -0.2705
  146DOPC  H14X17434   5.349   1.927  15.438 -0.7286  1.7843 -0.4744
  146DOPC  H14Y17435   5.300   1.783  15.358 -1.9986  0.0513 -0.4031
  146DOPC  C31517436   5.347   1.960  15.226  0.5044 -1.1003  0.2539
  146DOPC  H15X17437   5.321   2.067  15.217  1.1579 -1.0512 -1.3790
  146DOPC  H15Y17438   5.316   1.894  15.142 -1.6412  0.4632 -0.2733
  146DOPC  C31617439   5.500   1.969  15.233  0.1684 -0.6541 -0.2190
  146DOPC  H16X17440   5.541   2.027  15.319  0.4720  0.7621 -1.2691
  146DOPC  H16Y17441   5.543   1.869  15.256 -1.3384 -1.0358  1.1020
  146DOPC  C31717442   5.553   2.027  15.105  0.5528 -0.2903 -0.0385
  146DOPC  H17X17443   5.496   1.988  15.019  1.2428 -1.7094  0.1209
  146DOPC  H17Y17444   5.544   2.137  15.114 -1.8124 -0.4406  0.0546
  146DOPC  C31817445   5.699   1.981  15.090 -0.3085  0.4113  0.1533
  146DOPC  H18X17446   5.739   2.022  14.995  0.5938  0.0297  0.3693
  146DOPC  H18Y17447   5.757   2.014  15.178  1.6906  0.2398 -1.0546
  146DOPC  H18Z17448   5.713   1.872  15.078 -3.1754 -0.3917  2.7679
  147DOPC     N17449   1.200   3.457  16.970 -0.3076  0.4787  0.5844
  147DOPC   C1217450   1.244   3.517  16.838 -0.5986  0.1322  0.2202
  147DOPC  H12A17451   1.352   3.526  16.836 -0.7350  2.4022 -2.5513
  147DOPC  H12B17452   1.205   3.618  16.840 -0.6665  0.0977  1.2939
  147DOPC   C1317453   1.051   3.439  16.979  0.4368 -0.1913  0.7323
  147DOPC  H13A17454   1.025   3.439  17.084 -0.1398  1.3612  0.6096
  147DOPC  H13B17455   1.000   3.519  16.927  0.2049 -0.7545  0.0851
  147DOPC  H13C17456   1.011   3.357  16.921 -1.3233  1.4990 -0.5467
  147DOPC   C1417457   1.247   3.555  17.061  0.1471 -0.1732 -0.4509
  147DOPC  H14A17458   1.231   3.660  17.040 -0.7233 -0.0768  0.6013
  147DOPC  H14B17459   1.200   3.537  17.157  1.8817 -0.7816  0.3358
  147DOPC  H14C17460   1.355   3.556  17.062  0.1418  0.3628 -0.2521
  147DOPC   C1517461   1.260   3.317  16.993  0.8883 -0.2371 -0.3484
  147DOPC  H15A17462   1.213   3.246  16.927 -1.7319  2.3172 -1.4122
  147DOPC  H15B17463   1.224   3.282  17.089 -1.7989 -0.1623 -1.2398
  147DOPC  H15C17464   1.367   3.323  16.977  0.9898  1.8811  0.8543
  147DOPC   C1117465   1.200   3.441  16.710 -0.1529  0.8385  0.0348
  147DOPC  H11A17466   1.279   3.466  16.636  1.4715 -1.2415  0.9579
  147DOPC  H11B17467   1.210   3.333  16.738  1.1781  1.3987  1.9337
  147DOPC     P17468   1.026   3.605  16.608  0.1475 -0.1245 -0.0228
  147DOPC   O1317469   1.078   3.719  16.687  0.6302  0.7729  0.0153
  147DOPC   O1417470   0.883   3.599  16.573 -0.4587 -0.1482 -0.0894
  147DOPC   O1217471   1.066   3.468  16.669 -0.0344 -0.1642  0.0204
  147DOPC   O1117472   1.113   3.601  16.472 -0.7211 -0.0306 -0.3426
  147DOPC    C117473   1.078   3.521  16.358 -0.4876  0.4259 -1.0813
  147DOPC    HA17474   1.113   3.571  16.266  0.3516  2.7555  0.4143
  147DOPC    HB17475   0.969   3.530  16.335 -0.6483 -1.1592 -1.0535
  147DOPC    C217476   1.126   3.375  16.358 -0.3762 -0.1124 -0.5102
  147DOPC    HS17477   1.089   3.327  16.451  0.5166 -1.1009 -0.6447
  147DOPC   O2117478   1.266   3.379  16.357 -0.4561  0.0470  0.0394
  147DOPC   C2117479   1.321   3.286  16.437  1.1764 -0.5458 -0.8525
  147DOPC   O2217480   1.265   3.203  16.502  0.2317  0.2722  0.3764
  147DOPC   C2217481   1.471   3.327  16.465  0.0338 -0.0016 -0.4185
  147DOPC   H2R17482   1.507   3.262  16.547  1.9164  1.6887  0.1808
  147DOPC   H2S17483   1.466   3.433  16.499  1.2157 -0.0766  0.0210
  147DOPC    C317484   1.060   3.296  16.231 -0.5923  0.1936 -0.7389
  147DOPC    HX17485   0.953   3.299  16.261 -0.4296  2.6380 -0.1928
  147DOPC    HY17486   1.099   3.192  16.231  0.7192  0.6620 -0.7929
  147DOPC   O3117487   1.074   3.355  16.100  0.3615 -0.1052 -0.5175
  147DOPC   C3117488   1.180   3.314  16.024 -0.0991 -1.3373  0.8265
  147DOPC   O3217489   1.260   3.226  16.060 -0.0216  0.3222  0.3708
  147DOPC   C3217490   1.169   3.374  15.882 -0.3731 -0.0062  0.6485
  147DOPC   H2X17491   1.081   3.325  15.836 -0.3302  0.6669 -0.1691
  147DOPC   H2Y17492   1.160   3.484  15.875 -0.0714 -0.0671 -1.1971
  147DOPC   C2317493   1.572   3.315  16.349 -0.2693 -0.0758  0.0051
  147DOPC   H3R17494   1.531   3.348  16.251  1.3175 -1.9367 -1.3662
  147DOPC   H3S17495   1.592   3.207  16.334 -1.4847 -0.7447  2.6596
  147DOPC   C2417496   1.701   3.395  16.364 -0.3544  0.0772 -0.3351
  147DOPC   H4R17497   1.730   3.393  16.472 -2.3364 -0.9116  0.2371
  147DOPC   H4S17498   1.684   3.502  16.340 -1.0276 -0.1586 -0.9262
  147DOPC   C2517499   1.825   3.347  16.290 -0.2762  0.0702 -0.0296
  147DOPC   H5R17500   1.831   3.239  16.268  0.7985  0.1200 -0.0564
  147DOPC   H5S17501   1.911   3.378  16.354 -1.0912 -1.2764  1.8090
  147DOPC   C2617502   1.834   3.414  16.152 -0.2991 -0.5161 -0.2731
  147DOPC   H6R17503   1.805   3.519  16.172 -1.5027 -0.6314 -1.3298
  147DOPC   H6S17504   1.747   3.367  16.101 -0.9352 -0.1309  0.4383
  147DOPC   C2717505   1.966   3.389  16.085 -0.2996  0.0623  0.5301
  147DOPC   H7R17506   1.950   3.280  16.070 -0.8532  0.0839  0.9265
  147DOPC   H7S17507   2.050   3.410  16.155 -1.6388  2.6202  1.5257
  147DOPC   C2817508   1.993   3.457  15.954 -0.2056  0.7077 -0.3208
  147DOPC   H8R17509   1.919   3.428  15.876  2.1732 -0.6883 -2.2531
  147DOPC   H8S17510   2.092   3.427  15.913  0.4058 -1.0702  2.2045
  147DOPC   C2917511   1.992   3.608  15.959 -0.9871 -0.1089 -0.1443
  147DOPC   H9R17512   2.047   3.647  16.047 -0.6758 -0.9658  0.0470
  147DOPC  C21017513   1.929   3.694  15.873 -0.0692 -1.3867 -0.4928
  147DOPC  H10R17514   1.930   3.801  15.901  0.4451 -0.5490 -3.4115
  147DOPC  C21117515   1.847   3.666  15.754  0.1181  0.2925 -0.5305
  147DOPC  H11R17516   1.737   3.678  15.769  0.3638  0.6063  1.2057
  147DOPC  H11S17517   1.865   3.563  15.719 -0.2131 -0.9898  2.7301
  147DOPC  C21217518   1.866   3.759  15.634 -0.2436 -0.5787 -0.1289
  147DOPC  H12R17519   1.974   3.760  15.606 -0.4042 -2.5675 -1.0453
  147DOPC  H12S17520   1.840   3.861  15.668  1.5138  0.3032 -1.2822
  147DOPC  C21317521   1.782   3.708  15.507 -0.2147 -0.4250  0.5935
  147DOPC  H13R17522   1.679   3.709  15.548 -1.0801  0.8727 -1.4246
  147DOPC  H13S17523   1.825   3.614  15.467  0.5702  0.6177 -1.1343
  147DOPC  C21417524   1.790   3.805  15.387  0.3361  0.6750  0.6260
  147DOPC  H14R17525   1.730   3.754  15.309  2.1883  1.8839 -1.7445
  147DOPC  H14S17526   1.898   3.807  15.360  1.0623 -3.6131  2.4221
  147DOPC  C21517527   1.736   3.942  15.409  0.3674 -0.1149 -0.5685
  147DOPC  H15R17528   1.766   3.971  15.512  0.0463  4.0508 -1.4668
  147DOPC  H15S17529   1.625   3.933  15.404 -0.0019  3.2497 -0.8351
  147DOPC  C21617530   1.781   4.036  15.295  0.2591  0.1263  0.2302
  147DOPC  H16R17531   1.775   3.976  15.202  0.0591 -1.1472  1.0356
  147DOPC  H16S17532   1.888   4.066  15.302  0.5144 -0.1188 -2.0031
  147DOPC  C21717533   1.708   4.171  15.292 -0.1892 -0.0775  0.4444
  147DOPC  H17R17534   1.603   4.146  15.262 -0.0936 -0.5444  0.4884
  147DOPC  H17S17535   1.758   4.224  15.208 -2.2703 -1.9659 -2.1645
  147DOPC  C21817536   1.718   4.249  15.418 -0.3220 -0.5456 -0.1673
  147DOPC  H18R17537   1.665   4.197  15.501  0.5008  1.3470  1.6256
  147DOPC  H18S17538   1.680   4.353  15.410  1.0721  0.0246  0.4097
  147DOPC  H18T17539   1.822   4.260  15.456 -0.6169  1.5399  0.1590
  147DOPC   C3317540   1.303   3.348  15.802 -0.2179 -0.1822 -0.1169
  147DOPC   H3X17541   1.307   3.240  15.775  0.8680  0.2352 -1.7765
  147DOPC   H3Y17542   1.388   3.382  15.865 -0.2729 -0.0958 -0.0890
  147DOPC   C3417543   1.309   3.425  15.661 -0.2245  0.2733 -0.8939
  147DOPC   H4X17544   1.408   3.407  15.614 -0.4489 -0.6104 -1.0621
  147DOPC   H4Y17545   1.292   3.532  15.684  1.7910  0.1240  1.6881
  147DOPC   C3517546   1.212   3.381  15.553 -0.4532  1.0591 -0.6062
  147DOPC   H5X17547   1.110   3.353  15.587  0.4748 -0.9773  0.6793
  147DOPC   H5Y17548   1.247   3.283  15.515 -0.5931  1.1008 -0.8444
  147DOPC   C3617549   1.217   3.471  15.432  0.0457  0.0111 -0.0910
  147DOPC   H6X17550   1.219   3.578  15.461  0.7215  0.3772 -1.4082
  147DOPC   H6Y17551   1.315   3.456  15.382  0.4664 -1.8925  1.2240
  147DOPC   C3717552   1.112   3.428  15.331 -0.3352 -0.4733 -0.3381
  147DOPC   H7X17553   1.010   3.422  15.375 -0.3255  0.1667 -0.2129
  147DOPC   H7Y17554   1.112   3.523  15.272 -1.3694 -1.5589 -2.1960
  147DOPC   C3817555   1.144   3.306  15.237 -0.4232 -1.0890 -0.1838
  147DOPC   H8X17556   1.061   3.301  15.163 -1.3921  0.8178  0.7108
  147DOPC   H8Y17557   1.123   3.208  15.286 -0.2688 -1.2199 -0.3795
  147DOPC   C3917558   1.285   3.298  15.184  0.1810  0.5608 -0.0494
  147DOPC   H9X17559   1.359   3.243  15.244 -0.0895 -0.0513 -0.2726
  147DOPC  C31017560   1.332   3.345  15.072 -0.6496 -0.1451 -0.2661
  147DOPC  H10X17561   1.438   3.356  15.047 -1.1164 -0.9064 -2.9102
  147DOPC  C31117562   1.244   3.431  14.987 -0.6990  0.0209 -0.2004
  147DOPC  H11X17563   1.145   3.463  15.027 -1.0267  0.6365 -1.4551
  147DOPC  H11Y17564   1.224   3.386  14.888 -3.1630 -0.5205  0.4862
  147DOPC  C31217565   1.311   3.564  14.955  0.0126  0.0907 -0.2034
  147DOPC  H12X17566   1.252   3.643  14.903  0.3233  1.5902  1.6096
  147DOPC  H12Y17567   1.404   3.543  14.897  0.0495  1.2758 -0.5944
  147DOPC  C31317568   1.353   3.638  15.088  0.1787  0.7477 -0.0345
  147DOPC  H13X17569   1.279   3.616  15.168 -0.3479 -0.7351 -0.8873
  147DOPC  H13Y17570   1.444   3.585  15.125  0.5619  0.5786 -1.1617
  147DOPC  C31417571   1.389   3.784  15.069  0.3940 -0.4036  0.6638
  147DOPC  H14X17572   1.302   3.839  15.027  1.1824 -1.2525 -2.2975
  147DOPC  H14Y17573   1.419   3.823  15.169 -0.9964 -0.4220  1.1226
  147DOPC  C31517574   1.505   3.807  14.980 -0.9390 -0.3663  0.2345
  147DOPC  H15X17575   1.471   3.757  14.887 -0.9222 -0.7320  0.4225
  147DOPC  H15Y17576   1.601   3.765  15.017  0.8823  2.3263 -1.0338
  147DOPC  C31617577   1.520   3.960  14.948 -0.2367 -0.5971 -0.2282
  147DOPC  H16X17578   1.427   4.011  14.915  0.3988  0.9065  0.2294
  147DOPC  H16Y17579   1.543   4.008  15.045 -2.4633 -0.8515  0.4803
  147DOPC  C31717580   1.625   3.984  14.844  0.3889  0.3291  0.1572
  147DOPC  H17X17581   1.640   3.896  14.778 -0.5144 -1.0384  1.6940
  147DOPC  H17Y17582   1.584   4.067  14.783  1.2844  0.5743 -0.1128
  147DOPC  C31817583   1.759   4.039  14.895  0.1331  0.3595  0.0269
  147DOPC  H18X17584   1.833   4.037  14.813  1.4659  0.2127  1.1840
  147DOPC  H18Y17585   1.755   4.144  14.932  0.2720  0.0560  0.9296
  147DOPC  H18Z17586   1.800   3.976  14.978 -0.4302 -3.3517 -2.3091
  148DOPC     N17587   1.042   4.688  16.840  0.7264  0.7220  0.1553
  148DOPC   C1217588   1.137   4.630  16.731  0.1563  0.8934  0.1744
  148DOPC  H12A17589   1.082   4.561  16.670  0.9112 -0.6456  1.1868
  148DOPC  H12B17590   1.217   4.573  16.775 -0.6334  0.5836  1.2262
  148DOPC   C1317591   1.118   4.775  16.931 -0.0960  0.2115  0.1117
  148DOPC  H13A17592   1.058   4.800  17.017  0.0216 -2.1913  0.9724
  148DOPC  H13B17593   1.206   4.724  16.969  0.3498  1.3130  0.5822
  148DOPC  H13C17594   1.146   4.865  16.878  0.0375 -1.1596 -2.3302
  148DOPC   C1417595   0.984   4.567  16.903 -0.0384 -0.3806 -0.1366
  148DOPC  H14A17596   0.950   4.487  16.838 -1.8584  1.0571 -1.0625
  148DOPC  H14B17597   1.054   4.529  16.976 -0.1362  3.9178  2.4828
  148DOPC  H14C17598   0.898   4.595  16.961 -0.4840 -0.2783 -0.8280
  148DOPC   C1517599   0.928   4.768  16.781 -0.0098  0.1333 -0.2607
  148DOPC  H15A17600   0.965   4.854  16.727 -0.6491 -0.4895 -1.7432
  148DOPC  H15B17601   0.863   4.818  16.851 -0.0635  0.6376 -0.6670
  148DOPC  H15C17602   0.873   4.711  16.708  0.0008  1.2349 -1.1543
  148DOPC   C1117603   1.202   4.721  16.617  0.1639 -0.1812 -0.3568
  148DOPC  H11A17604   1.263   4.670  16.539  0.0877 -0.7037 -0.0834
  148DOPC  H11B17605   1.117   4.765  16.562 -0.0803  0.1244  0.2577
  148DOPC     P17606   1.426   4.798  16.727 -0.1731  0.4557 -0.1294
  148DOPC   O1317607   1.447   4.663  16.790  0.3412  0.3908  0.1851
  148DOPC   O1417608   1.461   4.916  16.810 -0.7024  0.0887 -0.2533
  148DOPC   O1217609   1.278   4.822  16.675  0.1089 -0.6858  0.2764
  148DOPC   O1117610   1.516   4.801  16.598 -0.0805 -0.1615  0.0560
  148DOPC    C117611   1.540   4.921  16.527 -0.5521  0.1208 -0.1301
  148DOPC    HA17612   1.638   4.915  16.474 -1.1749  0.5935 -1.3759
  148DOPC    HB17613   1.549   5.006  16.598  0.1848 -0.5187  0.5647
  148DOPC    C217614   1.432   4.956  16.429 -0.3550 -0.8992 -0.3574
  148DOPC    HS17615   1.344   4.984  16.490  1.3595 -0.6027  2.1346
  148DOPC   O2117616   1.406   4.845  16.340 -0.1018 -0.3394  0.0570
  148DOPC   C2117617   1.294   4.839  16.272 -0.1520 -0.1539  0.2196
  148DOPC   O2217618   1.215   4.930  16.258  0.4217  0.0752 -0.2411
  148DOPC   C2217619   1.282   4.704  16.211  0.0275 -0.0671  0.2795
  148DOPC   H2R17620   1.316   4.627  16.283  0.3713 -0.7385 -0.5851
  148DOPC   H2S17621   1.350   4.699  16.123 -1.8130 -2.8317 -1.1251
  148DOPC    C317622   1.482   5.079  16.348 -0.2748 -0.2115 -0.3042
  148DOPC    HX17623   1.471   5.163  16.420 -2.4400 -0.9517  0.3206
  148DOPC    HY17624   1.415   5.097  16.261 -3.0438  0.5773  1.8272
  148DOPC   O3117625   1.614   5.062  16.291  0.1512 -0.4590  0.0888
  148DOPC   C3117626   1.660   5.181  16.246 -0.3698 -0.1707  0.6599
  148DOPC   O3217627   1.606   5.288  16.247 -0.1179  0.2947  0.0841
  148DOPC   C3217628   1.796   5.159  16.167  0.3880  0.3406 -0.1628
  148DOPC   H2X17629   1.843   5.256  16.143  1.0572 -0.3054 -1.5259
  148DOPC   H2Y17630   1.861   5.101  16.236 -1.1739  0.2093  1.2713
  148DOPC   C2317631   1.137   4.664  16.163 -0.5246  0.1458 -0.5016
  148DOPC   H3R17632   1.062   4.673  16.244 -2.8439 -2.2673 -2.2399
  148DOPC   H3S17633   1.134   4.554  16.157  0.7908 -0.5180  5.1409
  148DOPC   C2417634   1.090   4.731  16.036  0.4120 -0.1756  0.0294
  148DOPC   H4R17635   1.151   4.706  15.947  0.8714  2.0249 -0.3265
  148DOPC   H4S17636   1.101   4.840  16.050 -0.8798 -0.0711  0.3848
  148DOPC   C2517637   0.945   4.701  15.997  0.1483  0.2665  0.4844
  148DOPC   H5R17638   0.881   4.708  16.088 -1.8974  0.3095 -0.8942
  148DOPC   H5S17639   0.941   4.595  15.964  2.3703 -0.1979  1.5074
  148DOPC   C2617640   0.897   4.790  15.893  0.4731 -1.3815 -0.1624
  148DOPC   H6R17641   0.899   4.895  15.929  0.0770 -0.8507 -1.6238
  148DOPC   H6S17642   0.794   4.759  15.865 -0.9949  3.4514 -1.0097
  148DOPC   C2717643   0.970   4.806  15.755  0.3419  0.1211 -0.4180
  148DOPC   H7R17644   1.010   4.706  15.727 -1.1665 -0.9520  1.0877
  148DOPC   H7S17645   1.069   4.856  15.760  1.2500 -1.3687 -2.1076
  148DOPC   C2817646   0.884   4.860  15.640 -0.1895 -0.4862 -0.0126
  148DOPC   H8R17647   0.782   4.815  15.645 -0.1295 -0.8483 -1.4705
  148DOPC   H8S17648   0.920   4.834  15.538  0.9685 -2.5033  0.8391
  148DOPC   C2917649   0.857   5.010  15.663 -0.0751 -0.2386  0.7700
  148DOPC   H9R17650   0.775   5.031  15.733 -2.0404 -3.1586 -0.4611
  148DOPC  C21017651   0.912   5.115  15.599  0.0513  0.2871  0.1607
  148DOPC  H10R17652   0.888   5.218  15.628  1.5922  0.7826 -0.2064
  148DOPC  C21117653   1.021   5.096  15.497  0.1168  0.0551  0.2877
  148DOPC  H11R17654   1.080   5.002  15.507  1.0591  0.2729 -2.3859
  148DOPC  H11S17655   1.089   5.184  15.495 -0.3291  0.4284  1.3224
  148DOPC  C21217656   0.946   5.090  15.358 -0.1226  0.6419 -1.1071
  148DOPC  H12R17657   0.876   5.175  15.348 -1.2925 -0.0883  0.5152
  148DOPC  H12S17658   0.880   5.002  15.372 -0.7664  1.3575  0.5083
  148DOPC  C21317659   1.045   5.081  15.240  0.4916  0.1430  0.0369
  148DOPC  H13R17660   1.071   4.975  15.221  1.4316 -0.0120  1.9430
  148DOPC  H13S17661   1.135   5.145  15.255  1.1996 -0.5246 -1.2327
  148DOPC  C21417662   0.984   5.146  15.120  0.2233  0.3241  0.2706
  148DOPC  H14R17663   0.946   5.244  15.154 -0.2414  0.5056 -0.7243
  148DOPC  H14S17664   0.902   5.087  15.073 -0.5882  1.6658 -0.0335
  148DOPC  C21517665   1.086   5.153  15.005  0.2431  0.0897  0.0783
  148DOPC  H15R17666   1.112   5.053  14.965  1.2482 -0.3922  1.8241
  148DOPC  H15S17667   1.178   5.188  15.056  0.5853  0.1648 -0.5885
  148DOPC  C21617668   1.053   5.242  14.884  0.8090  0.1515  0.4477
  148DOPC  H16R17669   0.964   5.191  14.841  1.8423  0.1692 -1.8651
  148DOPC  H16S17670   1.137   5.242  14.812  0.5717  0.9983  0.1589
  148DOPC  C21717671   1.021   5.389  14.913 -0.5725  0.1555 -0.2015
  148DOPC  H17R17672   1.111   5.425  14.966  0.4329  2.3736 -3.1599
  148DOPC  H17S17673   0.924   5.393  14.968 -1.2275  0.9808 -1.3783
  148DOPC  C21817674   1.020   5.462  14.780  1.1596 -0.2349 -0.1609
  148DOPC  H18R17675   1.009   5.570  14.803  0.3544 -0.0575 -1.2912
  148DOPC  H18S17676   0.942   5.438  14.705  0.6435  1.4886 -0.2300
  148DOPC  H18T17677   1.117   5.450  14.727  2.3022  1.1465  1.4871
  148DOPC   C3317678   1.770   5.091  16.027  0.0296  0.3669  0.1212
  148DOPC   H3X17679   1.725   4.991  16.039 -1.0163  0.6975 -0.8862
  148DOPC   H3Y17680   1.872   5.079  15.985 -0.2510  2.8301 -1.4952
  148DOPC   C3417681   1.706   5.187  15.925 -0.0576  0.4274  0.2693
  148DOPC   H4X17682   1.757   5.284  15.939 -0.5640  0.6475  0.6397
  148DOPC   H4Y17683   1.606   5.207  15.969  0.2427  3.9181 -0.3603
  148DOPC   C3517684   1.689   5.139  15.783  0.5827  0.1708 -0.0288
  148DOPC   H5X17685   1.635   5.224  15.737  1.2876 -0.3530 -1.8812
  148DOPC   H5Y17686   1.633   5.043  15.781  0.8440  0.0073 -2.9369
  148DOPC   C3617687   1.815   5.101  15.706 -0.3745 -0.5011  0.1027
  148DOPC   H6X17688   1.902   5.162  15.739 -0.2562  0.2590 -1.5136
  148DOPC   H6Y17689   1.854   4.998  15.719  1.0666 -0.0845 -0.7223
  148DOPC   C3717690   1.780   5.103  15.553 -0.1313  0.0572  0.3564
  148DOPC   H7X17691   1.732   5.003  15.549  0.6041 -0.2711 -0.4183
  148DOPC   H7Y17692   1.708   5.186  15.535 -0.0675 -0.1052 -0.6818
  148DOPC   C3817693   1.895   5.106  15.455  0.0401  0.3483 -0.1623
  148DOPC   H8X17694   1.852   5.040  15.376  2.5966 -2.3998  0.5773
  148DOPC   H8Y17695   1.987   5.067  15.502 -0.0466  0.7588  0.3501
  148DOPC   C3917696   1.929   5.244  15.418  0.2439  0.5295 -0.6468
  148DOPC   H9X17697   1.965   5.306  15.501  1.5633 -2.2849  1.0321
  148DOPC  C31017698   1.916   5.316  15.304 -0.6655  0.0440 -0.2569
  148DOPC  H10X17699   1.936   5.424  15.304  0.3771 -0.1333  0.5911
  148DOPC  C31117700   1.876   5.265  15.166  0.2384  1.1297  0.3415
  148DOPC  H11X17701   1.843   5.350  15.102 -1.5035  0.0535 -0.2681
  148DOPC  H11Y17702   1.787   5.201  15.184  0.0528  1.4348  0.5060
  148DOPC  C31217703   1.980   5.180  15.093  0.2032 -0.0273  0.0485
  148DOPC  H12X17704   2.013   5.093  15.153 -1.6690 -0.2347  0.8677
  148DOPC  H12Y17705   2.065   5.248  15.069 -1.2523  1.5635 -0.8306
  148DOPC  C31317706   1.923   5.118  14.967 -0.3676  0.7744  0.9171
  148DOPC  H13X17707   1.822   5.073  14.977 -0.9101  0.8764 -2.5875
  148DOPC  H13Y17708   1.911   5.195  14.887 -0.4565 -1.7154 -1.6266
  148DOPC  C31417709   2.024   5.013  14.912  0.6324  0.1727 -0.1998
  148DOPC  H14X17710   2.115   5.067  14.879  1.5361 -1.0172  0.2733
  148DOPC  H14Y17711   2.064   4.945  14.991 -1.3075  0.6766  1.2870
  148DOPC  C31517712   1.969   4.934  14.786 -0.6293  0.1869 -0.3690
  148DOPC  H15X17713   1.948   5.005  14.704  0.5441 -1.3214 -2.0412
  148DOPC  H15Y17714   1.879   4.883  14.828  1.4398 -2.9608  0.6155
  148DOPC  C31617715   2.072   4.836  14.743 -0.6586  0.1490 -0.2936
  148DOPC  H16X17716   2.160   4.889  14.702 -0.7646  0.2614 -0.3734
  148DOPC  H16Y17717   2.111   4.796  14.839  1.7036  2.4568 -0.2003
  148DOPC  C31717718   2.037   4.722  14.646 -0.1925 -0.8635  0.7131
  148DOPC  H17X17719   1.956   4.666  14.698  1.0760 -1.2029  2.4149
  148DOPC  H17Y17720   2.001   4.769  14.552 -0.7907  0.1533  1.4206
  148DOPC  C31817721   2.150   4.615  14.621 -0.1469  0.1449  0.0904
  148DOPC  H18X17722   2.122   4.543  14.541  2.4933 -0.5953 -0.2868
  148DOPC  H18Y17723   2.237   4.666  14.574  0.6057 -1.9409 -0.9094
  148DOPC  H18Z17724   2.181   4.564  14.715 -0.5876 -2.2821 -1.0054
  149DOPC     N17725   2.040   3.109  16.623  0.0059 -0.1458 -0.0382
  149DOPC   C1217726   1.939   3.108  16.511  0.0926  0.0021  0.1694
  149DOPC  H12A17727   1.997   3.082  16.423  0.9549  1.7026  0.1900
  149DOPC  H12B17728   1.916   3.211  16.492  0.4178  0.4988  2.2543
  149DOPC   C1317729   2.076   2.964  16.632 -0.5304 -0.7927 -0.6829
  149DOPC  H13A17730   2.104   2.938  16.531  0.5308 -0.6863 -0.4242
  149DOPC  H13B17731   2.151   2.947  16.707 -3.2766  0.1473  2.5536
  149DOPC  H13C17732   1.996   2.897  16.662 -1.5270  0.6847  0.1453
  149DOPC   C1417733   1.975   3.149  16.758 -0.0726  0.4830  0.3463
  149DOPC  H14A17734   2.035   3.114  16.841 -0.2702 -0.2254  0.1940
  149DOPC  H14B17735   1.971   3.257  16.767 -0.3909  0.4274  0.9367
  149DOPC  H14C17736   1.877   3.106  16.773 -0.2590  0.5748 -0.5629
  149DOPC   C1517737   2.167   3.189  16.592  0.0475 -0.2711 -0.3204
  149DOPC  H15A17738   2.146   3.293  16.568 -1.1985 -0.7102 -1.2262
  149DOPC  H15B17739   2.216   3.154  16.502 -0.2105  0.2635 -0.6779
  149DOPC  H15C17740   2.243   3.185  16.668  1.3408 -0.7944 -1.5963
  149DOPC   C1117741   1.804   3.032  16.524  0.2705  0.1230  0.3519
  149DOPC  H11A17742   1.755   3.067  16.618 -1.2325  2.1074 -1.0870
  149DOPC  H11B17743   1.736   3.069  16.444  1.7627  2.0227 -0.0991
  149DOPC     P17744   1.708   2.804  16.559  0.3119 -0.1946 -0.3664
  149DOPC   O1317745   1.621   2.877  16.648 -0.2792  0.1236 -0.2004
  149DOPC   O1417746   1.763   2.669  16.599 -0.2431  0.2527 -0.8388
  149DOPC   O1217747   1.826   2.896  16.518 -0.2810 -0.7877 -0.4667
  149DOPC   O1117748   1.617   2.796  16.432 -0.4395  0.2145 -0.0155
  149DOPC    C117749   1.658   2.723  16.321 -0.2681  0.0395  0.8413
  149DOPC    HA17750   1.567   2.685  16.269 -0.4734  1.9840 -0.3236
  149DOPC    HB17751   1.723   2.635  16.340 -0.9845 -0.3424  1.6083
  149DOPC    C217752   1.723   2.810  16.205 -0.1380 -0.2139 -0.7779
  149DOPC    HS17753   1.825   2.837  16.240  0.4134 -1.5445 -1.2596
  149DOPC   O2117754   1.641   2.922  16.177 -0.3358 -0.1461 -0.3532
  149DOPC   C2117755   1.708   3.006  16.094 -0.2271  0.5678  0.8294
  149DOPC   O2217756   1.833   3.000  16.076  0.5652  0.1032  0.4784
  149DOPC   C2217757   1.614   3.104  16.023  0.4279 -0.1134  0.9773
  149DOPC   H2R17758   1.578   3.176  16.099 -1.9084 -1.4914  1.2473
  149DOPC   H2S17759   1.529   3.044  15.986  0.9204 -0.4802  0.4171
  149DOPC    C317760   1.750   2.724  16.081  0.1048 -0.0579 -0.0617
  149DOPC    HX17761   1.811   2.776  16.004  0.8700 -0.3102  0.3661
  149DOPC    HY17762   1.647   2.710  16.041  0.8117 -1.7324 -1.4447
  149DOPC   O3117763   1.805   2.598  16.114  0.1769  0.0775 -0.0155
  149DOPC   C3117764   1.844   2.517  16.023  0.5109  0.3026 -0.4846
  149DOPC   O3217765   1.837   2.537  15.905 -0.3436 -0.4769  0.0426
  149DOPC   C3217766   1.937   2.417  16.083  0.5014 -0.3018 -0.0416
  149DOPC   H2X17767   2.035   2.468  16.100  0.9662 -1.0803 -0.3443
  149DOPC   H2Y17768   1.887   2.387  16.177 -2.5143  0.8508 -1.1692
  149DOPC   C2317769   1.690   3.177  15.908 -0.1687  0.0869 -0.1996
  149DOPC   H3R17770   1.801   3.171  15.903  0.0682  0.2647  2.8090
  149DOPC   H3S17771   1.673   3.287  15.916 -0.6630 -0.1206  2.4680
  149DOPC   C2417772   1.628   3.126  15.779 -0.3644 -0.5434 -0.3451
  149DOPC   H4R17773   1.517   3.125  15.793 -0.5473 -0.6008 -1.6167
  149DOPC   H4S17774   1.648   3.020  15.752 -1.1162 -1.0279  0.9302
  149DOPC   C2517775   1.646   3.228  15.659  0.0500  0.5683 -0.8162
  149DOPC   H5R17776   1.673   3.328  15.701 -2.1071  0.3941  1.1721
  149DOPC   H5S17777   1.546   3.238  15.612 -1.1325 -0.6044  1.2942
  149DOPC   C2617778   1.758   3.191  15.562 -0.6070 -0.0785  0.3640
  149DOPC   H6R17779   1.728   3.093  15.519  0.0496 -0.0765 -0.1260
  149DOPC   H6S17780   1.859   3.197  15.608  0.3119  1.3985 -1.6914
  149DOPC   C2717781   1.763   3.286  15.441 -0.5051 -0.7468  0.2793
  149DOPC   H7R17782   1.835   3.246  15.367 -0.9268 -0.1562 -0.4630
  149DOPC   H7S17783   1.803   3.380  15.483  1.8059 -1.4948 -0.0880
  149DOPC   C2817784   1.637   3.300  15.364  0.5827 -0.2002 -0.6500
  149DOPC   H8R17785   1.557   3.351  15.422 -1.1422 -1.5492 -1.7375
  149DOPC   H8S17786   1.589   3.201  15.347 -0.2819  0.0715  0.1741
  149DOPC   C2917787   1.666   3.358  15.226  0.2195 -0.5681 -0.5981
  149DOPC   H9R17788   1.639   3.465  15.220 -2.3063 -1.0769  0.5951
  149DOPC  C21017789   1.716   3.293  15.122  0.3603  0.4604  0.3340
  149DOPC  H10R17790   1.733   3.355  15.032 -0.3540  1.0472  0.5960
  149DOPC  C21117791   1.763   3.150  15.105 -0.0568 -0.6435  0.0378
  149DOPC  H11R17792   1.689   3.084  15.154 -0.6457 -0.5288 -0.6861
  149DOPC  H11S17793   1.866   3.133  15.145 -0.1052  2.0343  1.5694
  149DOPC  C21217794   1.767   3.092  14.959 -0.9103 -0.1625 -0.0683
  149DOPC  H12R17795   1.673   3.125  14.911 -2.4253 -1.2898  1.9680
  149DOPC  H12S17796   1.762   2.982  14.972 -1.2381 -0.1884 -0.4033
  149DOPC  C21317797   1.891   3.128  14.874  0.5991 -1.4408 -0.7020
  149DOPC  H13R17798   1.975   3.085  14.934 -1.5136 -2.8248  1.4571
  149DOPC  H13S17799   1.903   3.236  14.853 -0.7206 -1.1048  0.1616
  149DOPC  C21417800   1.895   3.043  14.747  0.2529 -0.5463 -0.1064
  149DOPC  H14R17801   1.790   3.052  14.712 -0.3194  0.1136  1.6922
  149DOPC  H14S17802   1.910   2.934  14.763  2.4330 -0.8603 -3.1588
  149DOPC  C21517803   1.997   3.087  14.641  0.2359  0.5709 -0.2446
  149DOPC  H15R17804   2.101   3.060  14.671 -0.2314  2.2289  3.4141
  149DOPC  H15S17805   1.999   3.197  14.627 -0.9422  0.6587  0.1954
  149DOPC  C21617806   1.966   3.017  14.506  0.4210  0.1042  0.1094
  149DOPC  H16R17807   1.891   3.074  14.447  2.8521  1.2049 -2.1100
  149DOPC  H16S17808   1.927   2.914  14.521  1.2442 -0.5071 -1.6811
  149DOPC  C21717809   2.099   3.008  14.425  0.1487 -0.9406 -0.0445
  149DOPC  H17R17810   2.083   2.959  14.326  0.8216  1.1376 -1.2496
  149DOPC  H17S17811   2.169   2.955  14.493 -0.6504 -1.5545  0.3105
  149DOPC  C21817812   2.150   3.154  14.391  0.1293 -0.1041  0.7950
  149DOPC  H18R17813   2.069   3.212  14.342  0.7398  0.4416  0.4072
  149DOPC  H18S17814   2.235   3.155  14.320 -1.4020  2.6917 -1.1562
  149DOPC  H18T17815   2.177   3.213  14.481  0.7436 -1.0920  1.2854
  149DOPC   C3317816   1.973   2.292  15.997 -0.0485  0.7096  0.5160
  149DOPC   H3X17817   2.063   2.309  15.935  0.8192 -3.2012  0.4741
  149DOPC   H3Y17818   1.895   2.259  15.925  2.0722 -1.7554 -0.7812
  149DOPC   C3417819   2.001   2.163  16.091 -0.0198  0.4862 -0.2840
  149DOPC   H4X17820   1.903   2.145  16.141  0.9353  0.2326  1.5683
  149DOPC   H4Y17821   2.074   2.196  16.168  0.8590 -0.1184 -0.8339
  149DOPC   C3517822   2.058   2.033  16.020 -0.7151 -0.5130  0.9064
  149DOPC   H5X17823   2.024   2.041  15.914  0.0491  0.2913  0.7079
  149DOPC   H5Y17824   2.026   1.947  16.083 -0.0962 -0.9684  0.6033
  149DOPC   C3617825   2.215   2.023  16.010  0.1833 -0.3452 -0.0476
  149DOPC   H6X17826   2.269   2.107  15.961 -0.8645  0.3247 -0.0819
  149DOPC   H6Y17827   2.248   2.017  16.116  1.1930 -3.0775 -0.4315
  149DOPC   C3717828   2.272   1.894  15.964 -0.1028 -0.8329 -0.4419
  149DOPC   H7X17829   2.209   1.809  15.998 -0.3959 -0.4007  0.1153
  149DOPC   H7Y17830   2.262   1.894  15.853 -1.9649 -0.9682 -0.3021
  149DOPC   C3817831   2.425   1.882  15.993  0.1039  0.1233  0.0188
  149DOPC   H8X17832   2.433   1.899  16.102 -1.0622  4.5814 -0.3969
  149DOPC   H8Y17833   2.479   1.971  15.952 -1.1019 -0.0154 -1.9816
  149DOPC   C3917834   2.477   1.751  15.936  0.5155  0.1580 -0.5457
  149DOPC   H9X17835   2.419   1.659  15.950  2.4988 -0.9876  0.5107
  149DOPC  C31017836   2.595   1.737  15.867  0.0709  0.2263 -0.5364
  149DOPC  H10X17837   2.609   1.645  15.808 -0.1682 -0.0829 -0.1163
  149DOPC  C31117838   2.706   1.838  15.839  0.2133  0.8212 -0.0324
  149DOPC  H11X17839   2.807   1.793  15.851 -0.3427 -0.9915 -1.7369
  149DOPC  H11Y17840   2.688   1.930  15.900 -2.7371  1.8349 -2.1791
  149DOPC  C31217841   2.696   1.885  15.693 -0.4203 -0.3542  0.4661
  149DOPC  H12X17842   2.588   1.907  15.674 -0.2779 -1.0809 -1.4240
  149DOPC  H12Y17843   2.721   1.791  15.639  2.0685  0.2334  0.4785
  149DOPC  C31317844   2.786   2.004  15.641 -0.2408 -0.2381 -0.4186
  149DOPC  H13X17845   2.738   2.095  15.682 -2.8461 -0.3025 -2.9849
  149DOPC  H13Y17846   2.885   1.991  15.690 -2.2464 -1.6432  3.7285
  149DOPC  C31417847   2.805   2.014  15.489 -0.2673  0.0876 -0.1178
  149DOPC  H14X17848   2.908   2.050  15.471 -0.3213 -0.2860 -1.2256
  149DOPC  H14Y17849   2.808   1.910  15.449  2.4726  0.2327 -0.4160
  149DOPC  C31517850   2.700   2.101  15.419  0.0861 -0.1412 -0.2986
  149DOPC  H15X17851   2.690   2.198  15.472 -0.9877  0.1298 -0.9689
  149DOPC  H15Y17852   2.601   2.050  15.424  0.6699 -1.7642 -3.1305
  149DOPC  C31617853   2.729   2.137  15.270 -0.0466  0.0234  1.0615
  149DOPC  H16X17854   2.650   2.200  15.224  0.3420  0.2424  0.6852
  149DOPC  H16Y17855   2.818   2.203  15.267 -0.3840  0.4335 -0.5696
  149DOPC  C31717856   2.764   2.019  15.174 -0.7743 -0.2742 -0.2197
  149DOPC  H17X17857   2.854   1.970  15.217 -2.0836 -0.0333  3.1007
  149DOPC  H17Y17858   2.679   1.948  15.177 -0.6982 -0.3407  0.5849
  149DOPC  C31817859   2.782   2.067  15.030  0.1850  0.0367 -0.0913
  149DOPC  H18X17860   2.683   2.110  15.004  0.7982  1.2312 -0.5342
  149DOPC  H18Y17861   2.860   2.144  15.015  0.1941 -0.0887 -0.7123
  149DOPC  H18Z17862   2.796   1.996  14.946  2.8606 -0.0990  0.3989
  150DOPC     N17863   5.088   4.341  17.065  0.1339 -0.0732 -0.3867
  150DOPC   C1217864   5.194   4.445  17.038  0.4529  0.1897 -0.0014
  150DOPC  H12A17865   5.293   4.416  17.070 -0.2760 -0.9552  1.3054
  150DOPC  H12B17866   5.172   4.531  17.100  1.7507 -1.7449  3.4576
  150DOPC   C1317867   5.094   4.291  17.210  0.0442  0.4560 -0.1926
  150DOPC  H13A17868   5.170   4.215  17.219  0.1161  0.4984 -0.4273
  150DOPC  H13B17869   5.111   4.371  17.280 -1.8147 -0.2740  1.1703
  150DOPC  H13C17870   5.004   4.236  17.231  0.7163 -0.5137  0.2466
  150DOPC   C1417871   5.089   4.222  16.975  0.2740  0.2195  0.1720
  150DOPC  H14A17872   5.034   4.138  17.014 -0.8801  1.1880  0.6811
  150DOPC  H14B17873   5.057   4.253  16.876  0.0487 -0.1769  0.1213
  150DOPC  H14C17874   5.192   4.197  16.951  0.4630 -0.0357  1.1954
  150DOPC   C1517875   4.954   4.408  17.039  0.4794 -0.4204  0.0818
  150DOPC  H15A17876   4.958   4.444  16.937  0.8683  0.2526  0.3337
  150DOPC  H15B17877   4.933   4.488  17.108  0.4119 -0.0803 -0.3336
  150DOPC  H15C17878   4.879   4.332  17.056  0.0678 -0.5661 -2.1154
  150DOPC   C1117879   5.208   4.479  16.892 -0.0228 -0.3286  0.2648
  150DOPC  H11A17880   5.295   4.547  16.875  0.2981 -0.9962 -0.8928
  150DOPC  H11B17881   5.230   4.377  16.854 -3.0659 -1.6950  1.8154
  150DOPC     P17882   5.067   4.692  16.865 -0.2906 -0.6350  0.1967
  150DOPC   O1317883   5.136   4.731  16.994 -0.2702  0.5478 -0.5396
  150DOPC   O1417884   4.922   4.729  16.858 -1.0132 -0.1357  0.0322
  150DOPC   O1217885   5.089   4.532  16.834 -0.4199 -0.3157 -0.0898
  150DOPC   O1117886   5.151   4.764  16.749  0.1894 -0.2301 -0.4964
  150DOPC    C117887   5.147   4.721  16.615  0.5367  0.1425  0.2707
  150DOPC    HA17888   5.150   4.610  16.613  1.9197  0.1521 -1.9243
  150DOPC    HB17889   5.236   4.761  16.560  1.2130 -0.1982  1.0898
  150DOPC    C217890   5.023   4.776  16.538 -0.2285 -0.5420 -0.1036
  150DOPC    HS17891   4.933   4.772  16.604 -0.3664 -0.5410 -0.2913
  150DOPC   O2117892   5.003   4.693  16.420  0.0761  0.3148 -0.1946
  150DOPC   C2117893   4.901   4.606  16.435  0.0864 -0.0453 -0.0314
  150DOPC   O2217894   4.834   4.586  16.532 -0.2234  0.7215 -0.0405
  150DOPC   C2217895   4.894   4.516  16.313 -0.0115  0.3695 -0.7807
  150DOPC   H2R17896   4.863   4.415  16.346  0.4385 -0.2832 -2.2762
  150DOPC   H2S17897   4.999   4.495  16.283  0.2191  0.3477  0.0202
  150DOPC    C317898   5.058   4.913  16.484 -0.1490 -0.0834 -0.1872
  150DOPC    HX17899   5.122   4.893  16.396 -1.3313 -1.2243 -0.8208
  150DOPC    HY17900   5.112   4.961  16.568 -2.1057 -1.0388  1.7435
  150DOPC   O3117901   4.945   4.982  16.439  0.6056 -0.0507 -0.1869
  150DOPC   C3117902   4.907   5.102  16.496  0.2794  0.6554 -0.8141
  150DOPC   O3217903   4.970   5.151  16.590 -0.6478  0.6644  0.2734
  150DOPC   C3217904   4.791   5.154  16.421 -0.0549  0.1884  0.0937
  150DOPC   H2X17905   4.780   5.126  16.315  0.3373  2.8748 -0.7356
  150DOPC   H2Y17906   4.702   5.116  16.477 -0.7471 -0.0859 -1.1597
  150DOPC   C2317907   4.807   4.556  16.196 -0.1958  0.1010  0.1153
  150DOPC   H3R17908   4.701   4.584  16.212 -0.4217 -1.2680  1.1741
  150DOPC   H3S17909   4.804   4.464  16.133  1.1995  0.5246 -0.6167
  150DOPC   C2417910   4.885   4.662  16.121  0.3164 -0.2966 -0.3345
  150DOPC   H4R17911   4.877   4.628  16.016 -0.4051 -0.3211 -0.2809
  150DOPC   H4S17912   4.991   4.667  16.153  0.3181 -1.3915 -0.1481
  150DOPC   C2517913   4.818   4.806  16.127 -0.5280  0.1183 -0.1549
  150DOPC   H5R17914   4.819   4.848  16.230  0.9246  1.0526 -0.5229
  150DOPC   H5S17915   4.710   4.790  16.107 -0.0413 -2.6152 -1.0946
  150DOPC   C2617916   4.888   4.895  16.020  0.0040 -0.9340  0.1348
  150DOPC   H6R17917   4.822   4.981  15.994 -1.2094 -1.5573  1.0317
  150DOPC   H6S17918   4.901   4.836  15.928  0.2984 -0.5994 -0.0387
  150DOPC   C2717919   5.021   4.946  16.075 -0.0543  0.5468  0.0148
  150DOPC   H7R17920   5.093   4.861  16.080  0.1928  0.6890 -0.9476
  150DOPC   H7S17921   5.004   4.993  16.174 -0.8182  1.8643 -0.7141
  150DOPC   C2817922   5.082   5.051  15.975 -0.2111 -0.1299 -0.2679
  150DOPC   H8R17923   5.169   5.096  16.027 -0.5428  1.4877 -1.0603
  150DOPC   H8S17924   5.006   5.128  15.951  0.9165  2.1018  2.6842
  150DOPC   C2917925   5.143   4.982  15.863 -0.4257 -0.0210  1.3661
  150DOPC   H9R17926   5.227   4.914  15.887  0.5411 -0.0462 -1.6820
  150DOPC  C21017927   5.125   4.994  15.731  0.4718 -0.6967 -0.0455
  150DOPC  H10R17928   5.190   4.930  15.670 -0.0685 -0.3981 -0.9571
  150DOPC  C21117929   5.026   5.089  15.658 -0.0864 -0.9241  0.2364
  150DOPC  H11R17930   5.048   5.198  15.664  0.4857 -1.0544  0.5412
  150DOPC  H11S17931   4.922   5.081  15.695 -0.7376 -0.6370 -1.4327
  150DOPC  C21217932   5.009   5.051  15.505 -0.3606 -0.1825 -0.4010
  150DOPC  H12R17933   4.991   4.941  15.516  0.8890 -0.2040  2.1214
  150DOPC  H12S17934   5.108   5.064  15.455 -0.1166  0.3036  0.1936
  150DOPC  C21317935   4.904   5.131  15.432  0.3020 -0.2042  0.0099
  150DOPC  H13R17936   4.924   5.238  15.450 -1.8446  0.2014  0.2736
  150DOPC  H13S17937   4.806   5.135  15.483  0.2034  0.3298 -0.2187
  150DOPC  C21417938   4.903   5.101  15.282 -0.2930  0.2483 -0.0727
  150DOPC  H14R17939   5.010   5.111  15.254 -0.4731  1.6109 -0.3420
  150DOPC  H14S17940   4.843   5.180  15.232  1.1126  1.3532 -0.0679
  150DOPC  C21517941   4.836   4.964  15.247 -0.0714 -0.3044 -0.1611
  150DOPC  H15R17942   4.752   4.953  15.318 -1.3978 -0.7346 -1.7258
  150DOPC  H15S17943   4.905   4.880  15.270  1.4128  1.2322  1.3407
  150DOPC  C21617944   4.775   4.950  15.111  0.0879 -0.0318  0.3513
  150DOPC  H16R17945   4.756   4.842  15.096  0.3286  0.0841 -0.8423
  150DOPC  H16S17946   4.840   4.987  15.029 -0.4198 -1.9482 -0.9897
  150DOPC  C21717947   4.636   5.020  15.103  0.2105  0.6155 -0.0218
  150DOPC  H17R17948   4.654   5.129  15.111  1.4770  0.3797  0.5761
  150DOPC  H17S17949   4.570   4.991  15.188 -0.8110 -0.2855 -1.0943
  150DOPC  C21817950   4.565   4.978  14.976 -0.5084 -0.6089  0.3480
  150DOPC  H18R17951   4.473   5.038  14.961 -0.7982 -0.9507  0.7233
  150DOPC  H18S17952   4.540   4.870  14.987 -0.3799 -0.7533 -0.6949
  150DOPC  H18T17953   4.633   4.992  14.890 -0.5744  0.1757  0.4128
  150DOPC   C3317954   4.777   5.310  16.432  0.5419  0.6280 -0.7845
  150DOPC   H3X17955   4.819   5.347  16.528  1.6190  1.5003 -1.5541
  150DOPC   H3Y17956   4.668   5.330  16.440  0.4229  0.8930 -2.5614
  150DOPC   C3417957   4.836   5.395  16.319  0.6498  0.7834  0.5846
  150DOPC   H4X17958   4.812   5.502  16.333  1.6003  1.4111 -2.1258
  150DOPC   H4Y17959   4.778   5.359  16.232  0.7447  1.1509  0.3676
  150DOPC   C3517960   4.993   5.370  16.296  0.0124 -0.0856 -0.4336
  150DOPC   H5X17961   5.017   5.262  16.285 -1.7379 -0.6857  0.9726
  150DOPC   H5Y17962   5.036   5.403  16.393 -0.9271  1.6740 -0.5761
  150DOPC   C3617963   5.046   5.461  16.180 -0.4072  1.0755 -0.4289
  150DOPC   H6X17964   4.978   5.456  16.092 -2.8704  1.3568  1.3529
  150DOPC   H6Y17965   5.042   5.566  16.216 -0.3260  1.4195 -1.3732
  150DOPC   C3717966   5.196   5.425  16.165  0.8374  0.4775  0.2251
  150DOPC   H7X17967   5.247   5.435  16.263 -1.4537 -0.3865  1.5827
  150DOPC   H7Y17968   5.207   5.319  16.131  0.3211  0.1646  1.0312
  150DOPC   C3817969   5.260   5.520  16.058  0.1840 -0.1877  0.4323
  150DOPC   H8X17970   5.370   5.524  16.064  0.1824 -1.3646  1.5018
  150DOPC   H8Y17971   5.224   5.623  16.080 -0.3501 -0.3805  0.4873
  150DOPC   C3917972   5.222   5.486  15.916  0.0174 -0.7076  0.1965
  150DOPC   H9X17973   5.113   5.489  15.899 -0.0366  0.6806  0.6373
  150DOPC  C31017974   5.295   5.438  15.814 -0.5066 -0.4554 -0.1326
  150DOPC  H10X17975   5.246   5.414  15.718 -2.3730  0.5626  0.5166
  150DOPC  C31117976   5.441   5.405  15.832  0.3485 -0.6121  0.5817
  150DOPC  H11X17977   5.466   5.334  15.749  0.7032 -0.5200  0.6076
  150DOPC  H11Y17978   5.450   5.350  15.928  0.8611  0.6915  1.2954
  150DOPC  C31217979   5.531   5.532  15.830  0.3358 -0.0512 -0.4761
  150DOPC  H12X17980   5.502   5.597  15.915  1.8637 -1.3924  1.1511
  150DOPC  H12Y17981   5.519   5.587  15.733 -1.1063 -1.0050 -0.8747
  150DOPC  C31317982   5.674   5.492  15.859  0.3634 -0.9330  0.8613
  150DOPC  H13X17983   5.721   5.589  15.887 -2.8725  1.1744 -0.4197
  150DOPC  H13Y17984   5.672   5.408  15.933  0.6843 -2.7056 -1.0519
  150DOPC  C31417985   5.757   5.439  15.741 -0.5361 -0.0730 -0.2974
  150DOPC  H14X17986   5.732   5.333  15.716 -0.4032 -0.5285  1.3822
  150DOPC  H14Y17987   5.734   5.493  15.647 -0.7903 -2.2547 -1.5478
  150DOPC  C31517988   5.912   5.435  15.769 -0.6422 -0.7261 -0.1188
  150DOPC  H15X17989   5.952   5.378  15.682 -0.8930 -1.3653  0.1797
  150DOPC  H15Y17990   5.935   5.373  15.858  2.3141 -0.7035 -0.7452
  150DOPC  C31617991   5.976   5.574  15.767  0.9806 -0.2291  0.0553
  150DOPC  H16X17992   5.935   5.626  15.678 -0.9846 -3.4741 -1.1085
  150DOPC  H16Y17993   5.928   5.637  15.845 -2.6716  0.2628 -2.3495
  150DOPC  C31717994   6.133   5.566  15.763  0.8980 -0.1955  0.3854
  150DOPC  H17X17995   6.163   5.558  15.870  2.4538  0.8028  0.0569
  150DOPC  H17Y17996   6.167   5.473  15.712 -0.4949 -0.4581 -0.1042
  150DOPC  C31817997   6.191   5.686  15.698  0.0793  0.2807  0.3531
  150DOPC  H18X17998   6.160   5.692  15.592  0.4004  1.1195  0.2963
  150DOPC  H18Y17999   6.161   5.777  15.755  0.1480 -0.6180  1.8824
  150DOPC  H18Z18000   6.302   5.687  15.697  0.0826 -0.1499 -0.8973
  151DOPC     N18001   0.342   3.918  17.394 -0.3533 -0.1993  0.0928
  151DOPC   C1218002   0.398   3.987  17.266  0.3165 -0.0195 -0.0872
  151DOPC  H12A18003   0.444   3.905  17.212  1.2071  0.3225  0.1480
  151DOPC  H12B18004   0.478   4.054  17.290 -0.6530  1.5976 -1.1933
  151DOPC   C1318005   0.260   3.802  17.358 -0.6296 -0.8138  0.4815
  151DOPC  H13A18006   0.313   3.721  17.312 -1.1306 -0.0908 -1.4415
  151DOPC  H13B18007   0.203   3.760  17.440 -1.4775 -1.1569 -0.2769
  151DOPC  H13C18008   0.191   3.825  17.278  0.5035  0.8438 -0.0604
  151DOPC   C1418009   0.273   4.026  17.464 -0.1553  0.1094 -0.3246
  151DOPC  H14A18010   0.191   4.067  17.405  0.0600 -0.4800 -1.0599
  151DOPC  H14B18011   0.216   3.993  17.549 -1.9437  2.5800 -0.4369
  151DOPC  H14C18012   0.333   4.111  17.491 -0.7265  0.3668  0.1504
  151DOPC   C1518013   0.456   3.861  17.471 -0.3437 -0.0102  0.1453
  151DOPC  H15A18014   0.438   3.844  17.576  1.1577 -1.2659  0.2334
  151DOPC  H15B18015   0.534   3.936  17.479  0.8288 -0.9944 -1.4919
  151DOPC  H15C18016   0.508   3.777  17.427  0.1123 -0.6253  1.7606
  151DOPC   C1118017   0.293   4.049  17.173  0.0151 -0.6743 -0.5764
  151DOPC  H11A18018   0.222   4.110  17.232  0.5256  1.1208 -1.7356
  151DOPC  H11B18019   0.343   4.114  17.098 -0.0714  2.3375  1.7816
  151DOPC     P18020   0.269   3.868  16.984  0.1499  0.3229  0.0846
  151DOPC   O1318021   0.172   3.761  16.954  0.5379 -0.0490 -0.4811
  151DOPC   O1418022   0.407   3.831  17.019 -0.1537  0.7153  0.0025
  151DOPC   O1218023   0.211   3.955  17.106 -0.1886 -0.5840 -0.3445
  151DOPC   O1118024   0.273   3.971  16.863  0.1052  0.2945  0.0771
  151DOPC    C118025   0.175   4.064  16.827 -1.0069  0.2434  0.0029
  151DOPC    HA18026   0.213   4.162  16.862  2.4587 -0.8404 -0.3951
  151DOPC    HB18027   0.076   4.041  16.871 -1.1780  0.5221 -0.2294
  151DOPC    C218028   0.165   4.053  16.673  0.2388  0.1166  0.0961
  151DOPC    HS18029   0.148   3.944  16.660  1.8501 -0.0086 -1.2945
  151DOPC   O2118030   0.286   4.085  16.614 -0.4919 -0.1168 -0.1804
  151DOPC   C2118031   0.332   4.206  16.633 -0.0011 -0.1980 -0.5526
  151DOPC   O2218032   0.279   4.298  16.685  0.0715 -0.0759 -0.0595
  151DOPC   C2218033   0.469   4.212  16.562  0.2080  0.3130 -0.1384
  151DOPC   H2R18034   0.547   4.141  16.597  0.1108 -1.0797 -2.5126
  151DOPC   H2S18035   0.511   4.315  16.568  0.6428  0.0940  0.7238
  151DOPC    C318036   0.044   4.138  16.619 -0.3332  0.2406 -0.7696
  151DOPC    HX18037   0.057   4.240  16.661  0.5346 -0.4929  0.8389
  151DOPC    HY18038  -0.047   4.094  16.665  0.1039  0.9105  0.7872
  151DOPC   O3118039   0.041   4.133  16.475  0.1777  0.6915 -0.4043
  151DOPC   C3118040   0.001   4.015  16.418 -0.4528 -0.1308 -0.2934
  151DOPC   O3218041  -0.042   3.923  16.476 -0.1398 -0.2572 -0.5841
  151DOPC   C3218042   0.032   4.025  16.267 -0.0635  0.5991  0.7345
  151DOPC   H2X18043  -0.020   4.113  16.225 -1.0646  0.0894  0.8683
  151DOPC   H2Y18044   0.140   4.044  16.249  0.6235  0.0825  3.7799
  151DOPC   C2318045   0.461   4.175  16.406  0.2402  0.6216 -0.5671
  151DOPC   H3R18046   0.368   4.219  16.365  0.5739  1.3936 -0.5172
  151DOPC   H3S18047   0.464   4.065  16.396  0.3789  0.5716 -0.0545
  151DOPC   C2418048   0.576   4.231  16.318  0.2685  0.0366  0.1200
  151DOPC   H4R18049   0.670   4.202  16.369  0.7927  0.0625 -0.8178
  151DOPC   H4S18050   0.578   4.342  16.311 -1.2650  0.0549 -0.4378
  151DOPC   C2518051   0.564   4.176  16.174  0.3393 -0.1904  0.2911
  151DOPC   H5R18052   0.455   4.184  16.154 -0.1286 -2.4663  1.5415
  151DOPC   H5S18053   0.579   4.066  16.174  0.3860 -0.1918 -0.8102
  151DOPC   C2618054   0.647   4.253  16.072  0.1247 -0.1534  0.4953
  151DOPC   H6R18055   0.725   4.307  16.130 -0.7288  0.6587  0.9122
  151DOPC   H6S18056   0.584   4.327  16.019  1.3699  0.1443 -0.6177
  151DOPC   C2718057   0.716   4.167  15.960 -0.2023 -0.2135  0.5946
  151DOPC   H7R18058   0.786   4.094  16.006 -0.9187 -1.2252  0.1270
  151DOPC   H7S18059   0.774   4.235  15.894  0.0479 -1.2746 -0.3219
  151DOPC   C2818060   0.617   4.082  15.885  0.0298  0.3671 -0.6032
  151DOPC   H8R18061   0.547   4.154  15.838 -2.3598 -0.3299  1.6689
  151DOPC   H8S18062   0.567   4.036  15.973  0.5585  2.6389  0.9741
  151DOPC   C2918063   0.656   3.970  15.790 -0.1030  0.0951 -0.2263
  151DOPC   H9R18064   0.645   3.867  15.827 -0.2503 -0.4095 -1.6073
  151DOPC  C21018065   0.705   3.994  15.668  0.4519  0.2158  0.6977
  151DOPC  H10R18066   0.723   3.901  15.612 -3.2690  0.5825 -1.4359
  151DOPC  C21118067   0.726   4.117  15.591 -0.3143  0.5288  0.4495
  151DOPC  H11R18068   0.832   4.138  15.568  0.0626  0.0903  1.7420
  151DOPC  H11S18069   0.674   4.199  15.646 -0.4389  0.2214  0.7895
  151DOPC  C21218070   0.669   4.104  15.443  0.4273 -0.8912 -0.0936
  151DOPC  H12R18071   0.558   4.108  15.445  0.4135 -1.3907  0.6745
  151DOPC  H12S18072   0.700   4.005  15.405  2.7221 -0.7207  1.1739
  151DOPC  C21318073   0.729   4.221  15.365  0.2690 -0.1353 -0.8085
  151DOPC  H13R18074   0.840   4.209  15.364  0.5153  1.6145 -0.0010
  151DOPC  H13S18075   0.719   4.320  15.416  1.8457 -0.4785  0.2425
  151DOPC  C21418076   0.682   4.222  15.217 -0.0487 -0.4910 -0.8749
  151DOPC  H14R18077   0.692   4.119  15.178 -0.4162 -0.7343 -0.3376
  151DOPC  H14S18078   0.736   4.298  15.157 -1.3351  1.1416 -0.0559
  151DOPC  C21518079   0.537   4.268  15.216  0.2201 -0.3043  0.2108
  151DOPC  H15R18080   0.538   4.371  15.258 -1.5799 -0.4861  0.7806
  151DOPC  H15S18081   0.469   4.203  15.275 -1.7762  1.3137 -0.2119
  151DOPC  C21618082   0.485   4.268  15.068 -0.1121  0.5925  0.0536
  151DOPC  H16R18083   0.496   4.162  15.036  0.7770 -0.0842  2.3744
  151DOPC  H16S18084   0.561   4.322  15.009  1.5163 -0.3329  1.2052
  151DOPC  C21718085   0.343   4.323  15.041  0.6834  0.4578  0.2533
  151DOPC  H17R18086   0.321   4.303  14.934 -0.1950  0.3889  0.4369
  151DOPC  H17S18087   0.341   4.430  15.071 -0.8980  0.5674 -0.1256
  151DOPC  C21818088   0.231   4.234  15.113 -0.7902 -0.2943  0.0785
  151DOPC  H18R18089   0.131   4.262  15.071 -0.7710 -1.1000 -0.5310
  151DOPC  H18S18090   0.242   4.247  15.222 -0.4350  2.1042 -0.1908
  151DOPC  H18T18091   0.252   4.127  15.095  0.8952 -0.1743  1.1429
  151DOPC   C3318092  -0.019   3.909  16.167  0.4076 -0.3302 -0.1680
  151DOPC   H3X18093  -0.128   3.888  16.171 -0.0497  1.6434 -1.0558
  151DOPC   H3Y18094   0.034   3.814  16.189  2.0579  1.2485  3.7353
  151DOPC   C3418095   0.021   3.959  16.029  0.1302  0.7039  0.0829
  151DOPC   H4X18096   0.111   4.025  16.027  0.4572  0.3136  1.3474
  151DOPC   H4Y18097  -0.060   4.021  15.984 -0.0596  0.2516 -0.1987
  151DOPC   C3518098   0.074   3.842  15.928  0.6773 -0.6068  0.0229
  151DOPC   H5X18099   0.010   3.752  15.944  2.1950 -1.7372 -0.0965
  151DOPC   H5Y18100   0.179   3.819  15.955  1.5458 -1.3452 -3.5336
  151DOPC   C3618101   0.079   3.884  15.780 -0.2450  0.1558  0.1454
  151DOPC   H6X18102   0.124   3.796  15.730  2.4618  0.8680  1.1264
  151DOPC   H6Y18103  -0.030   3.891  15.759 -0.5187  0.4780  1.5526
  151DOPC   C3718104   0.153   4.019  15.760  0.1294  0.1179 -0.5107
  151DOPC   H7X18105   0.101   4.096  15.820  0.7814 -0.2029  0.4974
  151DOPC   H7Y18106   0.254   4.004  15.803  1.0836  1.0190 -2.3814
  151DOPC   C3818107   0.173   4.059  15.614  0.2278  0.2423 -0.1893
  151DOPC   H8X18108   0.221   4.159  15.612 -0.3315  0.5317  0.4735
  151DOPC   H8Y18109   0.072   4.069  15.569  0.4906 -0.0860 -0.8817
  151DOPC   C3918110   0.264   3.963  15.538  0.5209 -0.4801 -0.1151
  151DOPC   H9X18111   0.367   3.970  15.576  0.6942 -1.1307 -0.4605
  151DOPC  C31018112   0.237   3.877  15.436  0.0721  0.1905  0.0380
  151DOPC  H10X18113   0.321   3.820  15.396 -1.6833 -1.9996 -0.7504
  151DOPC  C31118114   0.097   3.853  15.367  0.0506 -0.4729  0.0329
  151DOPC  H11X18115   0.086   3.883  15.261 -2.0161 -2.7059 -0.4614
  151DOPC  H11Y18116   0.024   3.918  15.419  1.3167  0.9973  0.0741
  151DOPC  C31218117   0.040   3.710  15.370  0.3223 -0.2042 -0.5950
  151DOPC  H12X18118   0.016   3.670  15.471 -0.8553  1.3632 -0.2167
  151DOPC  H12Y18119   0.120   3.646  15.326  0.0962 -1.3857  0.6392
  151DOPC  C31318120  -0.095   3.723  15.292  0.2753 -0.1738 -0.1271
  151DOPC  H13X18121  -0.170   3.779  15.352  1.0433  0.6269  0.1141
  151DOPC  H13Y18122  -0.089   3.768  15.190  0.7488 -0.3700 -0.1919
  151DOPC  C31418123  -0.142   3.581  15.263 -0.2163 -0.3583  1.3977
  151DOPC  H14X18124  -0.144   3.525  15.359 -1.6259  0.0940  1.6472
  151DOPC  H14Y18125  -0.242   3.583  15.215  0.8491 -0.0305 -0.9815
  151DOPC  C31518126  -0.042   3.515  15.161  0.8631  0.7618  0.3934
  151DOPC  H15X18127   0.066   3.503  15.185  1.0014  0.2296 -0.4876
  151DOPC  H15Y18128  -0.031   3.565  15.062 -0.5255 -0.3577 -0.3592
  151DOPC  C31618129  -0.092   3.372  15.127 -0.9870  0.1165  0.6316
  151DOPC  H16X18130  -0.023   3.321  15.056 -0.9166  1.7111 -0.5138
  151DOPC  H16Y18131  -0.086   3.311  15.219 -0.3318  1.2411  1.3617
  151DOPC  C31718132  -0.218   3.362  15.049 -0.4041  0.3714 -0.1845
  151DOPC  H17X18133  -0.229   3.251  15.041  2.0510 -0.0012  0.5045
  151DOPC  H17Y18134  -0.286   3.409  15.123 -0.7982 -0.1820 -0.1896
  151DOPC  C31818135  -0.226   3.443  14.919 -1.1838  0.4642  0.2698
  151DOPC  H18X18136  -0.134   3.435  14.857 -1.4178  0.2559 -0.0523
  151DOPC  H18Y18137  -0.323   3.425  14.869 -0.6976  2.2990 -1.4780
  151DOPC  H18Z18138  -0.217   3.551  14.946  1.1025  0.9296 -1.9944
  152DOPC     N18139   2.341   0.970  16.884  0.3135 -0.2553  0.4187
  152DOPC   C1218140   2.400   0.829  16.857 -0.2502 -0.4731  0.6888
  152DOPC  H12A18141   2.317   0.761  16.850 -0.3460 -0.1666 -2.9467
  152DOPC  H12B18142   2.469   0.798  16.934  0.7547  2.7619  1.2399
  152DOPC   C1318143   2.235   0.959  16.990 -0.4889 -0.0057  0.4178
  152DOPC  H13A18144   2.180   1.052  16.992  0.9916  0.8890  0.5450
  152DOPC  H13B18145   2.168   0.879  16.962 -0.2669 -0.2826  0.6641
  152DOPC  H13C18146   2.280   0.945  17.087 -1.5314  2.4398  1.3274
  152DOPC   C1418147   2.276   1.026  16.762 -0.4234 -0.9628 -0.1060
  152DOPC  H14A18148   2.352   1.024  16.685  0.4192 -0.5770  0.6981
  152DOPC  H14B18149   2.198   0.957  16.733 -0.3470 -1.4731  0.8772
  152DOPC  H14C18150   2.241   1.128  16.763 -0.0405 -0.7853  2.9244
  152DOPC   C1518151   2.456   1.070  16.928 -0.3852  0.3477 -0.4033
  152DOPC  H15A18152   2.403   1.154  16.969  0.4737  0.9719 -0.5360
  152DOPC  H15B18153   2.519   1.092  16.843 -0.5238 -0.5426 -0.7576
  152DOPC  H15C18154   2.515   1.028  17.008 -1.1884  0.8957  0.4869
  152DOPC   C1118155   2.478   0.815  16.724 -0.3492  0.7277  0.3663
  152DOPC  H11A18156   2.492   0.705  16.714 -3.3831  0.3971 -1.3079
  152DOPC  H11B18157   2.408   0.847  16.644 -0.8104 -0.9184  0.0837
  152DOPC     P18158   2.715   0.855  16.820 -0.0552  0.4966 -0.1311
  152DOPC   O1318159   2.664   0.780  16.943  0.5498 -0.3851 -0.1178
  152DOPC   O1418160   2.797   0.976  16.850 -0.2513 -0.2013 -0.3429
  152DOPC   O1218161   2.599   0.891  16.724  0.1072 -0.0801  0.1320
  152DOPC   O1118162   2.802   0.756  16.735  0.6503 -0.2191 -0.6587
  152DOPC    C118163   2.933   0.782  16.686  0.2481  0.1860 -0.3231
  152DOPC    HA18164   2.970   0.684  16.651 -2.8512 -2.5293  3.2523
  152DOPC    HB18165   2.996   0.816  16.770 -2.7254 -1.5411  2.8504
  152DOPC    C218166   2.936   0.877  16.564 -0.6607  0.0377  0.2162
  152DOPC    HS18167   2.919   0.981  16.597 -2.8537 -0.2149  0.0061
  152DOPC   O2118168   2.838   0.824  16.478  0.4230 -0.0332  0.5228
  152DOPC   C2118169   2.762   0.907  16.404  0.2111  0.2679 -0.2499
  152DOPC   O2218170   2.768   1.027  16.410 -0.4102 -0.2684  0.5755
  152DOPC   C2218171   2.653   0.813  16.347 -0.1129  0.0713 -0.1086
  152DOPC   H2R18172   2.555   0.866  16.349 -0.4628 -0.4532 -1.8483
  152DOPC   H2S18173   2.637   0.724  16.412 -2.7454  0.6312  0.1378
  152DOPC    C318174   3.070   0.860  16.489  0.4321  0.1898 -0.9907
  152DOPC    HX18175   3.068   0.750  16.472 -1.9112  0.1756 -0.8961
  152DOPC    HY18176   3.159   0.867  16.556  1.4391 -2.0667 -1.9633
  152DOPC   O3118177   3.076   0.941  16.368  0.4528 -0.0693  0.4045
  152DOPC   C3118178   3.140   1.055  16.386  1.4542 -0.3152 -0.5279
  152DOPC   O3218179   3.210   1.080  16.481 -0.0424  0.6138 -0.5803
  152DOPC   C3218180   3.138   1.143  16.261 -0.3761  0.7337 -0.6128
  152DOPC   H2X18181   3.201   1.233  16.277 -1.6916  1.8591 -1.4563
  152DOPC   H2Y18182   3.196   1.084  16.187 -2.6423 -0.9407 -1.1669
  152DOPC   C2318183   2.701   0.765  16.205  0.9592 -0.1894  0.2819
  152DOPC   H3R18184   2.613   0.711  16.166  0.3409  1.5281 -0.8179
  152DOPC   H3S18185   2.792   0.701  16.212  0.9298 -0.2306  0.2817
  152DOPC   C2418186   2.715   0.883  16.104 -0.1246 -0.4514  0.7638
  152DOPC   H4R18187   2.806   0.941  16.133  0.7837 -1.4954  0.1007
  152DOPC   H4S18188   2.628   0.949  16.124 -0.8050 -1.1711  0.2431
  152DOPC   C2518189   2.712   0.840  15.953 -0.1608 -0.0137  0.1876
  152DOPC   H5R18190   2.625   0.772  15.940  0.5746 -1.1703  1.1389
  152DOPC   H5S18191   2.792   0.764  15.946  0.2259  0.4682 -0.7898
  152DOPC   C2618192   2.724   0.945  15.842 -0.9136 -0.3805  0.0054
  152DOPC   H6R18193   2.813   1.007  15.864  0.0004 -1.8579  0.5801
  152DOPC   H6S18194   2.635   1.011  15.849 -0.6709  0.1446 -1.4866
  152DOPC   C2718195   2.740   0.895  15.697  0.1351 -0.2468 -0.0531
  152DOPC   H7R18196   2.823   0.822  15.697 -0.5997 -1.1414 -1.5887
  152DOPC   H7S18197   2.756   0.985  15.633 -0.8479  0.2881  0.4276
  152DOPC   C2818198   2.608   0.832  15.650 -0.1583 -0.8241  0.3871
  152DOPC   H8R18199   2.530   0.909  15.667  0.2852  0.0364 -1.2760
  152DOPC   H8S18200   2.583   0.743  15.712  0.0220 -0.6140  0.7624
  152DOPC   C2918201   2.609   0.794  15.505  0.1258 -0.8033 -0.1005
  152DOPC   H9R18202   2.675   0.855  15.442  1.2427  0.7493  2.4173
  152DOPC  C21018203   2.554   0.684  15.448 -0.1232  0.2764  0.1608
  152DOPC  H10R18204   2.569   0.674  15.340 -0.1442  3.0548 -0.1703
  152DOPC  C21118205   2.469   0.569  15.508  0.4617 -0.3415  0.0430
  152DOPC  H11R18206   2.411   0.601  15.597 -0.2411 -0.7773 -0.2521
  152DOPC  H11S18207   2.543   0.487  15.523  0.4460 -0.3563  0.0391
  152DOPC  C21218208   2.362   0.516  15.409  0.1422 -0.1574 -0.1158
  152DOPC  H12R18209   2.343   0.414  15.449 -0.9149  0.2501  0.4748
  152DOPC  H12S18210   2.403   0.502  15.307  0.2458 -2.9273  0.2408
  152DOPC  C21318211   2.235   0.606  15.407  0.1203  0.2004  0.1042
  152DOPC  H13R18212   2.271   0.707  15.379 -0.0558 -0.0668 -1.1352
  152DOPC  H13S18213   2.181   0.605  15.504 -1.8126 -0.6489 -0.9336
  152DOPC  C21418214   2.144   0.562  15.296  0.3937 -0.3340  0.0325
  152DOPC  H14R18215   2.047   0.526  15.338 -0.4782  0.4373 -1.2834
  152DOPC  H14S18216   2.188   0.475  15.242  0.7104 -1.6870  2.3207
  152DOPC  C21518217   2.107   0.671  15.194 -0.1122  0.7745 -0.3710
  152DOPC  H15R18218   2.089   0.769  15.244  0.3643  1.2775 -1.1553
  152DOPC  H15S18219   2.013   0.638  15.145 -0.6029  0.5067  0.7134
  152DOPC  C21618220   2.223   0.689  15.095 -0.3971  0.2683  0.9633
  152DOPC  H16R18221   2.257   0.587  15.065 -0.6632  0.0003  1.5475
  152DOPC  H16S18222   2.308   0.746  15.137  0.1562  1.6315 -1.7931
  152DOPC  C21718223   2.189   0.777  14.977 -0.3519  0.5395  0.3081
  152DOPC  H17R18224   2.174   0.880  15.014  0.6365  0.0596  2.2257
  152DOPC  H17S18225   2.092   0.738  14.938 -1.3076  0.5079  2.5694
  152DOPC  C21818226   2.298   0.796  14.870  0.1774 -0.2143  0.3927
  152DOPC  H18R18227   2.315   0.698  14.820 -0.0750  0.9002 -1.9678
  152DOPC  H18S18228   2.396   0.825  14.914 -0.6633  1.6259  1.1530
  152DOPC  H18T18229   2.267   0.871  14.794  0.7809  1.9699  2.1876
  152DOPC   C3318230   3.010   1.199  16.208 -0.3389 -0.7874  0.5940
  152DOPC   H3X18231   2.941   1.114  16.187  0.1210 -1.1927  0.7137
  152DOPC   H3Y18232   3.031   1.260  16.118 -3.5600 -0.3166  0.0255
  152DOPC   C3418233   2.936   1.297  16.300 -0.1913 -0.0113 -0.1780
  152DOPC   H4X18234   3.014   1.370  16.331 -2.5419  2.4427  0.4096
  152DOPC   H4Y18235   2.896   1.247  16.391  1.1257  0.4932  0.7067
  152DOPC   C3518236   2.823   1.370  16.226  0.4224  0.8136 -0.1608
  152DOPC   H5X18237   2.860   1.438  16.147  1.4526  3.1010  2.1695
  152DOPC   H5Y18238   2.787   1.452  16.292  0.0238  0.0342  0.6073
  152DOPC   C3618239   2.708   1.285  16.181 -0.1238  1.0919  0.0057
  152DOPC   H6X18240   2.753   1.211  16.111 -0.5163  2.0125 -1.2807
  152DOPC   H6Y18241   2.677   1.223  16.267 -0.3277  2.0698  0.6511
  152DOPC   C3718242   2.598   1.354  16.106 -0.6698  0.2035 -0.3064
  152DOPC   H7X18243   2.551   1.439  16.158 -0.8355  0.4403 -0.8385
  152DOPC   H7Y18244   2.646   1.411  16.024 -0.6643 -0.9545 -1.1392
  152DOPC   C3818245   2.488   1.265  16.058 -0.5564  0.1158  0.6289
  152DOPC   H8X18246   2.434   1.233  16.149 -1.1255 -1.0337 -0.0793
  152DOPC   H8Y18247   2.533   1.177  16.006  1.0255  2.6243 -2.6985
  152DOPC   C3918248   2.391   1.335  15.970  0.2417 -0.1813  0.9891
  152DOPC   H9X18249   2.308   1.375  16.029 -1.3545  0.9718 -1.8741
  152DOPC  C31018250   2.394   1.368  15.834 -0.4353  0.5950  0.2740
  152DOPC  H10X18251   2.312   1.419  15.782  0.0497  0.5791 -0.5315
  152DOPC  C31118252   2.514   1.337  15.751 -0.9740 -0.0267 -0.5492
  152DOPC  H11X18253   2.595   1.282  15.804  0.7702  2.0672 -0.8894
  152DOPC  H11Y18254   2.553   1.430  15.705 -0.1099  0.1270  0.4559
  152DOPC  C31218255   2.463   1.247  15.639  0.2482 -0.0516 -0.0199
  152DOPC  H12X18256   2.417   1.160  15.691  1.1890 -0.4149  0.2215
  152DOPC  H12Y18257   2.553   1.208  15.585  1.4780  1.3625  0.9326
  152DOPC  C31318258   2.376   1.311  15.529 -1.2944  0.0672 -0.1831
  152DOPC  H13X18259   2.288   1.366  15.569 -1.4837 -0.6192  0.3782
  152DOPC  H13Y18260   2.443   1.387  15.483 -2.0175 -0.7349 -2.7431
  152DOPC  C31418261   2.342   1.204  15.427  0.3659 -0.4562  0.4163
  152DOPC  H14X18262   2.318   1.108  15.479  3.5857 -1.1919  0.7317
  152DOPC  H14Y18263   2.251   1.226  15.368  1.4071 -0.6968 -1.3357
  152DOPC  C31518264   2.437   1.161  15.320 -0.5907 -0.0791  0.1727
  152DOPC  H15X18265   2.541   1.165  15.359 -0.7198  1.5757  0.4465
  152DOPC  H15Y18266   2.440   1.236  15.237 -1.0610 -1.3573 -1.0430
  152DOPC  C31618267   2.407   1.017  15.271 -0.0453  0.2182 -1.1688
  152DOPC  H16X18268   2.416   0.927  15.336 -0.1258 -0.4687 -2.0812
  152DOPC  H16Y18269   2.298   1.022  15.251 -0.0460  1.5975 -0.8955
  152DOPC  C31718270   2.487   0.992  15.146 -0.1768  0.1855  0.0179
  152DOPC  H17X18271   2.424   0.916  15.094  0.4856  0.3805 -1.0933
  152DOPC  H17Y18272   2.493   1.085  15.086  0.5001 -0.5441 -1.0871
  152DOPC  C31818273   2.624   0.924  15.165  0.2193  0.2638  0.5275
  152DOPC  H18X18274   2.659   0.884  15.067  0.1388  1.2242  0.1036
  152DOPC  H18Y18275   2.696   1.000  15.200 -0.0711  1.3787 -1.1802
  152DOPC  H18Z18276   2.623   0.834  15.230  1.0879 -2.5352 -2.9858
  153DOPC     N18277   3.813   6.315  17.267 -0.5627  0.0437  0.3905
  153DOPC   C1218278   3.952   6.354  17.214 -0.3511 -0.2640 -0.4099
  153DOPC  H12A18279   4.019   6.336  17.297 -1.6283 -1.9696  0.3066
  153DOPC  H12B18280   3.960   6.460  17.195  1.2438 -0.4965 -1.1959
  153DOPC   C1318281   3.805   6.175  17.318  0.8529 -0.1438  0.2432
  153DOPC  H13A18282   3.708   6.148  17.356  1.4838  0.9381  2.8133
  153DOPC  H13B18283   3.849   6.108  17.245  2.3700 -1.6395  2.3951
  153DOPC  H13C18284   3.874   6.179  17.401  1.0482 -0.9700  0.1390
  153DOPC   C1418285   3.718   6.321  17.151  0.0337  0.2518  0.3083
  153DOPC  H14A18286   3.742   6.256  17.068 -1.2969 -0.2550  0.2964
  153DOPC  H14B18287   3.622   6.279  17.177 -0.2082  1.6501  1.8389
  153DOPC  H14C18288   3.717   6.421  17.111  0.9365 -0.3370 -1.2843
  153DOPC   C1518289   3.762   6.410  17.371  0.2214 -0.3316  0.5149
  153DOPC  H15A18290   3.768   6.514  17.342 -0.4443 -0.2875  0.5150
  153DOPC  H15B18291   3.804   6.399  17.470  0.5088  0.7263  0.5232
  153DOPC  H15C18292   3.659   6.394  17.397  1.1072 -1.3307  3.8934
  153DOPC   C1118293   4.009   6.262  17.105 -0.4115  0.6336  0.6465
  153DOPC  H11A18294   3.959   6.266  17.005  2.2192 -0.5105 -0.8017
  153DOPC  H11B18295   4.105   6.317  17.092  0.2251 -0.4074  0.8910
  153DOPC     P18296   4.156   6.078  17.218 -0.2475 -0.3411  0.1530
  153DOPC   O1318297   4.118   5.967  17.309  0.1048 -0.0274 -0.3388
  153DOPC   O1418298   4.228   6.194  17.275 -0.2466  0.6064 -0.1081
  153DOPC   O1218299   4.027   6.126  17.142  0.3100 -0.0133  0.0502
  153DOPC   O1118300   4.244   6.013  17.097 -0.1586  0.0341  0.2545
  153DOPC    C118301   4.262   6.084  16.971  0.6043 -0.1347  0.0256
  153DOPC    HA18302   4.364   6.069  16.932  0.7243  2.3297 -0.8070
  153DOPC    HB18303   4.265   6.194  16.986 -0.7458  0.2083 -1.8116
  153DOPC    C218304   4.169   6.060  16.849  0.1902 -0.0430  0.4011
  153DOPC    HS18305   4.069   6.089  16.888  0.6508 -0.9355  2.3652
  153DOPC   O2118306   4.185   5.929  16.792 -0.0128 -0.7978 -0.4762
  153DOPC   C2118307   4.072   5.861  16.780  0.5449  0.4104 -0.0538
  153DOPC   O2218308   3.965   5.899  16.828 -0.2804  0.1762 -0.2748
  153DOPC   C2218309   4.097   5.728  16.708  0.2033  0.1219  0.0290
  153DOPC   H2R18310   4.112   5.652  16.788  2.1546  0.2557 -0.1644
  153DOPC   H2S18311   4.190   5.738  16.648 -0.1372  1.3396 -0.3283
  153DOPC    C318312   4.202   6.159  16.731 -0.5156  0.1144  0.4852
  153DOPC    HX18313   4.301   6.127  16.693 -0.4033  2.5131 -1.5216
  153DOPC    HY18314   4.210   6.263  16.769 -2.0407  0.7114 -0.7344
  153DOPC   O3118315   4.108   6.161  16.624  0.0325 -0.7469  0.0550
  153DOPC   C3118316   3.992   6.221  16.653 -0.2449 -1.0795 -0.4132
  153DOPC   O3218317   3.968   6.286  16.751  0.4055  0.3069 -0.4118
  153DOPC   C3218318   3.901   6.208  16.532 -0.9617 -0.3534 -0.3712
  153DOPC   H2X18319   3.907   6.100  16.507 -2.2589 -0.1421 -1.7381
  153DOPC   H2Y18320   3.798   6.247  16.545 -0.7285  0.8065 -1.7956
  153DOPC   C2318321   3.972   5.692  16.619  0.3174 -0.2617  0.8624
  153DOPC   H3R18322   3.888   5.682  16.691 -0.4748  2.0431  0.3310
  153DOPC   H3S18323   3.988   5.591  16.576 -1.3246  0.7518 -2.4332
  153DOPC   C2418324   3.927   5.790  16.507  0.9442 -0.2772  0.5180
  153DOPC   H4R18325   3.909   5.891  16.549 -1.0191 -0.4703  0.2355
  153DOPC   H4S18326   3.821   5.767  16.482  0.6340  1.6460 -0.0929
  153DOPC   C2518327   4.010   5.791  16.380 -0.2763  0.7867 -0.0508
  153DOPC   H5R18328   4.023   5.691  16.334 -0.5445  1.1195 -0.8652
  153DOPC   H5S18329   4.105   5.839  16.411  0.6332 -1.5137  0.9659
  153DOPC   C2618330   3.966   5.888  16.276 -0.9064  0.4482  0.3835
  153DOPC   H6R18331   3.935   5.990  16.307 -1.0830  0.2029  1.0102
  153DOPC   H6S18332   3.883   5.837  16.223  1.5079 -1.8642 -1.4599
  153DOPC   C2718333   4.070   5.895  16.161  0.9911 -0.5186 -0.1388
  153DOPC   H7R18334   4.083   5.790  16.127 -1.9942 -1.4097  1.1972
  153DOPC   H7S18335   4.166   5.944  16.189 -0.7006  2.9715 -0.0030
  153DOPC   C2818336   4.022   5.989  16.047  0.2179  0.0087 -0.0714
  153DOPC   H8R18337   3.998   6.089  16.089  1.5503  0.4261 -0.2625
  153DOPC   H8S18338   3.928   5.944  16.009  0.4818 -0.6657  0.0602
  153DOPC   C2918339   4.123   6.018  15.935 -0.0747 -0.4870 -0.4110
  153DOPC   H9R18340   4.190   6.098  15.968  0.6598 -0.7528 -1.2306
  153DOPC  C21018341   4.122   5.977  15.808 -0.1823 -0.2140 -0.5743
  153DOPC  H10R18342   4.195   6.020  15.738 -1.2861  3.1331  0.1625
  153DOPC  C21118343   4.035   5.869  15.761  0.2122 -0.6211 -0.1130
  153DOPC  H11R18344   3.937   5.919  15.747 -0.7194 -2.0118  1.0977
  153DOPC  H11S18345   4.019   5.794  15.841 -1.5379  0.6410  0.8113
  153DOPC  C21218346   4.066   5.808  15.624 -0.3823 -0.0826 -0.1726
  153DOPC  H12R18347   3.976   5.753  15.591 -1.2371  0.3289  1.3885
  153DOPC  H12S18348   4.148   5.734  15.639 -0.2245  0.3746  1.3645
  153DOPC  C21318349   4.092   5.916  15.514  0.0264 -0.2363 -0.3969
  153DOPC  H13R18350   4.184   5.972  15.540 -0.2947  0.0687  0.0993
  153DOPC  H13S18351   4.011   5.993  15.513 -0.4621 -0.7276 -2.1738
  153DOPC  C21418352   4.105   5.861  15.372 -0.9049 -0.8454 -0.5905
  153DOPC  H14R18353   4.007   5.888  15.328 -1.2691 -0.1297  0.6077
  153DOPC  H14S18354   4.102   5.750  15.373  1.3190 -0.9800 -1.8305
  153DOPC  C21518355   4.232   5.912  15.298 -0.1555 -1.2318 -0.1513
  153DOPC  H15R18356   4.261   6.018  15.316  1.3666 -1.5006 -0.8501
  153DOPC  H15S18357   4.211   5.910  15.189 -0.0452  2.7093 -0.4214
  153DOPC  C21618358   4.362   5.835  15.323  0.8411  0.9667 -0.0680
  153DOPC  H16R18359   4.345   5.729  15.295  0.8492  1.3252 -1.5073
  153DOPC  H16S18360   4.386   5.844  15.431 -3.5723 -0.2972  1.2342
  153DOPC  C21718361   4.487   5.884  15.246  0.3605 -0.5874  0.0256
  153DOPC  H17R18362   4.572   5.828  15.293  0.5265 -0.6272 -0.3204
  153DOPC  H17S18363   4.493   5.993  15.267 -0.9863 -0.6609  0.9518
  153DOPC  C21818364   4.494   5.863  15.096 -0.1087  0.1057  0.1629
  153DOPC  H18R18365   4.589   5.894  15.047 -0.1162 -0.0788  0.0302
  153DOPC  H18S18366   4.415   5.912  15.036  1.4527  1.2577 -1.0571
  153DOPC  H18T18367   4.476   5.754  15.081 -1.6664  0.2176  1.0780
  153DOPC   C3318368   3.962   6.282  16.410  0.2936 -0.5887 -0.2535
  153DOPC   H3X18369   4.061   6.247  16.374  1.0535  0.7661  0.4626
  153DOPC   H3Y18370   3.969   6.387  16.446 -2.8327 -0.5983  0.6906
  153DOPC   C3418371   3.877   6.293  16.283  0.4782  1.0460  0.1454
  153DOPC   H4X18372   3.777   6.333  16.309 -0.1141 -1.4195  2.0891
  153DOPC   H4Y18373   3.846   6.194  16.241 -0.1559  1.6348 -0.8271
  153DOPC   C3518374   3.937   6.387  16.182  0.0852 -0.4450  0.1350
  153DOPC   H5X18375   4.043   6.362  16.161 -0.2258 -1.4908 -0.2209
  153DOPC   H5Y18376   3.947   6.487  16.231  0.8806 -0.2277 -0.4457
  153DOPC   C3618377   3.849   6.409  16.061 -0.1422  0.1623  0.2647
  153DOPC   H6X18378   3.862   6.326  15.989 -0.9341 -1.0617  1.4704
  153DOPC   H6Y18379   3.743   6.414  16.093  0.5106  4.4277  2.4458
  153DOPC   C3718380   3.899   6.532  15.987 -0.7628 -0.2316 -0.3971
  153DOPC   H7X18381   3.887   6.624  16.046 -1.7749  0.1142 -1.1113
  153DOPC   H7Y18382   4.005   6.508  15.964 -0.8647 -0.5262 -0.5728
  153DOPC   C3818383   3.812   6.561  15.860  0.3245 -0.0829 -0.3415
  153DOPC   H8X18384   3.730   6.628  15.895  0.6079 -1.2314  2.8602
  153DOPC   H8Y18385   3.750   6.473  15.829 -0.0759  0.1133 -0.1085
  153DOPC   C3918386   3.876   6.636  15.747 -0.1796  0.3601  0.0297
  153DOPC   H9X18387   3.975   6.677  15.775  1.1274 -2.7287  0.2726
  153DOPC  C31018388   3.845   6.629  15.618 -0.2416 -0.3376  0.3098
  153DOPC  H10X18389   3.916   6.678  15.550  1.4645 -1.8157  0.9498
  153DOPC  C31118390   3.739   6.548  15.552  0.1019 -0.6322  0.7568
  153DOPC  H11X18391   3.672   6.500  15.627  0.4641 -1.1598  0.7492
  153DOPC  H11Y18392   3.793   6.466  15.500  2.5451 -0.5455  2.9265
  153DOPC  C31218393   3.662   6.633  15.453  0.0487 -0.1551 -0.5552
  153DOPC  H12X18394   3.621   6.724  15.502  0.5004 -0.3609  0.2080
  153DOPC  H12Y18395   3.579   6.568  15.419 -1.4670  1.1403  0.5220
  153DOPC  C31318396   3.749   6.678  15.337  0.4696 -0.2287  0.2542
  153DOPC  H13X18397   3.824   6.751  15.371  1.0137 -1.2461  1.3054
  153DOPC  H13Y18398   3.807   6.593  15.295  2.0687  1.9419 -2.1915
  153DOPC  C31418399   3.667   6.739  15.222 -0.3116  0.7549  0.1726
  153DOPC  H14X18400   3.584   6.800  15.264 -0.1478  0.7557  0.4992
  153DOPC  H14Y18401   3.720   6.811  15.155 -0.7982 -1.8602 -3.3086
  153DOPC  C31518402   3.590   6.643  15.130  0.6039  0.8914  0.6144
  153DOPC  H15X18403   3.517   6.587  15.191 -1.6637  0.3497 -2.3714
  153DOPC  H15Y18404   3.666   6.572  15.089 -1.0706  1.6938 -4.6172
  153DOPC  C31618405   3.512   6.715  15.021  0.1320 -0.2592  0.7383
  153DOPC  H16X18406   3.457   6.786  15.086  2.1814  0.4045  1.8532
  153DOPC  H16Y18407   3.588   6.772  14.964  1.7471 -1.0398  2.0191
  153DOPC  C31718408   3.432   6.621  14.934  0.2102  0.2476  0.0497
  153DOPC  H17X18409   3.370   6.561  15.004  0.0752  0.0105 -0.2681
  153DOPC  H17Y18410   3.370   6.694  14.877  2.0038  3.6047  2.0472
  153DOPC  C31818411   3.522   6.528  14.842 -0.7085 -0.0157 -0.2937
  153DOPC  H18X18412   3.458   6.467  14.775 -1.6297 -0.1087  0.6454
  153DOPC  H18Y18413   3.594   6.577  14.774  0.1130 -0.5828  0.1495
  153DOPC  H18Z18414   3.586   6.459  14.902  0.1051 -1.6316 -2.8429
  154DOPC     N18415   5.213   2.456  17.185 -0.2068 -0.0209 -0.3601
  154DOPC   C1218416   5.159   2.449  17.042 -0.4620 -0.0956 -0.0881
  154DOPC  H12A18417   5.054   2.424  17.052 -0.7835  1.5574  0.9684
  154DOPC  H12B18418   5.199   2.360  16.996  1.3908  0.9632 -0.6518
  154DOPC   C1318419   5.351   2.500  17.181 -0.0160  0.1802 -0.1401
  154DOPC  H13A18420   5.383   2.513  17.283 -0.2160 -2.0135  0.2524
  154DOPC  H13B18421   5.418   2.427  17.139  1.2469  1.3747 -0.2858
  154DOPC  H13C18422   5.364   2.590  17.123  0.4748  0.4723  0.4125
  154DOPC   C1418423   5.208   2.321  17.241 -0.3036  0.0169 -0.1225
  154DOPC  H14A18424   5.271   2.310  17.329  0.6492 -1.7422 -0.9793
  154DOPC  H14B18425   5.103   2.304  17.262 -0.7265 -1.4166 -2.8981
  154DOPC  H14C18426   5.241   2.247  17.170  2.2556  1.2491 -0.3299
  154DOPC   C1518427   5.138   2.561  17.267  0.2446 -0.0366  0.2443
  154DOPC  H15A18428   5.046   2.520  17.305  0.6877  0.6165  2.1567
  154DOPC  H15B18429   5.114   2.655  17.221 -3.2600 -1.9388 -2.2649
  154DOPC  H15C18430   5.197   2.580  17.356 -0.0957 -1.7871  0.8880
  154DOPC   C1118431   5.175   2.557  16.930  1.2485 -0.4053 -0.5208
  154DOPC  H11A18432   5.283   2.571  16.907  1.2312  4.3313  1.2303
  154DOPC  H11B18433   5.118   2.506  16.850 -0.0397 -0.2725  0.2932
  154DOPC     P18434   5.166   2.814  16.906 -0.1392  0.0775 -0.3510
  154DOPC   O1318435   5.308   2.837  16.920 -0.5815 -0.1461 -0.1877
  154DOPC   O1418436   5.087   2.919  16.974 -0.3921 -0.3063 -0.8479
  154DOPC   O1218437   5.116   2.679  16.970 -0.0538  0.2253  0.0193
  154DOPC   O1118438   5.143   2.799  16.756 -0.4734  0.0927 -0.2229
  154DOPC    C118439   5.018   2.801  16.698  0.5039 -0.3857  0.0109
  154DOPC    HA18440   5.004   2.906  16.664  1.6324 -0.3048 -0.2254
  154DOPC    HB18441   4.932   2.769  16.760  0.5208 -2.0193 -0.7653
  154DOPC    C218442   5.018   2.711  16.568 -0.0712  0.2741  0.1809
  154DOPC    HS18443   5.041   2.613  16.616  0.5117 -0.1376 -0.9160
  154DOPC   O2118444   5.138   2.745  16.499  0.1541  0.2429 -0.2544
  154DOPC   C2118445   5.142   2.863  16.440 -0.3985  0.4166  0.4546
  154DOPC   O2218446   5.054   2.944  16.438 -0.0260  0.3565  0.1182
  154DOPC   C2218447   5.280   2.895  16.391 -0.1432 -0.2531 -0.1155
  154DOPC   H2R18448   5.327   2.797  16.368 -1.1452 -0.2522 -2.4377
  154DOPC   H2S18449   5.338   2.944  16.472  1.1770  2.2413 -2.4112
  154DOPC    C318450   4.889   2.714  16.476  1.1699  0.8690 -0.2612
  154DOPC    HX18451   4.837   2.812  16.486 -3.5847 -1.2866 -0.7199
  154DOPC    HY18452   4.799   2.659  16.513  2.0313 -0.0259  0.5432
  154DOPC   O3118453   4.909   2.668  16.340  0.4101  0.5785  0.6600
  154DOPC   C3118454   4.943   2.544  16.327 -1.1334  0.1713  0.9059
  154DOPC   O3218455   4.949   2.458  16.412  0.0174  0.7345  0.3940
  154DOPC   C3218456   4.989   2.525  16.184 -0.1466  0.1953 -0.2522
  154DOPC   H2X18457   4.898   2.489  16.132 -1.1509  0.8904  0.9677
  154DOPC   H2Y18458   5.011   2.618  16.127 -1.1403 -1.0759 -2.8985
  154DOPC   C2318459   5.297   2.977  16.260  0.1461 -0.2908  0.8151
  154DOPC   H3R18460   5.275   3.084  16.280 -1.8270 -0.6262  0.6295
  154DOPC   H3S18461   5.229   2.948  16.177  1.7743  0.3402 -0.8049
  154DOPC   C2418462   5.440   2.960  16.191  0.2366  0.0782  1.0577
  154DOPC   H4R18463   5.452   2.854  16.159  1.0862  0.8057 -1.1934
  154DOPC   H4S18464   5.517   2.978  16.269  0.9945 -1.3789  0.6813
  154DOPC   C2518465   5.460   3.057  16.069  0.4524  0.7340 -0.0005
  154DOPC   H5R18466   5.455   3.160  16.112  1.9660 -0.1560  2.5445
  154DOPC   H5S18467   5.375   3.046  15.999 -0.5239 -0.8799  1.3510
  154DOPC   C2618468   5.591   3.022  15.997  0.6385 -0.3982 -0.4422
  154DOPC   H6R18469   5.575   2.917  15.965 -1.6251 -0.5213  0.9174
  154DOPC   H6S18470   5.678   3.025  16.066 -0.7082  0.2218  1.2991
  154DOPC   C2718471   5.619   3.107  15.876 -0.1598  0.1132  0.2903
  154DOPC   H7R18472   5.540   3.083  15.801  2.7351 -1.1200 -2.5754
  154DOPC   H7S18473   5.706   3.054  15.833 -0.6492  0.2009 -0.8267
  154DOPC   C2818474   5.632   3.263  15.903  0.4517  1.6359 -0.4824
  154DOPC   H8R18475   5.529   3.292  15.933  0.6885  0.7647  1.3018
  154DOPC   H8S18476   5.640   3.301  15.799  0.3081 -1.2746 -1.6570
  154DOPC   C2918477   5.732   3.297  16.006 -0.5036 -0.1568 -0.4951
  154DOPC   H9R18478   5.703   3.269  16.109 -0.2293  0.1827 -0.3205
  154DOPC  C21018479   5.858   3.344  15.983 -0.3459 -0.6380 -0.3209
  154DOPC  H10R18480   5.931   3.358  16.064 -0.0792 -4.1863  0.1916
  154DOPC  C21118481   5.892   3.394  15.838 -0.3042  0.2178 -0.6102
  154DOPC  H11R18482   5.863   3.314  15.766 -0.2789 -1.0611  0.7478
  154DOPC  H11S18483   6.003   3.401  15.846 -0.4359  0.6237  1.0703
  154DOPC  C21218484   5.843   3.531  15.787 -0.4846 -0.1159  0.2085
  154DOPC  H12R18485   5.899   3.610  15.841 -0.3121 -0.1125  0.0236
  154DOPC  H12S18486   5.732   3.538  15.780 -0.3498  1.4002 -1.1148
  154DOPC  C21318487   5.896   3.541  15.638 -0.5685 -0.0242  0.2805
  154DOPC  H13R18488   6.003   3.511  15.638 -0.9651 -1.5922 -1.1995
  154DOPC  H13S18489   5.895   3.645  15.599  1.4604  0.6676  1.8734
  154DOPC  C21418490   5.823   3.461  15.529 -0.2829  0.3305  0.0111
  154DOPC  H14R18491   5.716   3.487  15.544 -0.8674 -1.5915 -0.5987
  154DOPC  H14S18492   5.835   3.352  15.547  0.0220  0.2508 -0.6302
  154DOPC  C21518493   5.862   3.507  15.389 -0.7495 -0.0500 -0.0115
  154DOPC  H15R18494   5.972   3.507  15.373 -0.4959 -2.3793  1.2763
  154DOPC  H15S18495   5.808   3.600  15.363 -2.6233 -0.5369  1.8709
  154DOPC  C21618496   5.811   3.405  15.273 -0.2853 -0.2018 -0.1952
  154DOPC  H16R18497   5.710   3.373  15.304 -0.8161 -0.5406 -2.1271
  154DOPC  H16S18498   5.882   3.320  15.276 -0.9195 -0.8635 -2.1634
  154DOPC  C21718499   5.817   3.472  15.137  0.0830  0.4395 -0.3756
  154DOPC  H17R18500   5.847   3.389  15.069 -1.2369 -0.1433 -0.2688
  154DOPC  H17S18501   5.896   3.550  15.125  0.5612  0.0484  0.2117
  154DOPC  C21818502   5.686   3.529  15.083 -0.0955  0.0404 -0.6011
  154DOPC  H18R18503   5.693   3.545  14.973  1.4843  2.2557 -0.2569
  154DOPC  H18S18504   5.682   3.631  15.128 -1.7371  0.6453 -2.0326
  154DOPC  H18T18505   5.601   3.464  15.114  1.0861 -1.9648 -1.3598
  154DOPC   C3318506   5.093   2.411  16.175  0.0948  0.4731 -0.1528
  154DOPC   H3X18507   5.099   2.383  16.068 -2.0860 -0.5420 -0.0739
  154DOPC   H3Y18508   5.061   2.316  16.224 -0.9487 -0.1852 -1.9817
  154DOPC   C3418509   5.231   2.455  16.220 -0.2864  0.0327 -0.0221
  154DOPC   H4X18510   5.311   2.379  16.226 -0.6157 -0.2510  0.9639
  154DOPC   H4Y18511   5.220   2.483  16.327 -1.4428  1.9262 -0.5807
  154DOPC   C3518512   5.286   2.582  16.150  0.2576 -0.0855 -0.3137
  154DOPC   H5X18513   5.355   2.642  16.213  0.1344  1.9276 -1.9798
  154DOPC   H5Y18514   5.202   2.652  16.129 -0.8305 -1.2348  0.0129
  154DOPC   C3618515   5.336   2.562  16.002 -0.0922 -0.2601 -0.7247
  154DOPC   H6X18516   5.410   2.480  15.997  2.0624  1.4627  0.9924
  154DOPC   H6Y18517   5.241   2.539  15.948 -0.2456  0.7783 -0.9144
  154DOPC   C3718518   5.387   2.690  15.944  0.2854  0.3743  0.5337
  154DOPC   H7X18519   5.297   2.756  15.945 -0.6389 -0.8500 -0.0515
  154DOPC   H7Y18520   5.474   2.732  15.999  1.2896 -1.0107  0.0560
  154DOPC   C3818521   5.439   2.691  15.796  0.5422  0.1721 -0.1165
  154DOPC   H8X18522   5.526   2.623  15.788  0.4312  0.1247 -1.0162
  154DOPC   H8Y18523   5.466   2.798  15.785  1.9448 -0.2021 -0.4049
  154DOPC   C3918524   5.339   2.653  15.694 -0.1867  0.5808 -0.1675
  154DOPC   H9X18525   5.371   2.570  15.629  0.7298  0.6870  0.1280
  154DOPC  C31018526   5.228   2.716  15.653  0.2310  0.6591  0.7353
  154DOPC  H10X18527   5.175   2.670  15.568  3.2185  0.8903 -1.4112
  154DOPC  C31118528   5.174   2.845  15.704  0.5036  0.2294 -0.4003
  154DOPC  H11X18529   5.148   2.908  15.616 -1.0551  1.3339  0.7872
  154DOPC  H11Y18530   5.255   2.893  15.763 -0.2341 -1.4868  2.1996
  154DOPC  C31218531   5.043   2.825  15.783  0.2771  0.0896  0.0609
  154DOPC  H12X18532   5.071   2.782  15.881  2.4161 -0.4672 -0.7400
  154DOPC  H12Y18533   4.977   2.754  15.728  1.4963 -0.5026 -0.6814
  154DOPC  C31318534   4.966   2.958  15.788 -0.4406  0.1039 -0.0003
  154DOPC  H13X18535   5.028   3.025  15.851 -2.2807  0.9358  1.0046
  154DOPC  H13Y18536   4.968   3.002  15.686 -2.3006  0.8969  0.2542
  154DOPC  C31418537   4.820   2.949  15.838  0.2729  0.3941 -0.3957
  154DOPC  H14X18538   4.826   2.889  15.932  1.8228 -0.2797 -0.8892
  154DOPC  H14Y18539   4.793   3.055  15.859 -0.4758 -0.1986  1.9335
  154DOPC  C31518540   4.718   2.882  15.739  0.0159 -0.1895  0.1842
  154DOPC  H15X18541   4.629   2.862  15.802 -0.3103 -0.6584 -0.4240
  154DOPC  H15Y18542   4.758   2.789  15.693  0.2007  0.6692 -1.4535
  154DOPC  C31618543   4.681   2.975  15.626 -0.2584 -0.1341  0.2568
  154DOPC  H16X18544   4.680   3.084  15.647  0.5455  0.6463 -3.2242
  154DOPC  H16Y18545   4.768   2.969  15.558  1.0365 -1.4985  1.9537
  154DOPC  C31718546   4.547   2.937  15.561  0.0650  0.1128  0.3560
  154DOPC  H17X18547   4.535   2.828  15.580  0.2264 -0.4156 -2.2391
  154DOPC  H17Y18548   4.466   2.993  15.612 -0.1853  0.9485 -0.9074
  154DOPC  C31818549   4.535   2.963  15.411  0.1936  0.2292 -0.5177
  154DOPC  H18X18550   4.435   2.931  15.377 -0.4221 -0.1747  1.5430
  154DOPC  H18Y18551   4.536   3.072  15.390  2.1387  0.6687  1.3979
  154DOPC  H18Z18552   4.608   2.910  15.346  0.2226 -0.6949  0.2359
  155DOPC     N18553   1.186   2.740  16.526 -0.4270 -0.5748  0.1751
  155DOPC   C1218554   1.286   2.680  16.432  0.0791 -0.2458 -0.7111
  155DOPC  H12A18555   1.357   2.761  16.425 -1.4728  1.2147 -0.2493
  155DOPC  H12B18556   1.242   2.657  16.337  0.2121  0.0338 -0.8406
  155DOPC   C1318557   1.242   2.761  16.659  0.6600  0.5548 -0.4281
  155DOPC  H13A18558   1.169   2.809  16.724  0.7757 -1.0776  0.9718
  155DOPC  H13B18559   1.282   2.675  16.709  0.8498  0.3654 -0.9039
  155DOPC  H13C18560   1.318   2.838  16.661  0.3197  0.8904 -0.3400
  155DOPC   C1418561   1.066   2.656  16.543  0.4522  0.1821 -0.2100
  155DOPC  H14A18562   1.014   2.691  16.631  4.2053  2.7731  1.2082
  155DOPC  H14B18563   1.000   2.643  16.458  1.4334 -0.8218 -0.8319
  155DOPC  H14C18564   1.108   2.561  16.569  1.6435  0.9146  0.6148
  155DOPC   C1518565   1.148   2.880  16.478  0.2596 -0.1892 -0.2800
  155DOPC  H15A18566   1.092   2.861  16.388 -2.3161  0.1369  1.1701
  155DOPC  H15B18567   1.233   2.941  16.451 -0.0051 -0.1849 -1.1241
  155DOPC  H15C18568   1.096   2.944  16.548 -0.0068 -0.5416 -0.1573
  155DOPC   C1118569   1.367   2.554  16.475  0.4982 -0.1743 -0.1287
  155DOPC  H11A18570   1.405   2.497  16.388 -0.0251 -1.7711  0.6543
  155DOPC  H11B18571   1.455   2.588  16.535 -0.9189  1.3702  1.2076
  155DOPC     P18572   1.339   2.356  16.642  0.3840 -0.1966  0.2233
  155DOPC   O1318573   1.235   2.304  16.731  1.0782  0.1392  0.7048
  155DOPC   O1418574   1.459   2.409  16.710 -0.4564  0.3934 -0.2859
  155DOPC   O1218575   1.279   2.465  16.535  0.5826 -0.1367 -0.2393
  155DOPC   O1118576   1.377   2.243  16.545  0.1818  0.0972  0.3104
  155DOPC    C118577   1.297   2.193  16.438 -0.3156 -0.2806 -0.2084
  155DOPC    HA18578   1.302   2.258  16.348 -2.2285  2.5289  1.5297
  155DOPC    HB18579   1.192   2.203  16.473 -0.5798  0.0914 -1.0909
  155DOPC    C218580   1.328   2.040  16.416  0.2551  0.5926  0.1975
  155DOPC    HS18581   1.353   1.996  16.515 -0.5043 -0.8776 -0.2259
  155DOPC   O2118582   1.438   2.017  16.322  0.2780 -0.5675  0.1884
  155DOPC   C2118583   1.478   1.895  16.311 -0.2872 -0.2065  0.2042
  155DOPC   O2218584   1.446   1.797  16.381  0.2397 -0.0305  0.1732
  155DOPC   C2218585   1.581   1.890  16.203  0.2489  0.6354  0.2218
  155DOPC   H2R18586   1.677   1.910  16.256 -0.5059 -1.5585  2.5552
  155DOPC   H2S18587   1.556   1.971  16.130  0.9635  0.2409 -0.4782
  155DOPC    C318588   1.193   1.967  16.366 -0.4928  0.1239 -0.5404
  155DOPC    HX18589   1.120   1.972  16.451  0.6645  0.3325  0.4685
  155DOPC    HY18590   1.204   1.858  16.348 -1.4393 -0.3179  1.2557
  155DOPC   O3118591   1.137   2.025  16.251  0.1665  0.3456 -0.0392
  155DOPC   C3118592   1.036   1.960  16.194  0.6061  0.8045  0.5597
  155DOPC   O3218593   0.982   1.861  16.237 -0.0089 -0.7724  0.0240
  155DOPC   C3218594   0.998   2.034  16.058  0.2692  1.0927 -0.3046
  155DOPC   H2X18595   1.002   2.141  16.088 -0.8226  0.6360  1.6659
  155DOPC   H2Y18596   1.075   2.020  15.979  1.1823 -1.0892  0.8963
  155DOPC   C2318597   1.585   1.753  16.130 -0.1123  0.3469  0.4534
  155DOPC   H3R18598   1.603   1.672  16.204 -0.5005 -0.1564  0.0092
  155DOPC   H3S18599   1.663   1.760  16.051  0.3674  0.1391  0.8997
  155DOPC   C2418600   1.448   1.699  16.070 -0.0674  0.1584 -0.4763
  155DOPC   H4R18601   1.387   1.660  16.154  3.3424 -2.3892  1.0766
  155DOPC   H4S18602   1.465   1.610  16.006  1.5092  0.5150 -0.6130
  155DOPC   C2518603   1.381   1.806  15.976 -0.2358 -0.2440  0.8082
  155DOPC   H5R18604   1.457   1.830  15.899 -0.0296 -1.7518  0.5224
  155DOPC   H5S18605   1.370   1.896  16.041 -1.7789 -0.0527  0.3213
  155DOPC   C2618606   1.246   1.764  15.909  0.6244 -0.6107 -0.7420
  155DOPC   H6R18607   1.232   1.848  15.837 -2.4854 -1.3493 -1.1593
  155DOPC   H6S18608   1.161   1.783  15.978 -0.2928 -0.3678 -1.8848
  155DOPC   C2718609   1.232   1.630  15.852 -0.0026  0.1931  0.4573
  155DOPC   H7R18610   1.214   1.546  15.922  1.6309 -1.4115 -0.9263
  155DOPC   H7S18611   1.332   1.604  15.812 -0.7064 -3.8414  0.8885
  155DOPC   C2818612   1.145   1.620  15.727  0.1510  0.8982 -0.2098
  155DOPC   H8R18613   1.191   1.620  15.626 -1.0655 -2.2727 -0.9160
  155DOPC   H8S18614   1.080   1.709  15.726 -2.2435 -0.7295  0.7129
  155DOPC   C2918615   1.047   1.496  15.744  0.0956 -0.4334 -0.0952
  155DOPC   H9R18616   0.994   1.495  15.840 -1.4132 -1.9230 -0.8963
  155DOPC  C21018617   1.015   1.401  15.655  0.3262 -0.4590  0.3219
  155DOPC  H10R18618   0.950   1.317  15.683 -0.7918  0.9019  2.0708
  155DOPC  C21118619   1.061   1.383  15.511  0.4207  0.3275  0.3713
  155DOPC  H11R18620   1.133   1.299  15.507  0.5980  0.5100 -0.3290
  155DOPC  H11S18621   1.122   1.470  15.480 -0.6011  0.8357 -0.2747
  155DOPC  C21218622   0.940   1.366  15.420 -0.7917 -0.0228  0.3438
  155DOPC  H12R18623   0.871   1.279  15.433  0.4645 -1.5007 -2.1168
  155DOPC  H12S18624   0.974   1.358  15.314 -0.2251  1.8803  0.3598
  155DOPC  C21318625   0.853   1.499  15.403 -0.5606 -0.4527  0.4398
  155DOPC  H13R18626   0.931   1.577  15.390 -0.4889 -0.7379 -0.9178
  155DOPC  H13S18627   0.799   1.529  15.496 -0.9984  0.8735 -0.2193
  155DOPC  C21418628   0.760   1.515  15.281 -0.1294 -0.4892  0.1341
  155DOPC  H14R18629   0.681   1.436  15.274 -1.6393  1.0263 -0.4967
  155DOPC  H14S18630   0.825   1.510  15.192 -0.5875 -1.7002 -0.1564
  155DOPC  C21518631   0.685   1.653  15.293 -0.1699  0.1462  0.1887
  155DOPC  H15R18632   0.757   1.737  15.308  0.1772  0.1599 -1.4519
  155DOPC  H15S18633   0.612   1.637  15.376  0.5645  1.3439  1.1031
  155DOPC  C21618634   0.598   1.684  15.173  0.0433 -0.6454  0.5643
  155DOPC  H16R18635   0.494   1.700  15.208 -0.3747 -1.2205 -0.3553
  155DOPC  H16S18636   0.600   1.592  15.110 -1.2714  0.8958 -1.9138
  155DOPC  C21718637   0.644   1.801  15.087  0.0977  0.6540 -0.6167
  155DOPC  H17R18638   0.682   1.888  15.145 -2.0983  0.7454  0.7826
  155DOPC  H17S18639   0.553   1.827  15.029 -1.2648  0.3698  1.3176
  155DOPC  C21818640   0.755   1.759  14.983 -0.4992 -0.0541 -0.2390
  155DOPC  H18R18641   0.835   1.700  15.035 -0.0907 -1.0246 -1.8962
  155DOPC  H18S18642   0.796   1.843  14.924  2.3163 -1.2123 -0.0854
  155DOPC  H18T18643   0.717   1.686  14.908  0.1012  0.7041 -1.2921
  155DOPC   C3318644   0.854   1.999  16.004  0.5826 -0.4242 -0.1886
  155DOPC   H3X18645   0.836   2.078  15.928 -2.3864  1.5465  2.3018
  155DOPC   H3Y18646   0.783   2.014  16.089  0.9930  1.1053 -0.0851
  155DOPC   C3418647   0.843   1.863  15.939 -0.3935 -0.2204  0.4209
  155DOPC   H4X18648   0.853   1.784  16.017  2.7618  0.9258  1.3184
  155DOPC   H4Y18649   0.929   1.844  15.871 -0.9649 -0.6373 -0.2051
  155DOPC   C3518650   0.716   1.842  15.851 -0.1927 -0.3007  0.0027
  155DOPC   H5X18651   0.687   1.924  15.782  1.5665  0.9997  0.7469
  155DOPC   H5Y18652   0.636   1.824  15.926 -1.2460  1.1079 -0.7353
  155DOPC   C3618653   0.739   1.700  15.777 -0.0554  1.1401 -0.5986
  155DOPC   H6X18654   0.802   1.709  15.686 -0.7175  0.6791 -1.1111
  155DOPC   H6Y18655   0.787   1.623  15.840  0.3755  1.2690 -0.7675
  155DOPC   C3718656   0.608   1.641  15.720  0.9149  0.0335  0.3212
  155DOPC   H7X18657   0.633   1.565  15.643  0.9675 -1.9064  2.1683
  155DOPC   H7Y18658   0.554   1.585  15.799 -0.6486 -0.9989 -1.4054
  155DOPC   C3818659   0.512   1.751  15.671  0.3507  0.8314  0.4778
  155DOPC   H8X18660   0.571   1.805  15.594 -0.1357 -1.1052 -1.3610
  155DOPC   H8Y18661   0.477   1.818  15.752 -0.1774  1.5828 -0.3501
  155DOPC   C3918662   0.394   1.692  15.600 -0.1881 -0.3115  0.4747
  155DOPC   H9X18663   0.402   1.703  15.491  1.0810 -0.4675  0.5339
  155DOPC  C31018664   0.280   1.647  15.657  0.2523  0.2032 -0.0960
  155DOPC  H10X18665   0.211   1.596  15.589 -0.5486 -0.2233  0.9980
  155DOPC  C31118666   0.247   1.650  15.802  0.2747 -0.7013  0.2631
  155DOPC  H11X18667   0.170   1.728  15.821 -2.0912 -2.9337  0.4911
  155DOPC  H11Y18668   0.338   1.670  15.861  2.0361 -3.6375 -1.2113
  155DOPC  C31218669   0.189   1.510  15.855 -0.4107 -0.9060  0.0500
  155DOPC  H12X18670   0.265   1.433  15.828  1.0566  0.4410  0.2370
  155DOPC  H12Y18671   0.095   1.498  15.797 -0.9940  4.3685 -0.5295
  155DOPC  C31318672   0.168   1.509  16.003 -0.5694 -0.9367  0.2452
  155DOPC  H13X18673   0.266   1.528  16.050 -0.9164  0.2826  0.5177
  155DOPC  H13Y18674   0.119   1.605  16.029  1.5310  0.3008 -0.1670
  155DOPC  C31418675   0.109   1.378  16.054  0.3779  0.0967  0.3187
  155DOPC  H14X18676   0.006   1.383  16.012  0.6311  1.9061 -0.1367
  155DOPC  H14Y18677   0.163   1.292  16.008 -0.2683 -1.7310  2.7175
  155DOPC  C31518678   0.106   1.357  16.204  0.2896  0.0107 -0.0311
  155DOPC  H15X18679   0.210   1.354  16.243  0.0376  0.6433  0.6909
  155DOPC  H15Y18680   0.060   1.257  16.219 -2.7699  0.8215 -2.7845
  155DOPC  C31618681   0.034   1.471  16.274  0.1634 -0.1513  0.7999
  155DOPC  H16X18682   0.083   1.568  16.252 -2.6381  1.1374 -0.3587
  155DOPC  H16Y18683  -0.073   1.470  16.243  0.4303 -1.6988 -0.1321
  155DOPC  C31718684   0.034   1.470  16.434  0.4547  0.2016 -0.1068
  155DOPC  H17X18685  -0.028   1.552  16.477  1.0452 -0.1135  1.4016
  155DOPC  H17Y18686  -0.012   1.377  16.471 -1.7645  0.6363 -1.5640
  155DOPC  C31818687   0.168   1.497  16.493  0.2258  0.2868 -0.2536
  155DOPC  H18X18688   0.158   1.501  16.603  0.1086  0.4752 -0.2713
  155DOPC  H18Y18689   0.240   1.415  16.470  1.6284  1.4939 -0.3556
  155DOPC  H18Z18690   0.216   1.588  16.451  2.9716  0.6743  3.2164
  156DOPC     N18691   6.381   6.121  17.469  0.0309  0.3026  0.1132
  156DOPC   C1218692   6.393   6.092  17.317 -0.5946 -0.3954  0.1408
  156DOPC  H12A18693   6.361   5.991  17.297 -0.9215 -0.3575  0.4746
  156DOPC  H12B18694   6.498   6.090  17.290 -0.2359  3.1628  0.8296
  156DOPC   C1318695   6.412   6.265  17.495  0.8246  0.2403  0.1435
  156DOPC  H13A18696   6.336   6.318  17.439  0.5539  0.1198  0.3977
  156DOPC  H13B18697   6.391   6.282  17.599 -2.5531 -1.0625 -0.2267
  156DOPC  H13C18698   6.513   6.294  17.470  0.5421  0.4917 -0.7498
  156DOPC   C1418699   6.477   6.038  17.552  0.3123  0.0359  0.2336
  156DOPC  H14A18700   6.441   6.016  17.651  1.2889 -1.4993  0.2841
  156DOPC  H14B18701   6.492   5.942  17.505  2.0627  1.2298 -1.8171
  156DOPC  H14C18702   6.571   6.091  17.564  0.6234 -0.0600 -1.5428
  156DOPC   C1518703   6.240   6.095  17.523  0.2908 -0.6945 -1.1522
  156DOPC  H15A18704   6.234   6.111  17.630 -1.0575  2.5724 -1.5743
  156DOPC  H15B18705   6.207   5.993  17.509 -1.9795 -0.3742  1.0988
  156DOPC  H15C18706   6.169   6.159  17.473 -0.1505  1.4740  1.9352
  156DOPC   C1118707   6.328   6.185  17.209 -0.0034  0.4106 -0.9976
  156DOPC  H11A18708   6.350   6.286  17.251 -2.1764  0.0290  1.3280
  156DOPC  H11B18709   6.378   6.175  17.110  0.5850 -0.3740 -0.6401
  156DOPC     P18710   6.159   6.021  17.117 -0.2286  0.2933  0.0439
  156DOPC   O1318711   6.071   5.940  17.203  0.2683  0.4466 -0.1882
  156DOPC   O1418712   6.280   5.948  17.072  0.3533  0.1428  0.0094
  156DOPC   O1218713   6.185   6.159  17.196  0.0169 -0.0860  0.2445
  156DOPC   O1118714   6.083   6.076  16.989  0.5541 -0.2367 -0.1053
  156DOPC    C118715   6.136   6.173  16.899  0.3643 -0.1666  0.5148
  156DOPC    HA18716   6.206   6.134  16.821  1.7434  2.2661  0.4311
  156DOPC    HB18717   6.196   6.249  16.953  1.2951 -0.4410 -0.0968
  156DOPC    C218718   6.024   6.248  16.818 -0.1441 -0.0916  0.2838
  156DOPC    HS18719   5.950   6.295  16.887  0.4463  1.4878 -0.1101
  156DOPC   O2118720   5.964   6.154  16.726 -0.3191 -0.0466 -0.4924
  156DOPC   C2118721   5.846   6.198  16.680 -0.3194  0.0672  0.8872
  156DOPC   O2218722   5.789   6.302  16.707 -0.5664 -0.3470  0.4082
  156DOPC   C2218723   5.804   6.094  16.576 -0.6042  0.1881 -0.0884
  156DOPC   H2R18724   5.826   5.998  16.629 -1.5024 -0.2982 -0.5826
  156DOPC   H2S18725   5.875   6.080  16.492 -0.4714 -1.1382  0.2210
  156DOPC    C318726   6.075   6.384  16.753  0.5176  0.2503  0.6544
  156DOPC    HX18727   6.141   6.446  16.818  3.3905 -1.9156 -0.0213
  156DOPC    HY18728   5.987   6.443  16.721 -0.0569 -0.2598  1.2794
  156DOPC   O3118729   6.136   6.345  16.626  0.2570  0.5642  0.3877
  156DOPC   C3118730   6.266   6.312  16.637  0.1995  0.1392  0.2211
  156DOPC   O3218731   6.337   6.335  16.733 -0.0768  0.1165  0.3975
  156DOPC   C3218732   6.301   6.242  16.506 -0.5134 -0.6324  0.0654
  156DOPC   H2X18733   6.251   6.142  16.507 -1.8410 -0.0596 -1.7572
  156DOPC   H2Y18734   6.248   6.297  16.425 -0.9014  1.7379  1.8308
  156DOPC   C2318735   5.657   6.120  16.533 -0.1411 -0.1046  0.1073
  156DOPC   H3R18736   5.642   6.224  16.495 -2.4117 -0.7601 -0.9758
  156DOPC   H3S18737   5.591   6.110  16.622 -2.1890 -1.4979 -1.4793
  156DOPC   C2418738   5.610   6.025  16.421  0.3539 -0.6978  0.2859
  156DOPC   H4R18739   5.698   5.979  16.370 -1.3796 -1.1194 -2.5811
  156DOPC   H4S18740   5.552   6.080  16.343  1.9593  1.7940  0.7471
  156DOPC   C2518741   5.515   5.910  16.471 -0.2765  0.2825 -0.2007
  156DOPC   H5R18742   5.491   5.850  16.381  1.1501 -0.2971 -0.2289
  156DOPC   H5S18743   5.423   5.959  16.508 -0.4189 -0.1036 -0.0360
  156DOPC   C2618744   5.579   5.823  16.573 -0.0391 -0.7244  0.1882
  156DOPC   H6R18745   5.627   5.872  16.660  0.4764  0.4171 -0.7070
  156DOPC   H6S18746   5.659   5.760  16.530  0.1699 -0.3089 -0.0386
  156DOPC   C2718747   5.472   5.734  16.646  0.3286  0.1595 -0.3057
  156DOPC   H7R18748   5.384   5.798  16.668  0.5811  0.2753  0.3930
  156DOPC   H7S18749   5.512   5.705  16.745 -0.9414 -3.3071 -0.6725
  156DOPC   C2818750   5.411   5.615  16.567  0.1501 -0.4339  0.4135
  156DOPC   H8R18751   5.348   5.646  16.480 -0.8082 -0.1266  1.1947
  156DOPC   H8S18752   5.344   5.559  16.635  1.9639  0.3912  2.9893
  156DOPC   C2918753   5.511   5.523  16.503  0.0785  0.5005  0.2545
  156DOPC   H9R18754   5.584   5.570  16.434  1.9807 -0.5456  1.4780
  156DOPC  C21018755   5.539   5.395  16.534  0.3522  0.0003  0.0022
  156DOPC  H10R18756   5.617   5.340  16.480  1.9120  0.3921  1.7712
  156DOPC  C21118757   5.446   5.305  16.615  0.0839  0.3890 -0.9133
  156DOPC  H11R18758   5.414   5.351  16.711  1.9254 -0.5897  0.2397
  156DOPC  H11S18759   5.487   5.210  16.656 -3.0924 -0.7167  0.0135
  156DOPC  C21218760   5.310   5.262  16.558 -0.5308 -0.0073 -0.7807
  156DOPC  H12R18761   5.263   5.359  16.531  0.5547  0.4255 -1.1516
  156DOPC  H12S18762   5.233   5.230  16.632 -0.5713  0.6322 -0.5347
  156DOPC  C21318763   5.317   5.175  16.433 -0.2702 -0.3675  0.4097
  156DOPC  H13R18764   5.374   5.229  16.354  0.3085 -1.1902  0.2554
  156DOPC  H13S18765   5.217   5.168  16.385  0.8242  0.0691 -2.0790
  156DOPC  C21418766   5.389   5.040  16.443  0.0616  0.0400  0.1357
  156DOPC  H14R18767   5.358   4.976  16.528 -0.1064 -0.2153 -0.1154
  156DOPC  H14S18768   5.494   5.062  16.469 -0.2593  0.4218  1.1802
  156DOPC  C21518769   5.394   4.954  16.309 -0.1729 -0.8103  0.0644
  156DOPC  H15R18770   5.290   4.937  16.273 -0.2320  1.5594 -1.1085
  156DOPC  H15S18771   5.452   4.860  16.320  2.2029  0.5720  0.0177
  156DOPC  C21618772   5.455   5.030  16.189  0.0218 -0.1466  0.6016
  156DOPC  H16R18773   5.547   5.084  16.219 -0.2328  0.1581  0.8371
  156DOPC  H16S18774   5.388   5.111  16.154  1.9576  0.9316 -0.7710
  156DOPC  C21718775   5.488   4.949  16.068  0.3401 -0.5382 -0.2448
  156DOPC  H17R18776   5.396   4.889  16.051  0.7506 -1.8321  1.7381
  156DOPC  H17S18777   5.574   4.879  16.077  0.9197  0.1611 -0.2878
  156DOPC  C21818778   5.524   5.043  15.947  0.2772  0.2447  0.1736
  156DOPC  H18R18779   5.603   5.118  15.970 -1.6322  2.0670  1.2830
  156DOPC  H18S18780   5.437   5.108  15.923  0.3166  0.3883  0.4082
  156DOPC  H18T18781   5.556   4.982  15.860 -0.3370 -0.2417  0.2842
  156DOPC   C3318782   6.447   6.215  16.468 -0.1282  0.2262  0.1566
  156DOPC   H3X18783   6.509   6.170  16.549 -1.5671 -1.5091  0.3752
  156DOPC   H3Y18784   6.495   6.310  16.437 -0.9703  0.1085 -1.6402
  156DOPC   C3418785   6.462   6.116  16.345 -0.7083 -0.3056  0.0595
  156DOPC   H4X18786   6.383   6.037  16.350 -1.2833  0.2937  0.6246
  156DOPC   H4Y18787   6.561   6.065  16.344 -0.3034  0.4637  0.0246
  156DOPC   C3518788   6.454   6.192  16.211 -0.6355 -0.0740 -0.2460
  156DOPC   H5X18789   6.531   6.272  16.212 -0.7963  0.1017  1.6674
  156DOPC   H5Y18790   6.352   6.236  16.204 -0.8353 -0.0266  2.1490
  156DOPC   C3618791   6.480   6.106  16.086 -0.7304  0.0064 -0.1851
  156DOPC   H6X18792   6.497   6.173  15.999  0.0954  2.3306  1.6759
  156DOPC   H6Y18793   6.583   6.069  16.108  0.1416  0.5512 -2.8620
  156DOPC   C3718794   6.391   5.983  16.066  0.0737 -0.4431 -0.8186
  156DOPC   H7X18795   6.405   5.920  16.156  0.5158 -0.1676 -0.6969
  156DOPC   H7Y18796   6.290   6.022  16.044  0.7776  0.4959 -2.6035
  156DOPC   C3818797   6.428   5.891  15.948  0.3493  0.2461  0.2355
  156DOPC   H8X18798   6.430   5.951  15.855 -2.1154  0.0192 -0.0203
  156DOPC   H8Y18799   6.337   5.831  15.925 -1.4857  2.8681  0.2671
  156DOPC   C3918800   6.544   5.792  15.959  0.0173  0.1109 -0.3464
  156DOPC   H9X18801   6.539   5.714  16.036 -3.2754  0.8270  0.3019
  156DOPC  C31018802   6.641   5.787  15.865 -0.0173 -0.0155 -0.0963
  156DOPC  H10X18803   6.725   5.718  15.881 -0.5966 -0.3851  1.5542
  156DOPC  C31118804   6.655   5.875  15.740  0.4369 -1.0179  0.4428
  156DOPC  H11X18805   6.632   5.983  15.757  0.1172 -1.2326  1.4378
  156DOPC  H11Y18806   6.578   5.853  15.662  0.8818  2.4979 -1.2232
  156DOPC  C31218807   6.791   5.855  15.683 -0.2227  0.0783  0.1586
  156DOPC  H12X18808   6.793   5.920  15.593  0.7878 -1.3529 -0.8982
  156DOPC  H12Y18809   6.803   5.751  15.646  1.1766  0.1703  0.3074
  156DOPC  C31318810   6.911   5.904  15.771  0.2048 -0.5510 -0.4928
  156DOPC  H13X18811   6.882   6.003  15.812  4.0116  0.2918  0.5602
  156DOPC  H13Y18812   6.927   5.832  15.854  0.3735  0.8643  0.7426
  156DOPC  C31418813   7.046   5.920  15.705 -0.1173 -0.2174 -0.1810
  156DOPC  H14X18814   7.063   5.825  15.651 -1.8602 -0.2807 -0.6752
  156DOPC  H14Y18815   7.040   6.004  15.632  0.7790 -1.1914 -1.4171
  156DOPC  C31518816   7.157   5.959  15.809  0.0045 -0.1135  0.5285
  156DOPC  H15X18817   7.168   5.868  15.872 -2.0706 -1.4759 -0.9400
  156DOPC  H15Y18818   7.127   6.039  15.880 -0.5407 -0.2737  0.4861
  156DOPC  C31618819   7.289   5.992  15.740 -0.4862 -0.4588 -0.2171
  156DOPC  H16X18820   7.326   5.903  15.684  1.1576  1.6898 -2.7671
  156DOPC  H16Y18821   7.261   6.075  15.671  1.8882 -0.3788 -1.1882
  156DOPC  C31718822   7.398   6.035  15.840  0.4791  0.8690  0.1195
  156DOPC  H17X18823   7.490   6.051  15.779  0.5522  0.8436  0.2232
  156DOPC  H17Y18824   7.381   6.133  15.888  1.1646  0.2997  1.5775
  156DOPC  C31818825   7.446   5.926  15.940  1.0138 -0.2632 -0.5952
  156DOPC  H18X18826   7.365   5.905  16.013 -1.9630  1.3926 -3.1351
  156DOPC  H18Y18827   7.478   5.830  15.896 -0.4748 -1.3765  0.6421
  156DOPC  H18Z18828   7.532   5.958  16.001  1.5670 -1.6115 -0.6346
  157DOPC     N18829   5.174   0.630  17.426  0.5306  0.4990  0.1665
  157DOPC   C1218830   5.023   0.610  17.407 -0.0160 -0.0136 -0.0417
  157DOPC  H12A18831   4.963   0.637  17.493  0.8340  0.6235  0.3680
  157DOPC  H12B18832   5.005   0.505  17.388  0.0824  0.1763 -1.2225
  157DOPC   C1318833   5.234   0.551  17.535  0.2284 -0.0784  0.5562
  157DOPC  H13A18834   5.180   0.558  17.628  0.7661  0.4998  0.8398
  157DOPC  H13B18835   5.232   0.447  17.506  1.1045  0.5685 -2.1484
  157DOPC  H13C18836   5.336   0.586  17.545  0.0834  0.5715 -0.0926
  157DOPC   C1418837   5.198   0.767  17.459 -0.1335 -0.7791  0.1095
  157DOPC  H14A18838   5.302   0.794  17.470 -1.0697  3.2090  0.5570
  157DOPC  H14B18839   5.164   0.839  17.385 -0.4152 -1.0069  0.0160
  157DOPC  H14C18840   5.158   0.801  17.553  0.9044  0.3124  0.1736
  157DOPC   C1518841   5.247   0.601  17.298  0.7393 -0.1175  0.1495
  157DOPC  H15A18842   5.216   0.508  17.253  1.1288  0.3945 -1.2178
  157DOPC  H15B18843   5.353   0.587  17.313  0.5313 -0.2758  1.6756
  157DOPC  H15C18844   5.239   0.682  17.227  2.0721 -1.1341 -1.2072
  157DOPC   C1118845   4.954   0.679  17.293  0.9701  0.2582 -0.2881
  157DOPC  H11A18846   4.849   0.657  17.323  2.1974 -2.1905  2.7120
  157DOPC  H11B18847   4.967   0.790  17.296  3.2878  0.1360 -2.3826
  157DOPC     P18848   4.938   0.481  17.130 -0.4756 -0.1411 -0.1153
  157DOPC   O1318849   4.800   0.460  17.188 -0.1427  0.3274  0.1980
  157DOPC   O1418850   5.046   0.391  17.170 -0.1355 -0.6187 -0.1934
  157DOPC   O1218851   4.979   0.633  17.159 -0.2665  0.3403 -0.2538
  157DOPC   O1118852   4.926   0.485  16.974 -0.3952  0.0696 -0.1195
  157DOPC    C118853   4.973   0.590  16.889  0.8440  0.2630 -0.0954
  157DOPC    HA18854   5.010   0.547  16.793 -1.4358  0.8710 -1.3270
  157DOPC    HB18855   5.039   0.661  16.943  0.0902 -0.2926  1.6460
  157DOPC    C218856   4.858   0.678  16.829  0.7694  0.2374 -0.3377
  157DOPC    HS18857   4.818   0.729  16.919 -0.8902  1.6071 -1.7728
  157DOPC   O2118858   4.753   0.590  16.780  0.6860  0.2896 -0.0511
  157DOPC   C2118859   4.632   0.641  16.750 -0.6611  0.9143 -0.1070
  157DOPC   O2218860   4.607   0.759  16.752  0.1399 -0.6269  0.8812
  157DOPC   C2218861   4.533   0.530  16.708 -0.5051 -0.5678  0.2031
  157DOPC   H2R18862   4.497   0.466  16.791 -1.2807 -0.5485 -0.1096
  157DOPC   H2S18863   4.578   0.457  16.637 -1.9600  0.0654 -1.4381
  157DOPC    C318864   4.897   0.769  16.722  0.3204 -0.6879  0.1254
  157DOPC    HX18865   4.977   0.838  16.758  1.5935 -0.5974 -2.6088
  157DOPC    HY18866   4.815   0.837  16.691 -0.6740 -1.7740  0.3165
  157DOPC   O3118867   4.955   0.698  16.609  0.6522  0.6476  1.0848
  157DOPC   C3118868   5.025   0.774  16.524 -0.0337 -0.1186 -0.7759
  157DOPC   O3218869   5.027   0.895  16.527  0.0334  0.4022  0.0452
  157DOPC   C3218870   5.091   0.686  16.425 -0.0112  1.0066  0.3936
  157DOPC   H2X18871   5.101   0.588  16.476  0.3899 -0.1193 -1.7568
  157DOPC   H2Y18872   5.023   0.670  16.339  1.1241 -0.4186 -0.2888
  157DOPC   C2318873   4.413   0.584  16.621 -0.4670  0.8087  0.3682
  157DOPC   H3R18874   4.462   0.599  16.523  0.4986 -1.5349  0.4261
  157DOPC   H3S18875   4.385   0.681  16.666  1.2486  1.3703  0.2884
  157DOPC   C2418876   4.294   0.477  16.609 -0.5444 -0.0127  0.0628
  157DOPC   H4R18877   4.251   0.447  16.707 -1.3125  1.6823  0.2866
  157DOPC   H4S18878   4.352   0.395  16.562 -2.1033 -0.5934 -0.8954
  157DOPC   C2518879   4.184   0.512  16.511  0.2325  0.2014  0.2735
  157DOPC   H5R18880   4.145   0.614  16.531  0.4156  0.0770  1.3060
  157DOPC   H5S18881   4.104   0.439  16.535 -1.4213  1.8018 -0.0931
  157DOPC   C2618882   4.229   0.493  16.367  0.0476 -0.6388  1.1064
  157DOPC   H6R18883   4.253   0.385  16.354  1.5117 -0.0841 -1.4792
  157DOPC   H6S18884   4.320   0.557  16.355 -0.6116 -0.0583 -1.2662
  157DOPC   C2718885   4.123   0.542  16.257  0.1457  0.0363 -0.6095
  157DOPC   H7R18886   4.091   0.641  16.295  1.9549  0.2842  0.3793
  157DOPC   H7S18887   4.033   0.479  16.272 -0.0817  0.3789 -0.5186
  157DOPC   C2818888   4.188   0.536  16.118  0.7683 -0.3186 -0.6758
  157DOPC   H8R18889   4.216   0.430  16.098 -2.1666 -1.9259  2.5406
  157DOPC   H8S18890   4.279   0.600  16.123 -1.2365  2.6342  1.3385
  157DOPC   C2918891   4.093   0.585  16.015 -0.3622  0.8295  0.4956
  157DOPC   H9R18892   3.995   0.537  16.018  1.0307 -2.2733  0.1436
  157DOPC  C21018893   4.116   0.664  15.909 -0.0502  0.0100 -0.4324
  157DOPC  H10R18894   4.031   0.669  15.840 -1.4946 -2.3074  1.0377
  157DOPC  C21118895   4.242   0.730  15.861  0.0645  0.2316  0.0452
  157DOPC  H11R18896   4.329   0.698  15.922 -1.1182  0.0787  1.7477
  157DOPC  H11S18897   4.240   0.841  15.865  2.2371  0.2990  0.2347
  157DOPC  C21218898   4.265   0.692  15.717 -0.1217 -0.3602  0.2804
  157DOPC  H12R18899   4.362   0.737  15.687 -0.6517 -0.5041 -1.8019
  157DOPC  H12S18900   4.194   0.734  15.642 -0.6085  2.3487  2.1180
  157DOPC  C21318901   4.290   0.542  15.695 -0.5207  0.9989 -0.2478
  157DOPC  H13R18902   4.196   0.486  15.714 -2.0386  3.3796 -0.2270
  157DOPC  H13S18903   4.360   0.519  15.778  0.6268  2.1174 -0.8779
  157DOPC  C21418904   4.343   0.499  15.555 -0.6132  0.2734  0.0789
  157DOPC  H14R18905   4.415   0.415  15.558 -2.1060 -1.1421 -1.4818
  157DOPC  H14S18906   4.410   0.579  15.518 -0.0220 -1.0749 -1.8937
  157DOPC  C21518907   4.237   0.474  15.442  0.0751 -0.3222 -0.3444
  157DOPC  H15R18908   4.155   0.549  15.441  1.0022  0.7000 -1.4305
  157DOPC  H15S18909   4.183   0.383  15.476 -2.2419  1.0373 -0.1706
  157DOPC  C21618910   4.282   0.491  15.294  1.0433 -0.1011  1.1977
  157DOPC  H16R18911   4.307   0.598  15.286 -0.7799  0.1973 -2.4694
  157DOPC  H16S18912   4.197   0.472  15.224  1.9758  0.9941 -0.2804
  157DOPC  C21718913   4.408   0.406  15.264  0.3494  0.3521  0.0023
  157DOPC  H17R18914   4.380   0.299  15.275 -0.1575  0.5142  0.3368
  157DOPC  H17S18915   4.487   0.436  15.336  0.5346 -1.3100  0.5449
  157DOPC  C21818916   4.481   0.423  15.131 -0.0962  0.3733 -0.6887
  157DOPC  H18R18917   4.484   0.533  15.116  0.7505  0.3243 -0.9314
  157DOPC  H18S18918   4.444   0.366  15.043 -1.2608  0.6681 -0.4077
  157DOPC  H18T18919   4.589   0.398  15.134  0.3426  2.2031 -0.2754
  157DOPC   C3318920   5.225   0.742  16.371  0.6071 -0.1325  0.4073
  157DOPC   H3X18921   5.285   0.793  16.448  3.3822  1.9558 -2.8785
  157DOPC   H3Y18922   5.193   0.815  16.294 -1.0760 -1.8090 -0.5922
  157DOPC   C3418923   5.314   0.632  16.307 -0.1635  0.1598 -0.9064
  157DOPC   H4X18924   5.271   0.568  16.226  3.0778 -1.1707 -1.7612
  157DOPC   H4Y18925   5.345   0.548  16.373  1.2624 -0.1533 -1.9105
  157DOPC   C3518926   5.443   0.697  16.247  0.3151  0.3657  0.1932
  157DOPC   H5X18927   5.488   0.747  16.336  0.3972  0.0978  0.3044
  157DOPC   H5Y18928   5.403   0.762  16.167 -0.0696  0.0862  0.1532
  157DOPC   C3618929   5.552   0.604  16.199  0.8505  0.2448 -0.0980
  157DOPC   H6X18930   5.555   0.537  16.288 -1.3778 -0.5167 -0.5297
  157DOPC   H6Y18931   5.519   0.537  16.117  2.2387 -1.9738  1.0474
  157DOPC   C3718932   5.692   0.666  16.180 -0.4207 -0.5885 -0.6720
  157DOPC   H7X18933   5.682   0.766  16.132 -1.6294  0.5499  1.7981
  157DOPC   H7Y18934   5.740   0.687  16.278 -1.1348 -0.5847 -0.3136
  157DOPC   C3818935   5.790   0.577  16.094  0.7988 -0.7873  0.4535
  157DOPC   H8X18936   5.746   0.575  15.992  0.1641  0.8911  0.6551
  157DOPC   H8Y18937   5.784   0.474  16.135 -0.5611 -0.8011  0.2713
  157DOPC   C3918938   5.931   0.635  16.085  0.6885 -0.0007 -0.7497
  157DOPC   H9X18939   5.941   0.721  16.017  0.2306  1.1610  0.5994
  157DOPC  C31018940   6.035   0.586  16.151 -0.4629 -0.1113 -0.2163
  157DOPC  H10X18941   6.137   0.624  16.134 -0.0331 -0.8724  0.5823
  157DOPC  C31118942   6.034   0.455  16.231 -0.1018  0.3706 -0.1519
  157DOPC  H11X18943   5.931   0.420  16.255  0.5265 -0.4063  1.5280
  157DOPC  H11Y18944   6.062   0.478  16.336  2.7329 -0.8305 -0.5663
  157DOPC  C31218945   6.101   0.331  16.180 -0.2747 -0.2743 -0.1215
  157DOPC  H12X18946   6.049   0.247  16.230 -4.1761  1.5891 -0.7163
  157DOPC  H12Y18947   6.208   0.337  16.210 -0.1911  3.1225 -0.7193
  157DOPC  C31318948   6.079   0.318  16.034 -0.7933 -0.3127 -0.3402
  157DOPC  H13X18949   5.972   0.319  16.005 -1.2282 -1.3653  1.1198
  157DOPC  H13Y18950   6.137   0.396  15.979  2.6627 -1.6751  1.0636
  157DOPC  C31418951   6.140   0.185  15.981 -0.0259  0.6182 -0.4037
  157DOPC  H14X18952   6.245   0.181  16.017  0.0968 -0.1244 -0.8231
  157DOPC  H14Y18953   6.080   0.096  16.011 -0.1548  0.4124 -1.2578
  157DOPC  C31518954   6.148   0.189  15.829  0.2572 -0.4658 -0.0949
  157DOPC  H15X18955   6.196   0.097  15.788  0.1427 -0.7689  0.4470
  157DOPC  H15Y18956   6.202   0.280  15.796 -2.4676  0.5615 -2.1186
  157DOPC  C31618957   6.016   0.187  15.750  0.1964 -0.1177 -0.3825
  157DOPC  H16X18958   5.942   0.114  15.789 -0.0840  0.3848  0.0449
  157DOPC  H16Y18959   5.964   0.284  15.765 -1.0475 -1.1605  2.9687
  157DOPC  C31718960   6.032   0.165  15.594 -0.9376 -0.8161  0.7588
  157DOPC  H17X18961   6.123   0.218  15.558 -0.5935 -2.0271 -0.2413
  157DOPC  H17Y18962   6.049   0.059  15.564  0.9966 -0.1420 -0.7258
  157DOPC  C31818963   5.913   0.220  15.514  0.0292 -0.6677 -0.2223
  157DOPC  H18X18964   5.885   0.325  15.539  2.2140 -0.0995  0.0517
  157DOPC  H18Y18965   5.928   0.208  15.405 -0.6925  2.0422 -0.6825
  157DOPC  H18Z18966   5.829   0.153  15.540 -2.2838  2.6722  1.7010
  158DOPC     N18967   4.716   6.931  17.390 -0.0916  0.3871  0.1594
  158DOPC   C1218968   4.713   6.859  17.258 -0.1007 -0.4195 -0.3486
  158DOPC  H12A18969   4.623   6.799  17.258 -0.6071  0.3309 -0.7249
  158DOPC  H12B18970   4.798   6.793  17.247 -0.4779 -0.8474 -0.7165
  158DOPC   C1318971   4.575   6.964  17.434  0.3416  0.8439 -0.0871
  158DOPC  H13A18972   4.572   7.010  17.532 -1.9639 -0.0652  0.3195
  158DOPC  H13B18973   4.541   7.046  17.371  0.8397 -0.3065 -1.9287
  158DOPC  H13C18974   4.504   6.883  17.434 -0.1128  1.2186  0.8063
  158DOPC   C1418975   4.806   7.047  17.391 -0.2900  0.1512  0.2530
  158DOPC  H14A18976   4.793   7.104  17.483  0.5975  0.0389  0.4565
  158DOPC  H14B18977   4.909   7.015  17.386 -0.4779 -0.4004 -0.2803
  158DOPC  H14C18978   4.781   7.115  17.311  0.4788 -0.3540 -0.4383
  158DOPC   C1518979   4.777   6.845  17.491 -0.2741  0.0879 -0.5567
  158DOPC  H15A18980   4.880   6.834  17.463 -1.1471 -1.3014 -3.5734
  158DOPC  H15B18981   4.726   6.750  17.483 -0.0691  0.0832 -1.9476
  158DOPC  H15C18982   4.773   6.889  17.590  1.4147  0.5603 -0.6779
  158DOPC   C1118983   4.704   6.945  17.127 -0.4760 -0.0046 -0.8090
  158DOPC  H11A18984   4.785   7.021  17.125  1.8702 -2.3610 -3.6387
  158DOPC  H11B18985   4.721   6.880  17.039  1.0670 -2.0428  0.9013
  158DOPC     P18986   4.455   6.917  17.073 -0.0102  0.5298  0.5040
  158DOPC   O1318987   4.326   6.993  17.071  0.4858 -0.6785 -0.2537
  158DOPC   O1418988   4.455   6.782  17.127  0.5534  0.1864  0.0853
  158DOPC   O1218989   4.578   7.002  17.128  0.8100 -0.7034 -0.1687
  158DOPC   O1118990   4.501   6.903  16.926 -0.1324  0.2069 -0.3999
  158DOPC    C118991   4.535   7.007  16.835  0.1994 -0.4509 -0.2459
  158DOPC    HA18992   4.643   7.034  16.828  0.3117 -1.0453 -0.9962
  158DOPC    HB18993   4.485   7.100  16.869  4.0014  1.1509  1.5207
  158DOPC    C218994   4.490   6.977  16.691  1.1594  0.2270 -0.3223
  158DOPC    HS18995   4.524   7.066  16.635  0.9633  1.1116  0.9353
  158DOPC   O2118996   4.351   6.944  16.661 -0.0410  0.0778 -0.3183
  158DOPC   C2118997   4.263   7.036  16.682 -0.2916 -0.3748  0.0593
  158DOPC   O2218998   4.285   7.153  16.716 -0.4072 -0.5644  0.1727
  158DOPC   C2218999   4.125   6.978  16.657  0.5630 -0.0824  0.2877
  158DOPC   H2R19000   4.107   6.911  16.743 -1.6713  0.6548  0.4485
  158DOPC   H2S19001   4.120   6.915  16.565  1.0393 -0.5884  0.6030
  158DOPC    C319002   4.578   6.863  16.625  0.9407  0.2093 -0.4929
  158DOPC    HX19003   4.539   6.773  16.676 -2.4565  1.1950 -1.1272
  158DOPC    HY19004   4.683   6.878  16.660  0.7643 -1.9783  1.2000
  158DOPC   O3119005   4.571   6.853  16.476 -0.5940 -0.3191 -0.6958
  158DOPC   C3119006   4.646   6.756  16.431 -1.0792 -0.2418 -0.6148
  158DOPC   O3219007   4.697   6.661  16.491  0.1806  0.3620 -0.0088
  158DOPC   C3219008   4.654   6.773  16.277 -0.2064 -0.2581 -0.1069
  158DOPC   H2X19009   4.617   6.876  16.256 -1.4482 -0.2335  1.9084
  158DOPC   H2Y19010   4.761   6.772  16.244 -0.6985 -1.7231 -1.7930
  158DOPC   C2319011   4.013   7.089  16.657 -0.5323  0.2164  0.5525
  158DOPC   H3R19012   4.007   7.140  16.755  2.7124 -2.1517  2.1716
  158DOPC   H3S19013   3.922   7.026  16.641  0.4987 -0.8550 -1.6394
  158DOPC   C2419014   4.024   7.181  16.531 -0.2607 -0.4199 -1.0968
  158DOPC   H4R19015   4.070   7.126  16.446 -2.5195 -1.2403 -1.8671
  158DOPC   H4S19016   4.095   7.266  16.544 -0.3851 -0.1395 -2.1336
  158DOPC   C2519017   3.886   7.228  16.482 -0.3632  0.8796 -0.2843
  158DOPC   H5R19018   3.844   7.292  16.562 -1.0666  0.8937 -0.6561
  158DOPC   H5S19019   3.822   7.138  16.472  2.5360 -1.0560 -4.1261
  158DOPC   C2619020   3.881   7.297  16.353  0.4587 -0.2423 -0.0936
  158DOPC   H6R19021   3.909   7.223  16.274 -1.4936 -0.6092 -0.4847
  158DOPC   H6S19022   3.952   7.383  16.346 -1.0220  0.9463 -1.1335
  158DOPC   C2719023   3.741   7.349  16.330 -0.0396 -0.0645  0.2813
  158DOPC   H7R19024   3.723   7.423  16.411  1.5020 -0.4494  1.0260
  158DOPC   H7S19025   3.671   7.263  16.341 -0.4063  0.1125 -0.5791
  158DOPC   C2819026   3.706   7.423  16.190 -0.2303 -0.0865 -0.1452
  158DOPC   H8R19027   3.766   7.515  16.174  0.3457 -0.2797  0.8011
  158DOPC   H8S19028   3.602   7.461  16.205  0.5699  1.6053  1.4799
  158DOPC   C2919029   3.724   7.319  16.084 -0.9196  0.4343 -0.0442
  158DOPC   H9R19030   3.651   7.238  16.092 -0.6370  0.3128  1.7664
  158DOPC  C21019031   3.821   7.320  15.992 -0.0002  0.0187  0.0993
  158DOPC  H10R19032   3.823   7.241  15.916 -2.7972  1.2287 -1.3801
  158DOPC  C21119033   3.929   7.427  15.973 -0.1916 -0.4209  0.1511
  158DOPC  H11R19034   4.019   7.374  15.935 -0.9123 -1.5960  0.0235
  158DOPC  H11S19035   3.965   7.476  16.066 -0.8086 -0.4417  0.4052
  158DOPC  C21219036   3.875   7.538  15.880  0.6506 -0.3418 -0.3788
  158DOPC  H12R19037   3.927   7.636  15.889 -1.0134  0.6108 -0.5796
  158DOPC  H12S19038   3.767   7.559  15.896  0.9867  1.1857  0.1076
  158DOPC  C21319039   3.872   7.499  15.729 -0.8361  1.0112 -0.3337
  158DOPC  H13R19040   3.822   7.401  15.716 -3.5458  2.5273 -2.8042
  158DOPC  H13S19041   3.974   7.498  15.685 -0.3538 -2.2505  0.6523
  158DOPC  C21419042   3.788   7.606  15.653  0.3134  0.1559  0.7002
  158DOPC  H14R19043   3.844   7.702  15.647  0.1027  0.2860  0.8349
  158DOPC  H14S19044   3.687   7.612  15.699 -0.9585 -0.9184 -1.7597
  158DOPC  C21519045   3.758   7.560  15.511 -0.2460 -0.1632  0.8047
  158DOPC  H15R19046   3.660   7.594  15.473 -1.2293 -2.9391  0.6121
  158DOPC  H15S19047   3.738   7.451  15.514 -1.9133  0.1448  2.2827
  158DOPC  C21619048   3.864   7.603  15.402 -0.3212 -0.1342  0.4050
  158DOPC  H16R19049   3.958   7.544  15.402  1.1107  2.0229  0.2325
  158DOPC  H16S19050   3.898   7.709  15.404  0.5476 -0.4142  1.2315
  158DOPC  C21719051   3.804   7.570  15.262  0.2376  0.6453 -0.1201
  158DOPC  H17R19052   3.707   7.623  15.250 -2.0238 -3.0562  0.1357
  158DOPC  H17S19053   3.779   7.462  15.270 -0.2100  0.8583  1.6896
  158DOPC  C21819054   3.900   7.587  15.141 -0.0379  0.1267 -0.5440
  158DOPC  H18R19055   4.001   7.552  15.170 -0.3407  0.2532  0.7207
  158DOPC  H18S19056   3.913   7.696  15.129  0.0577  0.4368  1.9345
  158DOPC  H18T19057   3.864   7.539  15.047 -0.5899 -1.8432  0.5999
  158DOPC   C3319058   4.579   6.667  16.197 -0.4265 -0.1619  0.0260
  158DOPC   H3X19059   4.486   6.643  16.252 -1.2614 -1.4270 -1.8253
  158DOPC   H3Y19060   4.638   6.573  16.202  0.5256  0.3823 -0.6144
  158DOPC   C3419061   4.551   6.710  16.054  0.2501 -0.1261 -0.1315
  158DOPC   H4X19062   4.487   6.800  16.064  0.5115 -0.0710  1.2643
  158DOPC   H4Y19063   4.493   6.622  16.021  2.2270 -1.2380 -0.7968
  158DOPC   C3519064   4.671   6.740  15.975  0.1908 -0.0898 -0.5997
  158DOPC   H5X19065   4.758   6.676  16.000 -1.3396 -2.6917 -1.5072
  158DOPC   H5Y19066   4.687   6.849  15.988 -0.0529 -0.2075  0.7788
  158DOPC   C3619067   4.646   6.724  15.827  0.9480 -0.0660  0.2499
  158DOPC   H6X19068   4.744   6.733  15.777  1.8539  1.5087  2.1580
  158DOPC   H6Y19069   4.596   6.626  15.812 -1.8503  1.5326 -1.9881
  158DOPC   C3719070   4.564   6.846  15.764 -0.3065  1.1937 -0.4051
  158DOPC   H7X19071   4.475   6.870  15.826  0.1288  0.2126  0.6404
  158DOPC   H7Y19072   4.631   6.935  15.769 -0.4199  1.4076 -1.9898
  158DOPC   C3819073   4.521   6.819  15.619 -0.1055 -0.4726 -0.1873
  158DOPC   H8X19074   4.483   6.715  15.609 -1.6005 -0.6452  4.7259
  158DOPC   H8Y19075   4.609   6.827  15.552 -0.1998  1.4548 -0.1479
  158DOPC   C3919076   4.417   6.920  15.571 -0.3354  0.1816  0.1335
  158DOPC   H9X19077   4.448   7.024  15.585  0.1270  0.0123  0.4174
  158DOPC  C31019078   4.300   6.896  15.513 -0.7321  0.3721  0.2778
  158DOPC  H10X19079   4.232   6.981  15.495 -2.5852 -1.4956 -2.3154
  158DOPC  C31119080   4.243   6.759  15.473 -0.0276  0.0928 -0.2684
  158DOPC  H11X19081   4.165   6.720  15.542  0.0665 -0.8471 -0.6902
  158DOPC  H11Y19082   4.320   6.680  15.465 -0.5799 -0.7849  2.0806
  158DOPC  C31219083   4.165   6.760  15.338  0.3964 -0.5862  0.5843
  158DOPC  H12X19084   4.075   6.825  15.351 -0.7918 -2.3384  1.5558
  158DOPC  H12Y19085   4.134   6.656  15.315  0.1034 -0.6603  1.2899
  158DOPC  C31319086   4.246   6.829  15.226 -0.0255 -0.4888  0.9184
  158DOPC  H13X19087   4.275   6.935  15.237  2.2446 -0.6165 -2.3807
  158DOPC  H13Y19088   4.338   6.768  15.210  0.2501  0.1604 -0.0649
  158DOPC  C31419089   4.181   6.808  15.093  0.0634 -0.4852 -0.3446
  158DOPC  H14X19090   4.250   6.814  15.006  1.0258  0.3205  0.4631
  158DOPC  H14Y19091   4.121   6.714  15.085  0.0252 -0.7712  2.4154
  158DOPC  C31519092   4.085   6.927  15.061 -0.5691  0.3200  0.1647
  158DOPC  H15X19093   4.139   7.025  15.058 -1.4507  0.8521  0.9123
  158DOPC  H15Y19094   4.016   6.947  15.146 -1.9744  0.8126 -1.0643
  158DOPC  C31619095   4.007   6.917  14.928 -0.0579  0.1865 -0.2080
  158DOPC  H16X19096   4.070   6.890  14.840 -0.1839 -2.1026  0.3476
  158DOPC  H16Y19097   3.934   6.833  14.929  1.0227 -0.7755 -0.3896
  158DOPC  C31719098   3.926   7.041  14.887 -0.5610 -0.5803  0.1072
  158DOPC  H17X19099   3.862   7.080  14.969  1.1217  1.7836  0.3911
  158DOPC  H17Y19100   3.991   7.126  14.860 -2.5250  1.5459  1.7253
  158DOPC  C31819101   3.835   7.023  14.762  0.1190 -0.0117  0.3039
  158DOPC  H18X19102   3.903   6.991  14.680 -1.5316 -0.3247 -0.9823
  158DOPC  H18Y19103   3.749   6.954  14.776  0.3055 -0.3497 -0.1987
  158DOPC  H18Z19104   3.786   7.119  14.738  2.5557  0.8152 -1.8767
  159DOPC     N19105   5.985   1.237  17.309 -0.1438  0.7269 -0.4710
  159DOPC   C1219106   5.896   1.218  17.190 -0.0272 -0.5445  0.5232
  159DOPC  H12A19107   5.952   1.224  17.098 -1.1278 -0.5296 -0.1622
  159DOPC  H12B19108   5.820   1.294  17.187  0.4629 -0.0732 -0.4131
  159DOPC   C1319109   6.074   1.358  17.294  0.8022 -0.0675 -0.6838
  159DOPC  H13A19110   6.156   1.363  17.364 -0.2638 -1.1478  0.7028
  159DOPC  H13B19111   6.117   1.345  17.195  1.0187  0.8251 -0.7139
  159DOPC  H13C19112   6.016   1.447  17.309 -0.1229 -0.8590  0.6410
  159DOPC   C1419113   6.078   1.124  17.325  0.2702 -0.2215  0.7231
  159DOPC  H14A19114   6.121   1.106  17.227  1.1888  2.9541  0.4476
  159DOPC  H14B19115   6.142   1.147  17.409  0.0702  0.1763  0.7667
  159DOPC  H14C19116   6.015   1.037  17.343 -1.3101  0.9518  1.0835
  159DOPC   C1519117   5.899   1.266  17.434  0.0125 -0.7831  0.5962
  159DOPC  H15A19118   5.833   1.347  17.409  0.1300 -0.5648  0.9817
  159DOPC  H15B19119   5.964   1.286  17.518  0.1598  0.7104  0.1494
  159DOPC  H15C19120   5.844   1.182  17.473 -0.1628 -0.9106  0.0814
  159DOPC   C1119121   5.812   1.089  17.183 -0.2367  0.1466  0.5438
  159DOPC  H11A19122   5.755   1.076  17.277 -0.3891 -0.4826  0.3704
  159DOPC  H11B19123   5.728   1.095  17.112 -1.1363 -2.5326  1.2856
  159DOPC     P19124   5.919   0.901  17.031 -0.4404 -0.4201  0.1139
  159DOPC   O1319125   5.962   0.763  17.064 -0.4293  0.0576 -0.1451
  159DOPC   O1419126   6.012   0.982  16.951  0.4743 -0.3070 -0.3874
  159DOPC   O1219127   5.893   0.972  17.171  0.0371 -0.5342 -0.0297
  159DOPC   O1119128   5.781   0.899  16.965  0.3369 -0.0714  0.5501
  159DOPC    C119129   5.741   0.801  16.867 -0.2919 -0.7623  0.2530
  159DOPC    HA19130   5.668   0.733  16.916  0.1333 -1.1222  0.3995
  159DOPC    HB19131   5.819   0.732  16.829  1.6830  0.6267  1.5527
  159DOPC    C219132   5.690   0.881  16.744 -0.0412  0.5600 -0.0910
  159DOPC    HS19133   5.658   0.794  16.683 -1.2241  0.7793  0.2025
  159DOPC   O2119134   5.796   0.959  16.688 -0.3047  0.3283 -0.1989
  159DOPC   C2119135   5.876   0.886  16.609 -0.7561 -0.6127 -0.0192
  159DOPC   O2219136   5.853   0.775  16.570 -0.7998 -0.2196  0.1435
  159DOPC   C2219137   5.997   0.979  16.575  0.2258 -0.6148 -0.7141
  159DOPC   H2R19138   6.073   0.966  16.654  0.7032  0.1767 -1.0342
  159DOPC   H2S19139   5.960   1.083  16.571  0.5541 -0.5135 -1.2846
  159DOPC    C319140   5.574   0.981  16.767  0.3416 -0.5113  0.2075
  159DOPC    HX19141   5.616   1.059  16.834  0.6719 -2.1257  1.9577
  159DOPC    HY19142   5.491   0.934  16.823 -0.4167  1.6143  0.9592
  159DOPC   O3119143   5.531   1.050  16.644  0.1036  0.8464  0.8511
  159DOPC   C3119144   5.415   1.003  16.596  0.6481  1.1158 -0.2425
  159DOPC   O3219145   5.339   0.923  16.648  0.0748 -0.0425 -0.3095
  159DOPC   C3219146   5.393   1.078  16.463 -0.2224  0.3979 -0.3067
  159DOPC   H2X19147   5.305   1.026  16.419 -1.7415  1.5346  1.2312
  159DOPC   H2Y19148   5.366   1.184  16.481  0.6686  0.9428 -1.9328
  159DOPC   C2319149   6.077   0.956  16.451 -0.3144 -0.2661  0.4158
  159DOPC   H3R19150   6.093   0.847  16.437  1.1835  0.1916 -1.9877
  159DOPC   H3S19151   6.175   1.007  16.460 -0.2475 -0.6275  1.8207
  159DOPC   C2419152   6.005   0.999  16.317  0.3979 -0.3998  0.2062
  159DOPC   H4R19153   5.973   1.105  16.328  1.1848 -0.0834 -0.3967
  159DOPC   H4S19154   5.927   0.920  16.306  1.0171 -1.2445  1.6548
  159DOPC   C2519155   6.108   0.991  16.198  0.0411 -0.0992 -0.0224
  159DOPC   H5R19156   6.162   0.894  16.196  1.6065  0.7353 -0.2058
  159DOPC   H5S19157   6.181   1.073  16.217 -2.1421  1.9936 -0.0553
  159DOPC   C2619158   6.053   1.034  16.059  0.5798 -0.1462  0.5128
  159DOPC   H6R19159   5.984   0.954  16.024  1.6318 -0.7742 -0.1793
  159DOPC   H6S19160   6.142   1.034  15.992 -0.5325 -2.0065 -1.0511
  159DOPC   C2719161   5.980   1.177  16.062  0.3510 -0.2680 -0.8944
  159DOPC   H7R19162   6.035   1.256  16.117 -0.4127  0.3252 -0.9669
  159DOPC   H7S19163   5.882   1.161  16.111  2.6003 -1.5132  3.8200
  159DOPC   C2819164   5.950   1.227  15.923 -0.1956 -0.1160  0.2330
  159DOPC   H8R19165   6.040   1.274  15.879 -0.6061  1.3326  0.8639
  159DOPC   H8S19166   5.887   1.318  15.935  0.7588  0.9248 -2.0190
  159DOPC   C2919167   5.885   1.134  15.826 -0.6034  0.0655  0.0572
  159DOPC   H9R19168   5.826   1.052  15.871 -2.3315  2.5009  2.5788
  159DOPC  C21019169   5.869   1.156  15.690  0.6465  0.0089 -0.1437
  159DOPC  H10R19170   5.792   1.099  15.635 -2.4528  3.6011  0.0735
  159DOPC  C21119171   5.940   1.260  15.607  0.8183  0.1371 -0.4474
  159DOPC  H11R19172   6.009   1.314  15.675  1.5606 -1.2982 -0.0123
  159DOPC  H11S19173   5.859   1.323  15.564  0.3661  0.9339  1.4852
  159DOPC  C21219174   6.024   1.212  15.484 -0.2280 -0.2635 -0.2994
  159DOPC  H12R19175   6.099   1.148  15.535  1.8274  1.1965 -1.3399
  159DOPC  H12S19176   6.087   1.293  15.442  2.3383 -1.6990  0.5488
  159DOPC  C21319177   5.954   1.141  15.364 -0.3504 -0.5536  0.6862
  159DOPC  H13R19178   5.902   1.226  15.315 -0.9842 -1.9774 -1.2438
  159DOPC  H13S19179   5.874   1.073  15.401  0.8261 -1.3593  1.8184
  159DOPC  C21419180   6.042   1.083  15.249  0.2015 -0.1004 -0.3066
  159DOPC  H14R19181   6.108   1.159  15.201  2.1973 -2.2221 -1.1326
  159DOPC  H14S19182   5.978   1.048  15.165  1.2386 -1.6998 -0.4705
  159DOPC  C21519183   6.136   0.970  15.297  0.4426 -0.0091  0.0633
  159DOPC  H15R19184   6.083   0.916  15.378  0.9407  0.2783  0.5903
  159DOPC  H15S19185   6.218   1.014  15.358  1.6222 -0.7531 -0.9361
  159DOPC  C21619186   6.177   0.868  15.187 -0.6354 -0.8790 -0.3480
  159DOPC  H16R19187   6.264   0.810  15.222  0.8730  1.6494  0.3719
  159DOPC  H16S19188   6.209   0.934  15.103  0.4319 -1.7838 -0.6697
  159DOPC  C21719189   6.067   0.768  15.161 -0.1540 -0.3716  0.5498
  159DOPC  H17R19190   5.968   0.814  15.137  1.4919  3.2886  0.0551
  159DOPC  H17S19191   6.051   0.723  15.262 -0.0223 -0.0881  0.6983
  159DOPC  C21819192   6.108   0.662  15.062  0.4223 -0.4555  0.2935
  159DOPC  H18R19193   6.197   0.602  15.092  1.5583  1.0351  0.0195
  159DOPC  H18S19194   6.137   0.700  14.961 -0.0433 -1.8689 -0.4004
  159DOPC  H18T19195   6.020   0.600  15.035 -0.9428  1.7387 -0.5899
  159DOPC   C3319196   5.512   1.066  16.369  0.0787 -0.3536  0.3103
  159DOPC   H3X19197   5.551   0.963  16.354 -0.7552 -0.8181  1.2388
  159DOPC   H3Y19198   5.596   1.136  16.387 -0.0803 -0.3355  1.0130
  159DOPC   C3419199   5.455   1.113  16.237 -0.1603 -0.4687 -0.2111
  159DOPC   H4X19200   5.429   1.221  16.238  0.8061 -0.1474 -2.2677
  159DOPC   H4Y19201   5.379   1.051  16.185  0.5006 -1.4352 -0.0378
  159DOPC   C3519202   5.563   1.115  16.131 -0.0907  0.7166  0.0961
  159DOPC   H5X19203   5.584   1.014  16.089  0.7259  0.6163  0.7240
  159DOPC   H5Y19204   5.660   1.161  16.162  0.3862  0.0365 -0.3386
  159DOPC   C3619205   5.525   1.192  15.999 -0.0405 -0.2606 -0.6072
  159DOPC   H6X19206   5.491   1.297  16.017 -0.0420 -0.3081 -0.3285
  159DOPC   H6Y19207   5.617   1.206  15.940  0.4715  1.6036  0.5397
  159DOPC   C3719208   5.418   1.114  15.917 -0.0764 -0.4115  0.9120
  159DOPC   H7X19209   5.439   1.005  15.918 -0.0751 -0.4721 -1.1752
  159DOPC   H7Y19210   5.325   1.137  15.972 -0.5497  1.1230 -0.4491
  159DOPC   C3819211   5.405   1.173  15.771  0.1688 -0.3153 -0.1548
  159DOPC   H8X19212   5.505   1.161  15.724 -0.8938 -0.0951 -2.6115
  159DOPC   H8Y19213   5.392   1.283  15.778  1.2905 -0.1739 -0.1592
  159DOPC   C3919214   5.301   1.105  15.686 -0.1552 -0.1375  0.4096
  159DOPC   H9X19215   5.201   1.101  15.732  0.5056 -0.6165  1.8638
  159DOPC  C31019216   5.322   1.056  15.565  0.2014 -0.4151  0.3339
  159DOPC  H10X19217   5.238   1.006  15.516  1.0397 -0.1757 -1.4169
  159DOPC  C31119218   5.449   1.042  15.489  0.5587 -0.0209 -0.3395
  159DOPC  H11X19219   5.481   0.936  15.485  0.7151 -0.0270  0.7919
  159DOPC  H11Y19220   5.531   1.093  15.544 -0.4059 -0.5150  1.6260
  159DOPC  C31219221   5.423   1.119  15.356  0.2183 -0.4950 -0.3794
  159DOPC  H12X19222   5.390   1.221  15.386 -0.1875 -0.6562 -0.2602
  159DOPC  H12Y19223   5.344   1.064  15.300  0.8368 -0.7554 -1.0041
  159DOPC  C31319224   5.552   1.127  15.277 -0.1264 -0.4946  0.1664
  159DOPC  H13X19225   5.624   1.192  15.331  1.6468  0.7889 -3.4136
  159DOPC  H13Y19226   5.598   1.026  15.279 -1.1024 -0.9527 -0.0206
  159DOPC  C31419227   5.550   1.171  15.132  0.0755 -0.0079 -0.8893
  159DOPC  H14X19228   5.480   1.102  15.079 -0.9209 -0.5888  1.1084
  159DOPC  H14Y19229   5.518   1.276  15.150  2.6528  0.4728  1.5707
  159DOPC  C31519230   5.688   1.159  15.052  0.8185  0.2698  0.2682
  159DOPC  H15X19231   5.718   1.053  15.046  0.2794  0.0878  0.7195
  159DOPC  H15Y19232   5.752   1.214  15.125 -0.4756  1.4957  0.5182
  159DOPC  C31619233   5.706   1.238  14.917  1.2854 -0.1153  0.1008
  159DOPC  H16X19234   5.637   1.323  14.930  0.4038 -1.0253  1.7205
  159DOPC  H16Y19235   5.814   1.264  14.912  1.4606 -0.9051 -0.4193
  159DOPC  C31719236   5.667   1.148  14.803  0.1937  0.0471 -0.3866
  159DOPC  H17X19237   5.743   1.069  14.791 -0.2611 -0.2608 -1.3397
  159DOPC  H17Y19238   5.565   1.105  14.818 -1.5259  3.6041 -0.7710
  159DOPC  C31819239   5.644   1.228  14.674  0.6033 -0.4123 -0.2432
  159DOPC  H18X19240   5.570   1.311  14.673 -1.0180 -1.7695 -2.9347
  159DOPC  H18Y19241   5.737   1.281  14.645  2.0808 -2.0426  1.2652
  159DOPC  H18Z19242   5.613   1.167  14.588  3.3100 -1.8687 -0.3001
  160DOPC     N19243   1.501   6.452  17.420  0.4143 -0.1496 -0.1933
  160DOPC   C1219244   1.435   6.418  17.289 -0.5102  0.8129  0.2212
  160DOPC  H12A19245   1.434   6.508  17.231  2.4265  1.3353  0.7923
  160DOPC  H12B19246   1.333   6.386  17.304  0.3052 -1.5138  1.3646
  160DOPC   C1319247   1.402   6.527  17.502  0.2057  0.7203 -0.1862
  160DOPC  H13A19248   1.450   6.572  17.588  1.8968 -1.3835  0.0514
  160DOPC  H13B19249   1.356   6.602  17.438  0.2931  0.8639 -0.0807
  160DOPC  H13C19250   1.322   6.462  17.533 -0.0479  1.3518  0.5230
  160DOPC   C1419251   1.616   6.542  17.399  1.0815  0.1666  0.3666
  160DOPC  H14A19252   1.689   6.482  17.346 -0.2705  0.6584 -2.2389
  160DOPC  H14B19253   1.584   6.627  17.340  3.2095 -0.1738 -1.3949
  160DOPC  H14C19254   1.654   6.580  17.493 -0.1036  0.0809  0.8968
  160DOPC   C1519255   1.542   6.336  17.497 -0.1532  0.2104 -0.3121
  160DOPC  H15A19256   1.450   6.287  17.525  0.8744 -1.1870  0.7052
  160DOPC  H15B19257   1.596   6.359  17.587 -0.0445 -2.7934  0.4937
  160DOPC  H15C19258   1.584   6.261  17.432  0.6797  1.5960 -1.4260
  160DOPC   C1119259   1.511   6.307  17.202  0.4314  0.2164 -0.4703
  160DOPC  H11A19260   1.492   6.212  17.256 -0.1170 -0.5048 -1.8798
  160DOPC  H11B19261   1.464   6.290  17.103  1.2613 -1.7267 -0.5688
  160DOPC     P19262   1.690   6.423  17.067  0.1389  0.1535  0.0550
  160DOPC   O1319263   1.844   6.408  17.047  1.0996 -0.5824 -0.8604
  160DOPC   O1419264   1.637   6.556  17.082  0.1656 -0.3104 -0.0648
  160DOPC   O1219265   1.648   6.329  17.180  0.4004 -0.2636 -0.5666
  160DOPC   O1119266   1.615   6.362  16.942  0.0370 -0.4619  0.8628
  160DOPC    C119267   1.669   6.243  16.883 -0.2649  0.1370  0.4702
  160DOPC    HA19268   1.592   6.163  16.887  0.8847 -1.0871 -0.6758
  160DOPC    HB19269   1.748   6.193  16.943 -1.3294 -1.2860  0.7442
  160DOPC    C219270   1.720   6.255  16.733  0.4431  0.7721  0.0907
  160DOPC    HS19271   1.808   6.323  16.725  1.5888 -0.7507 -0.6632
  160DOPC   O2119272   1.608   6.287  16.643  0.3681  0.2044 -0.2822
  160DOPC   C2119273   1.594   6.417  16.617  0.2091 -0.1607 -0.2564
  160DOPC   O2219274   1.673   6.503  16.656  0.0944 -0.1847 -0.0552
  160DOPC   C2219275   1.471   6.435  16.531  0.0314  0.5537  0.0950
  160DOPC   H2R19276   1.378   6.391  16.573  0.5165 -0.5465  0.0603
  160DOPC   H2S19277   1.489   6.381  16.436 -0.9078  2.0264 -0.9499
  160DOPC    C319278   1.772   6.113  16.684 -0.3878  0.1903  0.5907
  160DOPC    HX19279   1.695   6.034  16.693 -1.6371  1.2166 -0.7296
  160DOPC    HY19280   1.855   6.090  16.755  0.5314 -3.4448 -1.3934
  160DOPC   O3119281   1.825   6.117  16.555 -0.4360 -0.5727 -0.1952
  160DOPC   C3119282   1.892   6.006  16.514 -0.5385  0.1309 -0.9814
  160DOPC   O3219283   1.910   5.904  16.585  0.1705 -0.1664  0.0041
  160DOPC   C3219284   1.951   6.038  16.373 -0.4003 -0.6552 -0.5905
  160DOPC   H2X19285   2.057   6.069  16.385 -0.6374  0.5137 -1.4361
  160DOPC   H2Y19286   1.954   5.947  16.309  0.2056 -0.6462 -0.5821
  160DOPC   C2319287   1.442   6.580  16.478  0.6644  0.3868  0.0079
  160DOPC   H3R19288   1.450   6.652  16.562 -0.0618  1.3229 -0.7042
  160DOPC   H3S19289   1.343   6.592  16.429  0.2909 -1.1322  0.3481
  160DOPC   C2419290   1.545   6.630  16.379  0.1076  0.7204  0.6339
  160DOPC   H4R19291   1.651   6.626  16.412 -0.0006  0.5715  0.9610
  160DOPC   H4S19292   1.523   6.735  16.352  0.3477  0.2477 -1.6165
  160DOPC   C2519293   1.544   6.558  16.238 -0.3784 -0.2904  0.0499
  160DOPC   H5R19294   1.582   6.456  16.256  1.2296  0.3316  0.3161
  160DOPC   H5S19295   1.619   6.609  16.175 -0.6161  0.4371  0.3342
  160DOPC   C2619296   1.411   6.535  16.165 -0.2296 -0.4974 -0.5716
  160DOPC   H6R19297   1.320   6.533  16.230 -0.4082 -0.6640 -0.8257
  160DOPC   H6S19298   1.410   6.443  16.103 -0.1765 -1.8825  1.4077
  160DOPC   C2719299   1.379   6.640  16.056  0.6770  0.0994  0.8050
  160DOPC   H7R19300   1.370   6.746  16.089  3.5606  0.7549 -0.2213
  160DOPC   H7S19301   1.277   6.611  16.021  1.2926 -0.4006 -0.6138
  160DOPC   C2819302   1.458   6.623  15.924  0.6091 -0.5321 -0.1627
  160DOPC   H8R19303   1.420   6.531  15.875  0.7858 -0.8167  0.2359
  160DOPC   H8S19304   1.562   6.597  15.955 -0.4443 -0.4765  3.8818
  160DOPC   C2919305   1.442   6.746  15.837 -0.7170  0.6280  0.8000
  160DOPC   H9R19306   1.493   6.839  15.869  0.9613  0.4255 -1.1003
  160DOPC  C21019307   1.376   6.750  15.724 -0.3038  0.9920  0.8457
  160DOPC  H10R19308   1.373   6.846  15.671  0.1478  0.2521 -0.5797
  160DOPC  C21119309   1.308   6.635  15.651 -0.1687  0.5330 -0.0605
  160DOPC  H11R19310   1.209   6.670  15.615 -0.3580  1.3580  1.2061
  160DOPC  H11S19311   1.294   6.548  15.718 -2.6178  1.2008  0.4169
  160DOPC  C21219312   1.392   6.589  15.529  0.5968  0.0516 -0.1077
  160DOPC  H12R19313   1.491   6.554  15.565  0.3018 -0.1791  0.4853
  160DOPC  H12S19314   1.390   6.674  15.458  0.6767 -0.2518 -0.4740
  160DOPC  C21319315   1.313   6.482  15.451 -0.5513 -0.1015 -0.2435
  160DOPC  H13R19316   1.204   6.504  15.449 -0.1471  2.5478  1.5617
  160DOPC  H13S19317   1.328   6.378  15.488 -0.0928  0.1559  0.3152
  160DOPC  C21419318   1.367   6.470  15.307  0.6118 -0.2693  0.0101
  160DOPC  H14R19319   1.475   6.443  15.311 -0.2072 -3.8379  1.8059
  160DOPC  H14S19320   1.349   6.564  15.251  2.9731 -0.1670 -0.6849
  160DOPC  C21519321   1.300   6.358  15.224  0.6275 -0.5425  0.7636
  160DOPC  H15R19322   1.337   6.262  15.266  0.1258 -0.9711  0.2504
  160DOPC  H15S19323   1.329   6.369  15.117 -0.8645  1.4051  0.5203
  160DOPC  C21619324   1.146   6.367  15.207 -0.3718 -0.3134 -0.6721
  160DOPC  H16R19325   1.119   6.459  15.152  0.2889  1.5758  1.9408
  160DOPC  H16S19326   1.104   6.384  15.309  1.1047 -0.8857  0.0580
  160DOPC  C21719327   1.093   6.238  15.145  0.2527  0.4304 -0.0265
  160DOPC  H17R19328   1.157   6.221  15.056  2.0593 -1.7680  1.5667
  160DOPC  H17S19329   0.987   6.254  15.117 -1.4395 -2.0744  4.0215
  160DOPC  C21819330   1.083   6.108  15.230  0.3201 -0.0017 -0.4979
  160DOPC  H18R19331   1.177   6.090  15.286  0.5023 -1.7366 -1.2814
  160DOPC  H18S19332   1.076   6.020  15.162 -0.8970 -0.3049 -0.0094
  160DOPC  H18T19333   0.995   6.118  15.296 -0.8232  0.1082 -1.9844
  160DOPC   C3319334   1.865   6.136  16.289 -0.0550 -0.3843  0.0637
  160DOPC   H3X19335   1.876   6.233  16.340  1.6597 -0.1148 -0.7279
  160DOPC   H3Y19336   1.758   6.108  16.289 -0.1671  0.0325  1.0641
  160DOPC   C3419337   1.923   6.150  16.149 -0.9993 -0.2633  0.0996
  160DOPC   H4X19338   2.034   6.141  16.146 -0.9317  0.4321  0.3243
  160DOPC   H4Y19339   1.903   6.257  16.127  0.6739 -0.1722 -1.2544
  160DOPC   C3519340   1.856   6.061  16.051 -0.3608  0.0437 -0.1094
  160DOPC   H5X19341   1.746   6.070  16.065  0.0549  0.9085  3.2052
  160DOPC   H5Y19342   1.885   5.955  16.070  0.5908  0.2645 -0.2787
  160DOPC   C3619343   1.898   6.085  15.904  0.9527 -1.0240 -0.7076
  160DOPC   H6X19344   1.917   6.194  15.900  1.2620 -1.0390  0.1013
  160DOPC   H6Y19345   2.000   6.041  15.891  0.7560 -1.9262  0.5597
  160DOPC   C3719346   1.799   6.028  15.797 -0.3502 -0.4316 -0.3471
  160DOPC   H7X19347   1.708   6.089  15.813  0.4189  0.6676 -0.0516
  160DOPC   H7Y19348   1.843   6.050  15.697  0.4403  0.9687  0.2877
  160DOPC   C3819349   1.770   5.881  15.808 -0.0302  0.3504  0.0336
  160DOPC   H8X19350   1.694   5.863  15.729 -0.2986 -0.1687  0.4103
  160DOPC   H8Y19351   1.712   5.864  15.901 -0.3367  0.5638 -0.1154
  160DOPC   C3919352   1.895   5.796  15.803  0.1572  0.7869 -0.0753
  160DOPC   H9X19353   1.957   5.796  15.894  0.7017 -1.9455 -0.3673
  160DOPC  C31019354   1.915   5.708  15.700 -0.8950 -0.5235  0.5484
  160DOPC  H10X19355   2.008   5.650  15.706  0.3512  1.0298 -2.2641
  160DOPC  C31119356   1.850   5.697  15.564 -0.1985  0.2852  0.6513
  160DOPC  H11X19357   1.748   5.741  15.561 -0.4558 -0.2645  1.1481
  160DOPC  H11Y19358   1.835   5.598  15.517 -0.1407  0.4524  0.2726
  160DOPC  C31219359   1.936   5.780  15.470  0.1489 -0.9387 -0.4777
  160DOPC  H12X19360   2.042   5.749  15.479  0.1819 -1.2145 -1.6339
  160DOPC  H12Y19361   1.931   5.888  15.493  3.1944 -0.1194 -2.9945
  160DOPC  C31319362   1.901   5.766  15.318  0.5381  0.5619 -0.1267
  160DOPC  H13X19363   1.896   5.656  15.303 -2.5719  0.5573  0.3053
  160DOPC  H13Y19364   1.803   5.814  15.301 -0.4102 -0.8151  1.2136
  160DOPC  C31419365   1.998   5.838  15.222  0.3349  0.6107 -0.2436
  160DOPC  H14X19366   2.007   5.941  15.262 -0.0915  0.6918 -0.3516
  160DOPC  H14Y19367   2.100   5.795  15.229  0.4067  0.9215  0.9106
  160DOPC  C31519368   1.948   5.829  15.079  0.5387 -0.1878  0.1337
  160DOPC  H15X19369   2.009   5.886  15.006  2.3216  0.9081  2.3417
  160DOPC  H15Y19370   1.846   5.873  15.070  1.2374  1.2733 -1.1380
  160DOPC  C31619371   1.945   5.682  15.031 -0.2437 -0.2658 -0.2216
  160DOPC  H16X19372   2.036   5.629  15.066  1.0357  1.3994 -0.9167
  160DOPC  H16Y19373   1.861   5.631  15.083  0.9006 -0.2388  1.7318
  160DOPC  C31719374   1.951   5.659  14.878 -0.4779 -0.1502  0.1761
  160DOPC  H17X19375   1.942   5.549  14.865 -0.3629 -0.0815 -0.5131
  160DOPC  H17Y19376   1.865   5.697  14.819 -1.2834 -2.3297 -0.1622
  160DOPC  C31819377   2.082   5.699  14.808  0.6182 -0.9670 -0.0074
  160DOPC  H18X19378   2.111   5.806  14.799 -0.0638 -0.8711 -1.3353
  160DOPC  H18Y19379   2.171   5.656  14.859  2.7520  3.1008  0.1424
  160DOPC  H18Z19380   2.084   5.654  14.706 -0.5887 -0.8133 -0.1199
  161DOPC     N19381   2.643   0.454  17.122 -0.6552  0.2526 -0.1650
  161DOPC   C1219382   2.792   0.419  17.136  1.0321 -0.1628  0.2330
  161DOPC  H12A19383   2.814   0.418  17.242 -1.6400  3.4388  1.0118
  161DOPC  H12B19384   2.845   0.501  17.090  0.0372  0.4274  0.1158
  161DOPC   C1319385   2.620   0.592  17.169  0.0143  0.6332  0.5244
  161DOPC  H13A19386   2.514   0.615  17.165 -0.0666  0.1238 -1.2598
  161DOPC  H13B19387   2.651   0.598  17.272 -0.2909 -3.8530  1.1042
  161DOPC  H13C19388   2.681   0.663  17.115  0.6486 -0.0706  0.2961
  161DOPC   C1419389   2.548   0.367  17.190 -0.3964  0.7005  0.3328
  161DOPC  H14A19390   2.444   0.390  17.170 -0.9701 -0.5846  1.6960
  161DOPC  H14B19391   2.570   0.266  17.159  1.1623  0.5396  1.8109
  161DOPC  H14C19392   2.544   0.379  17.298 -5.9152 -0.9393  0.6482
  161DOPC   C1519393   2.597   0.445  16.976 -0.3707  0.4180 -0.1162
  161DOPC  H15A19394   2.597   0.348  16.927 -2.5100  0.6511 -0.6790
  161DOPC  H15B19395   2.651   0.513  16.911 -0.2055  2.1155  1.6964
  161DOPC  H15C19396   2.494   0.474  16.965 -0.7381 -0.9764 -0.5341
  161DOPC   C1119397   2.854   0.293  17.077 -0.1208 -0.5925 -0.1487
  161DOPC  H11A19398   2.858   0.313  16.968  1.6050  0.6868  0.1065
  161DOPC  H11B19399   2.959   0.293  17.113  0.3573 -0.4814 -1.4820
  161DOPC     P19400   2.732   0.073  17.024 -0.2687  0.1680  0.1932
  161DOPC   O1319401   2.591   0.100  16.987  0.3382 -0.3381 -0.0317
  161DOPC   O1419402   2.742  -0.056  17.090  0.0091  0.4921 -0.0614
  161DOPC   O1219403   2.791   0.173  17.123 -0.2590 -0.2284  0.0207
  161DOPC   O1119404   2.820   0.085  16.893  0.0499 -0.1433  0.2017
  161DOPC    C119405   2.961   0.074  16.894  0.3361 -0.1096  0.2139
  161DOPC    HA19406   3.014   0.079  16.991  0.2578 -0.2151  0.2627
  161DOPC    HB19407   3.002   0.160  16.837  2.9173 -1.0578  0.5444
  161DOPC    C219408   3.015  -0.048  16.809 -0.4259 -0.4039 -0.1673
  161DOPC    HS19409   3.110  -0.029  16.755 -1.2865 -2.4423 -2.5516
  161DOPC   O2119410   2.924  -0.083  16.708 -0.2739 -0.5645 -0.0673
  161DOPC   C2119411   2.904   0.012  16.610  0.7638  0.5348 -0.2772
  161DOPC   O2219412   2.966   0.116  16.596  0.0644  0.8340  0.1803
  161DOPC   C2219413   2.796  -0.034  16.509 -0.3128 -0.6022 -0.2458
  161DOPC   H2R19414   2.705   0.021  16.542  0.3598  2.9172 -3.5385
  161DOPC   H2S19415   2.775  -0.141  16.526  0.7253 -0.8318 -0.3749
  161DOPC    C319416   3.032  -0.174  16.900  0.8767 -0.1729 -0.2066
  161DOPC    HX19417   2.939  -0.188  16.959  1.5394 -2.2852  0.4270
  161DOPC    HY19418   3.101  -0.145  16.982 -1.1371  0.2359  1.4468
  161DOPC   O3119419   3.065  -0.297  16.836  0.3970  0.1336 -0.3738
  161DOPC   C3119420   3.185  -0.311  16.789  0.3455  0.1484 -0.1252
  161DOPC   O3219421   3.276  -0.232  16.809  0.0406  0.5981  0.2252
  161DOPC   C3219422   3.203  -0.445  16.722  0.1986  0.3771  0.3153
  161DOPC   H2X19423   3.174  -0.527  16.792 -1.5545 -0.1853 -0.9818
  161DOPC   H2Y19424   3.125  -0.454  16.644 -0.9127  0.5178  1.3853
  161DOPC   C2319425   2.823  -0.007  16.362  0.3856 -0.6006  0.1099
  161DOPC   H3R19426   2.829   0.102  16.341 -2.1743 -0.3728  0.1624
  161DOPC   H3S19427   2.729  -0.032  16.307 -1.3156  0.3512  2.3918
  161DOPC   C2419428   2.937  -0.076  16.295  0.6462  0.4822 -0.3894
  161DOPC   H4R19429   2.938  -0.182  16.329  0.0061  0.2153 -1.1735
  161DOPC   H4S19430   3.029  -0.028  16.335  0.3515  0.8200 -0.1113
  161DOPC   C2519431   2.947  -0.079  16.142 -0.5049 -0.4887 -0.7976
  161DOPC   H5R19432   3.057  -0.080  16.125  0.0073  0.7636  1.9438
  161DOPC   H5S19433   2.912   0.018  16.101  1.4735  0.1830 -1.0012
  161DOPC   C2619434   2.867  -0.197  16.076 -0.0131 -0.1475  0.1688
  161DOPC   H6R19435   2.762  -0.196  16.113 -0.4719 -0.3765 -1.0790
  161DOPC   H6S19436   2.907  -0.297  16.101  0.8421 -0.3086 -1.6964
  161DOPC   C2719437   2.878  -0.183  15.924  0.5156  0.4726  0.5638
  161DOPC   H7R19438   2.984  -0.195  15.895  0.3791  1.9862 -0.7217
  161DOPC   H7S19439   2.845  -0.081  15.892 -2.2416 -0.2674  0.7276
  161DOPC   C2819440   2.785  -0.284  15.842  0.2611 -0.5737  0.2926
  161DOPC   H8R19441   2.781  -0.246  15.738  0.8853 -0.5968  0.2585
  161DOPC   H8S19442   2.680  -0.263  15.872 -0.7180 -3.6071 -0.6701
  161DOPC   C2919443   2.826  -0.424  15.843  0.6535 -0.5491  0.0774
  161DOPC   H9R19444   2.821  -0.480  15.937 -1.0192  0.5327  0.6753
  161DOPC  C21019445   2.875  -0.498  15.739 -0.1160 -0.0338  0.7184
  161DOPC  H10R19446   2.922  -0.594  15.766 -0.0199  0.0248  0.7607
  161DOPC  C21119447   2.896  -0.440  15.600  0.8976 -0.0327  0.4719
  161DOPC  H11R19448   2.940  -0.339  15.594 -0.0337  0.3049 -2.6430
  161DOPC  H11S19449   2.794  -0.431  15.557  1.5141 -0.0731 -1.0691
  161DOPC  C21219450   2.975  -0.535  15.499  0.7958 -0.2354 -0.5174
  161DOPC  H12R19451   2.916  -0.626  15.476 -0.2610  0.3953 -0.3717
  161DOPC  H12S19452   3.074  -0.560  15.542  1.7943 -0.8814 -3.0026
  161DOPC  C21319453   2.995  -0.463  15.375 -0.2394 -0.4824 -0.5473
  161DOPC  H13R19454   3.076  -0.388  15.387 -1.6655  1.5353 -2.6626
  161DOPC  H13S19455   2.892  -0.427  15.353 -0.1948 -0.8441 -1.3697
  161DOPC  C21419456   3.049  -0.557  15.260 -0.8780  0.2033  0.3002
  161DOPC  H14R19457   2.971  -0.635  15.246 -2.2343  1.6084 -0.1951
  161DOPC  H14S19458   3.144  -0.605  15.294 -2.0155 -2.0205  0.5131
  161DOPC  C21519459   3.094  -0.481  15.130  0.1491  0.2860  0.1353
  161DOPC  H15R19460   3.173  -0.404  15.146  0.1269  1.1585 -3.1719
  161DOPC  H15S19461   3.009  -0.417  15.099 -0.6168 -1.4739 -1.6365
  161DOPC  C21619462   3.117  -0.582  15.010  0.2605 -0.1772 -0.2844
  161DOPC  H16R19463   3.213  -0.630  15.038 -0.7569 -0.4774  3.1559
  161DOPC  H16S19464   3.134  -0.518  14.920  3.5763 -1.5522 -0.7867
  161DOPC  C21719465   3.017  -0.696  14.987 -0.8368  0.0912  0.0884
  161DOPC  H17R19466   2.914  -0.659  15.008 -1.5617 -0.9884 -1.3635
  161DOPC  H17S19467   3.039  -0.782  15.054 -1.5807  0.9083  1.4290
  161DOPC  C21819468   3.014  -0.749  14.844  0.6177  0.6363  0.0125
  161DOPC  H18R19469   2.919  -0.728  14.789 -0.7897 -3.9842  0.2499
  161DOPC  H18S19470   3.025  -0.860  14.850  3.2519  0.7531 -1.3429
  161DOPC  H18T19471   3.109  -0.724  14.793  0.7238 -0.6075 -0.4335
  161DOPC   C3319472   3.345  -0.463  16.672  0.3129  0.2663  0.8599
  161DOPC   H3X19473   3.361  -0.572  16.653  1.5139  0.7764 -1.4168
  161DOPC   H3Y19474   3.414  -0.425  16.749 -1.5860  1.0860  2.2459
  161DOPC   C3419475   3.375  -0.390  16.536  0.2938  0.1208  0.0664
  161DOPC   H4X19476   3.458  -0.447  16.489  0.7043  0.6376  0.1480
  161DOPC   H4Y19477   3.417  -0.288  16.554 -2.2953  1.3204 -0.2404
  161DOPC   C3519478   3.264  -0.406  16.428  0.5465 -0.1439  0.5976
  161DOPC   H5X19479   3.172  -0.344  16.437 -0.2740 -1.1510 -0.5833
  161DOPC   H5Y19480   3.228  -0.510  16.438 -1.9178  0.5031 -0.6721
  161DOPC   C3619481   3.325  -0.385  16.287 -0.1584  1.1232 -0.6425
  161DOPC   H6X19482   3.391  -0.296  16.283  1.4068  0.1016  0.9698
  161DOPC   H6Y19483   3.391  -0.471  16.262 -2.6450 -0.8163 -1.0439
  161DOPC   C3719484   3.212  -0.373  16.180  0.2555 -0.4563  0.0751
  161DOPC   H7X19485   3.188  -0.478  16.151  0.3577 -0.5264  0.2425
  161DOPC   H7Y19486   3.118  -0.340  16.228 -0.4809 -1.8404 -0.3499
  161DOPC   C3819487   3.247  -0.280  16.064 -0.1821 -0.3395 -0.7345
  161DOPC   H8X19488   3.272  -0.187  16.120 -1.6515 -1.5256  2.0740
  161DOPC   H8Y19489   3.155  -0.272  16.003 -0.3075 -2.6324 -0.9437
  161DOPC   C3919490   3.364  -0.325  15.988 -0.3571  0.4581  0.2198
  161DOPC   H9X19491   3.445  -0.359  16.053  0.6806 -1.9834 -2.1694
  161DOPC  C31019492   3.368  -0.368  15.859 -0.8057 -0.0409 -0.5353
  161DOPC  H10X19493   3.462  -0.416  15.826  0.0787 -0.3964  2.2037
  161DOPC  C31119494   3.257  -0.359  15.752  0.0208 -0.2049 -0.1917
  161DOPC  H11X19495   3.178  -0.302  15.804  0.3914 -1.1257  1.4287
  161DOPC  H11Y19496   3.209  -0.458  15.734  0.6541 -0.5526 -0.0009
  161DOPC  C31219497   3.273  -0.294  15.609  0.5909 -0.2107 -0.6136
  161DOPC  H12X19498   3.330  -0.199  15.619 -0.6675  0.5267 -0.1890
  161DOPC  H12Y19499   3.171  -0.271  15.571  0.3749  1.4321  0.8238
  161DOPC  C31319500   3.345  -0.374  15.504  0.2067 -0.0653  0.4055
  161DOPC  H13X19501   3.445  -0.417  15.527  1.3279  0.2442 -3.2732
  161DOPC  H13Y19502   3.279  -0.458  15.474  1.9024 -0.6929 -1.8231
  161DOPC  C31419503   3.377  -0.312  15.367  0.3066 -0.2749  0.1509
  161DOPC  H14X19504   3.278  -0.304  15.317  1.1524  0.9674 -1.4205
  161DOPC  H14Y19505   3.422  -0.211  15.383 -1.4216  1.1685 -3.0797
  161DOPC  C31519506   3.466  -0.397  15.275 -0.0064  0.3443 -0.2298
  161DOPC  H15X19507   3.425  -0.500  15.275  1.1417 -0.1604  1.4936
  161DOPC  H15Y19508   3.570  -0.404  15.314 -0.5498 -0.1451  1.1829
  161DOPC  C31619509   3.470  -0.347  15.129 -0.0474  0.2502 -0.7648
  161DOPC  H16X19510   3.365  -0.336  15.094 -0.6935 -1.9865  0.2727
  161DOPC  H16Y19511   3.529  -0.253  15.136 -2.3426  1.7985 -1.1285
  161DOPC  C31719512   3.547  -0.437  15.042  0.1153 -0.1554  0.8996
  161DOPC  H17X19513   3.653  -0.462  15.060 -0.3423 -1.3769  2.0861
  161DOPC  H17Y19514   3.493  -0.534  15.035 -2.5406  1.2927 -0.4809
  161DOPC  C31819515   3.536  -0.388  14.891  0.9123 -0.2677 -0.2585
  161DOPC  H18X19516   3.429  -0.371  14.867  1.2548  0.9616 -1.0639
  161DOPC  H18Y19517   3.587  -0.289  14.878  0.5108  0.2153  1.6224
  161DOPC  H18Z19518   3.589  -0.453  14.818 -0.8470 -0.6628 -1.2260
  162DOPC     N19519   0.612   6.051  17.164 -0.1636  0.1930  0.1874
  162DOPC   C1219520   0.709   6.024  17.052  0.0437 -0.1759 -0.3226
  162DOPC  H12A19521   0.686   6.084  16.965  0.4224 -0.3695 -0.5627
  162DOPC  H12B19522   0.707   5.918  17.034  1.4509 -0.4579  0.9566
  162DOPC   C1319523   0.465   6.033  17.120 -0.0969 -0.4020  0.1671
  162DOPC  H13A19524   0.444   6.121  17.060  0.3992  1.1639  2.1545
  162DOPC  H13B19525   0.449   5.941  17.066  1.6832 -0.5128 -0.2416
  162DOPC  H13C19526   0.397   6.043  17.203  0.5186  0.4497  0.5864
  162DOPC   C1419527   0.621   6.190  17.214 -0.0801 -0.2265  0.2169
  162DOPC  H14A19528   0.707   6.206  17.277  1.9245 -2.8993 -1.5988
  162DOPC  H14B19529   0.634   6.250  17.125  2.4023 -1.3575 -0.2807
  162DOPC  H14C19530   0.533   6.221  17.268  0.7931  0.6506  1.1821
  162DOPC   C1519531   0.642   5.956  17.271 -0.2516 -0.4084  0.2594
  162DOPC  H15A19532   0.589   5.991  17.358 -1.1575 -1.5483  0.1906
  162DOPC  H15B19533   0.747   5.948  17.294 -0.2277  0.1053  0.3315
  162DOPC  H15C19534   0.595   5.860  17.253 -0.6515 -0.5767  2.0372
  162DOPC   C1119535   0.862   6.048  17.089 -1.2091 -0.2427 -0.1692
  162DOPC  H11A19536   0.900   6.074  16.988  0.6248 -0.4579  0.4422
  162DOPC  H11B19537   0.882   6.135  17.154  1.5133 -1.3196  0.5739
  162DOPC     P19538   0.991   5.825  17.060  0.7069  0.0317 -0.3325
  162DOPC   O1319539   0.872   5.763  16.990 -0.1278 -0.7571 -0.0901
  162DOPC   O1419540   1.074   5.738  17.143 -0.9369  0.4683  0.3376
  162DOPC   O1219541   0.933   5.939  17.147 -0.8794  0.0224 -0.6367
  162DOPC   O1119542   1.079   5.898  16.955 -0.2707 -0.5556 -0.2337
  162DOPC    C119543   1.148   5.823  16.855 -0.4735  0.8353  0.8438
  162DOPC    HA19544   1.077   5.761  16.796  1.5310  0.9472 -1.8653
  162DOPC    HB19545   1.230   5.759  16.895  0.1028  0.3183 -1.0568
  162DOPC    C219546   1.215   5.905  16.743  0.0317 -0.6741  0.2814
  162DOPC    HS19547   1.309   5.948  16.784  0.1344  2.2642 -2.5879
  162DOPC   O2119548   1.121   6.012  16.714 -0.1429  0.4789  0.2447
  162DOPC   C2119549   1.163   6.131  16.711 -0.5549 -0.6862 -0.5669
  162DOPC   O2219550   1.268   6.179  16.751  0.7245  0.2389 -0.0001
  162DOPC   C2219551   1.070   6.226  16.637  0.0584 -0.5497  0.3921
  162DOPC   H2R19552   1.117   6.325  16.648  0.4972 -0.5228 -1.4022
  162DOPC   H2S19553   0.980   6.228  16.702 -0.1268  1.2025  0.1161
  162DOPC    C319554   1.260   5.817  16.627 -0.0847  0.0917  0.1988
  162DOPC    HX19555   1.173   5.760  16.588  0.0322  0.0930 -0.0652
  162DOPC    HY19556   1.329   5.739  16.665 -1.3972 -2.3437 -2.1149
  162DOPC   O3119557   1.311   5.900  16.513  0.1277 -0.3461 -0.6938
  162DOPC   C3119558   1.423   5.862  16.459 -0.1288  0.3802  0.5537
  162DOPC   O3219559   1.497   5.767  16.501 -0.0365 -0.2819  0.1594
  162DOPC   C3219560   1.484   5.970  16.376  0.3477  0.6704 -0.7418
  162DOPC   H2X19561   1.436   6.070  16.391  1.8596  1.0093  2.7876
  162DOPC   H2Y19562   1.586   5.981  16.417  0.4462  1.9472 -1.2658
  162DOPC   C2319563   1.024   6.180  16.496  0.4690  0.1247  0.1372
  162DOPC   H3R19564   0.944   6.250  16.463 -0.5930 -0.5578  1.1870
  162DOPC   H3S19565   0.979   6.080  16.477  2.2842 -0.3423 -2.2226
  162DOPC   C2419566   1.148   6.190  16.398  0.4494  0.0222 -0.6839
  162DOPC   H4R19567   1.217   6.112  16.437 -0.9022 -0.5899  0.5645
  162DOPC   H4S19568   1.202   6.287  16.391  0.2786  0.1361 -0.4223
  162DOPC   C2519569   1.108   6.138  16.257 -0.4317 -0.1345 -0.2167
  162DOPC   H5R19570   1.060   6.040  16.273  1.5052 -0.7828  2.1885
  162DOPC   H5S19571   1.200   6.130  16.195  0.6869  0.0840  1.3717
  162DOPC   C2619572   1.025   6.247  16.182  0.5930 -0.1231  0.2322
  162DOPC   H6R19573   1.098   6.325  16.154  1.0530 -0.1355  1.3136
  162DOPC   H6S19574   0.952   6.291  16.253 -0.9769 -2.1780 -0.0150
  162DOPC   C2719575   0.948   6.191  16.065 -0.1402 -0.0757 -0.0979
  162DOPC   H7R19576   0.892   6.278  16.022 -0.8622 -0.3948  0.1848
  162DOPC   H7S19577   0.871   6.117  16.093 -0.2589 -1.0738 -2.7969
  162DOPC   C2819578   1.044   6.124  15.962 -0.1217  0.9617 -0.7358
  162DOPC   H8R19579   0.971   6.094  15.883 -1.5546  2.3604  0.0012
  162DOPC   H8S19580   1.084   6.029  16.003  1.4833  1.6766 -0.5923
  162DOPC   C2919581   1.155   6.208  15.903  0.7079  0.0943 -0.6470
  162DOPC   H9R19582   1.119   6.305  15.866 -0.9579 -1.1683 -2.5873
  162DOPC  C21019583   1.273   6.171  15.859 -0.3302  0.0143  0.7637
  162DOPC  H10R19584   1.347   6.248  15.834 -3.1526  2.7721  0.3013
  162DOPC  C21119585   1.334   6.032  15.868  0.1314  0.2724 -0.5260
  162DOPC  H11R19586   1.261   5.957  15.906  2.1998 -2.3691 -1.3991
  162DOPC  H11S19587   1.418   6.020  15.939  0.9864  0.4628 -1.4902
  162DOPC  C21219588   1.373   5.973  15.733 -0.2334 -0.0448 -0.2623
  162DOPC  H12R19589   1.452   5.896  15.749 -0.0111  0.7347  3.1176
  162DOPC  H12S19590   1.413   6.057  15.673 -1.6536  0.2765 -0.7707
  162DOPC  C21319591   1.248   5.925  15.656  0.4154 -0.0002  0.3794
  162DOPC  H13R19592   1.255   5.957  15.550 -0.1396 -0.3335  0.2383
  162DOPC  H13S19593   1.161   5.973  15.705  0.0965  0.7520 -0.9004
  162DOPC  C21419594   1.239   5.775  15.660  0.7861  0.0637  0.6516
  162DOPC  H14R19595   1.232   5.725  15.759 -3.1612  1.6207  1.3524
  162DOPC  H14S19596   1.326   5.726  15.611 -0.2049 -1.0911 -0.0130
  162DOPC  C21519597   1.126   5.732  15.569 -0.6932  0.5536 -0.7229
  162DOPC  H15R19598   1.131   5.788  15.473  0.5352 -0.4899 -1.3013
  162DOPC  H15S19599   1.034   5.770  15.618  0.8210  2.7274  0.6049
  162DOPC  C21619600   1.115   5.581  15.562 -0.1423 -0.0726  0.0418
  162DOPC  H16R19601   1.111   5.544  15.667 -1.8501  1.0569  0.4280
  162DOPC  H16S19602   1.211   5.543  15.523  0.5952  1.8014 -0.0892
  162DOPC  C21719603   0.997   5.526  15.479  0.2161  0.3250 -0.6148
  162DOPC  H17R19604   0.998   5.417  15.498  0.2991  0.4756  0.2666
  162DOPC  H17S19605   1.031   5.554  15.377 -0.0978 -0.5718 -0.9734
  162DOPC  C21819606   0.865   5.580  15.513  0.0236 -0.0010  0.8949
  162DOPC  H18R19607   0.839   5.553  15.618 -0.4456 -1.4840  0.4165
  162DOPC  H18S19608   0.794   5.535  15.441  1.8188 -0.2843 -0.7580
  162DOPC  H18T19609   0.873   5.691  15.504  1.4745  0.0865  2.6301
  162DOPC   C3319610   1.493   5.937  16.226  0.4057 -0.6261 -0.0877
  162DOPC   H3X19611   1.538   6.027  16.177 -1.3721  0.5980  0.4181
  162DOPC   H3Y19612   1.390   5.936  16.183  1.9334 -0.2236 -4.2116
  162DOPC   C3419613   1.546   5.805  16.181 -0.4267  0.0786  0.0647
  162DOPC   H4X19614   1.558   5.799  16.071 -2.8571 -0.5367 -0.2150
  162DOPC   H4Y19615   1.466   5.733  16.205  0.0331 -1.0581 -1.6724
  162DOPC   C3519616   1.685   5.758  16.241  1.3079 -0.0647 -0.0133
  162DOPC   H5X19617   1.691   5.801  16.343 -2.2420 -0.2395  0.4231
  162DOPC   H5Y19618   1.762   5.796  16.170  0.0137  1.0806 -0.8712
  162DOPC   C3619619   1.696   5.605  16.243 -0.6021  0.7431 -0.1616
  162DOPC   H6X19620   1.633   5.562  16.324 -2.3631 -0.8480 -2.2215
  162DOPC   H6Y19621   1.664   5.560  16.146 -1.3281  2.3027 -0.6766
  162DOPC   C3719622   1.844   5.564  16.280 -0.4478  0.0116 -0.3355
  162DOPC   H7X19623   1.849   5.590  16.388  0.3276  0.7637 -0.5408
  162DOPC   H7Y19624   1.853   5.454  16.272  0.5192  0.1576 -1.5256
  162DOPC   C3819625   1.962   5.638  16.208 -0.4261  0.0395  0.0888
  162DOPC   H8X19626   2.061   5.605  16.245  0.0842 -0.8692 -1.9575
  162DOPC   H8Y19627   1.957   5.749  16.220  0.8861 -0.1300  2.9077
  162DOPC   C3919628   1.961   5.592  16.064 -0.5677  0.4915  0.5827
  162DOPC   H9X19629   1.878   5.644  16.013 -0.1900  2.6396  2.0148
  162DOPC  C31019630   2.048   5.529  15.983  0.0064 -0.5654  0.3083
  162DOPC  H10X19631   2.004   5.507  15.885  0.5870 -0.0038 -0.0894
  162DOPC  C31119632   2.178   5.469  16.025  0.3269  0.1575 -0.4375
  162DOPC  H11X19633   2.164   5.444  16.132  0.2947  2.3540  0.1117
  162DOPC  H11Y19634   2.253   5.550  16.024  1.2715 -0.6665  0.8821
  162DOPC  C31219635   2.222   5.345  15.938 -0.3893 -0.6394  0.0617
  162DOPC  H12X19636   2.137   5.274  15.943 -1.6342  0.8568  1.7194
  162DOPC  H12Y19637   2.311   5.304  15.990 -1.2736 -0.1500  2.0314
  162DOPC  C31319638   2.255   5.386  15.795 -0.1120 -0.4858 -0.0218
  162DOPC  H13X19639   2.168   5.449  15.768  0.0843 -0.0891  0.2580
  162DOPC  H13Y19640   2.349   5.444  15.790  0.2557 -0.6496  3.1556
  162DOPC  C31419641   2.279   5.260  15.701  0.6520  0.3300  0.0949
  162DOPC  H14X19642   2.350   5.190  15.749 -0.0492 -0.6496 -0.2678
  162DOPC  H14Y19643   2.188   5.197  15.696  1.1167 -0.3159 -0.3493
  162DOPC  C31519644   2.315   5.298  15.559 -0.4926  0.1706 -0.2518
  162DOPC  H15X19645   2.410   5.355  15.550  1.2538 -2.8434 -2.8715
  162DOPC  H15Y19646   2.234   5.364  15.523 -1.6159 -0.4115  1.0859
  162DOPC  C31619647   2.330   5.177  15.465  0.7070 -0.0037  0.2419
  162DOPC  H16X19648   2.419   5.118  15.496  0.7279 -0.4290 -0.5920
  162DOPC  H16Y19649   2.237   5.118  15.478 -1.1658  2.5703 -0.6664
  162DOPC  C31719650   2.337   5.230  15.321  0.2814  0.4623 -0.5808
  162DOPC  H17X19651   2.258   5.302  15.293  1.6275  1.7400 -1.2350
  162DOPC  H17Y19652   2.425   5.295  15.305  0.5707  0.2813  0.2580
  162DOPC  C31819653   2.335   5.110  15.227 -0.1252  0.0660 -0.4436
  162DOPC  H18X19654   2.313   5.143  15.124 -0.7615 -1.7519 -0.9362
  162DOPC  H18Y19655   2.435   5.061  15.222  0.3235  1.0691 -1.4705
  162DOPC  H18Z19656   2.257   5.034  15.253 -0.1709  0.6316  1.1955
  163DOPC     N19657   7.519   3.642  16.814  0.8722 -0.2731  0.5526
  163DOPC   C1219658   7.606   3.519  16.811  0.1054  1.0144  1.0793
  163DOPC  H12A19659   7.595   3.462  16.903 -0.3236 -2.1487 -0.7731
  163DOPC  H12B19660   7.710   3.548  16.804  0.3718 -0.0073  0.4821
  163DOPC   C1319661   7.377   3.606  16.776 -0.3241  0.1854 -0.3170
  163DOPC  H13A19662   7.329   3.553  16.857 -0.6191  0.8109 -0.0705
  163DOPC  H13B19663   7.312   3.690  16.756 -0.4186  0.0773 -0.4652
  163DOPC  H13C19664   7.382   3.541  16.690 -1.0629  0.8792 -0.8920
  163DOPC   C1419665   7.564   3.751  16.721 -0.3533 -0.7728 -0.1336
  163DOPC  H14A19666   7.527   3.850  16.743  2.4847  0.3133  0.2041
  163DOPC  H14B19667   7.668   3.779  16.726 -0.6473  0.9201 -2.3421
  163DOPC  H14C19668   7.538   3.722  16.621  0.0540 -0.7843 -0.2365
  163DOPC   C1519669   7.520   3.713  16.947 -1.3032  0.6360 -0.2266
  163DOPC  H15A19670   7.454   3.798  16.945 -0.6372  1.4282  3.7390
  163DOPC  H15B19671   7.615   3.751  16.982 -1.1699 -2.7556  3.8714
  163DOPC  H15C19672   7.476   3.652  17.025 -0.6989 -1.6271 -1.5517
  163DOPC   C1119673   7.584   3.413  16.696  0.0082 -0.3218  0.1842
  163DOPC  H11A19674   7.588   3.475  16.603  1.1175  0.9322  1.0401
  163DOPC  H11B19675   7.675   3.350  16.688  0.5299  0.3669  0.5485
  163DOPC     P19676   7.458   3.233  16.843 -0.2424  0.4740  0.0592
  163DOPC   O1319677   7.343   3.274  16.930 -0.6151  0.0241 -0.3875
  163DOPC   O1419678   7.578   3.197  16.915  0.0405 -0.3502  0.3317
  163DOPC   O1219679   7.469   3.332  16.721  0.1976 -0.4861  0.6312
  163DOPC   O1119680   7.418   3.097  16.767 -0.2037 -0.3013 -0.1850
  163DOPC    C119681   7.298   3.072  16.702  1.2504 -0.5152 -0.4237
  163DOPC    HA19682   7.221   3.151  16.713 -0.2246 -1.3614 -3.5899
  163DOPC    HB19683   7.253   2.979  16.742  1.4558 -0.9099 -1.0888
  163DOPC    C219684   7.307   3.057  16.548  0.5083 -0.2704 -0.4937
  163DOPC    HS19685   7.212   3.019  16.504 -0.2391  2.6502 -1.6579
  163DOPC   O2119686   7.419   2.963  16.528  0.0917 -0.3119  0.6448
  163DOPC   C2119687   7.384   2.835  16.507  0.5018 -1.4020 -0.2696
  163DOPC   O2219688   7.266   2.803  16.508 -0.3566  0.0666  0.1978
  163DOPC   C2219689   7.503   2.740  16.479 -0.1378 -0.0577 -0.1731
  163DOPC   H2R19690   7.566   2.730  16.569 -0.1729  2.7654  0.2488
  163DOPC   H2S19691   7.564   2.781  16.395  2.4870 -2.5600  0.3713
  163DOPC    C319692   7.319   3.190  16.467 -0.1875  0.3706  0.1127
  163DOPC    HX19693   7.419   3.229  16.495 -0.4185  0.4786  0.8098
  163DOPC    HY19694   7.238   3.254  16.508 -1.2595 -0.7482 -0.1911
  163DOPC   O3119695   7.294   3.161  16.324  0.6368  0.5015 -0.0939
  163DOPC   C3119696   7.391   3.105  16.255  0.3317  0.4581  0.3663
  163DOPC   O3219697   7.509   3.112  16.288  0.1055 -0.4102  0.3796
  163DOPC   C3219698   7.325   3.037  16.137  0.1844 -0.8266 -0.5185
  163DOPC   H2X19699   7.231   2.985  16.166 -0.4545  0.4477 -0.2009
  163DOPC   H2Y19700   7.291   3.118  16.068  1.7928  1.9883  1.7558
  163DOPC   C2319701   7.462   2.596  16.436  0.1792 -0.1521  0.1799
  163DOPC   H3R19702   7.494   2.579  16.331 -0.9197  0.3266 -0.2482
  163DOPC   H3S19703   7.352   2.582  16.433  0.3054 -1.1309 -0.3658
  163DOPC   C2419704   7.522   2.485  16.519 -0.5882 -0.4305 -0.2973
  163DOPC   H4R19705   7.491   2.493  16.625 -1.2554  0.5860 -0.5501
  163DOPC   H4S19706   7.632   2.498  16.512 -0.7770  0.4035 -2.5916
  163DOPC   C2519707   7.484   2.343  16.463  0.7334 -0.5539 -0.3226
  163DOPC   H5R19708   7.394   2.351  16.398  1.2849  1.2465 -0.9514
  163DOPC   H5S19709   7.468   2.268  16.543 -0.6987 -0.8863 -0.8892
  163DOPC   C2619710   7.594   2.292  16.363  0.8632 -0.1149 -0.1279
  163DOPC   H6R19711   7.674   2.245  16.423 -0.6730 -0.9320  1.3926
  163DOPC   H6S19712   7.631   2.387  16.318  1.0814  1.6204  3.3893
  163DOPC   C2719713   7.536   2.208  16.252  0.1669  0.7939  0.6433
  163DOPC   H7R19714   7.455   2.143  16.292  0.4991  0.4285  0.7259
  163DOPC   H7S19715   7.618   2.145  16.210  2.0837  2.1260  2.1987
  163DOPC   C2819716   7.481   2.292  16.138 -0.1636  0.2092  0.7740
  163DOPC   H8R19717   7.563   2.355  16.097 -1.1132  1.0405  0.1124
  163DOPC   H8S19718   7.402   2.361  16.172 -2.6453 -2.2924  0.4581
  163DOPC   C2919719   7.413   2.208  16.032 -0.2835  0.4764 -0.1979
  163DOPC   H9R19720   7.363   2.116  16.066  1.2088 -0.5704 -0.7417
  163DOPC  C21019721   7.419   2.220  15.900  0.7097 -0.4208  0.9138
  163DOPC  H10R19722   7.364   2.152  15.834  0.9817  1.2295 -1.1289
  163DOPC  C21119723   7.489   2.331  15.815  0.0512  1.0783 -0.1524
  163DOPC  H11R19724   7.593   2.298  15.797 -0.6014 -1.8530  0.7718
  163DOPC  H11S19725   7.503   2.416  15.885 -0.9498 -0.9476  2.7397
  163DOPC  C21219726   7.417   2.371  15.688  0.2515  0.2821 -0.3575
  163DOPC  H12R19727   7.308   2.391  15.695  0.4126  3.0755 -3.2946
  163DOPC  H12S19728   7.425   2.283  15.621 -2.0702 -0.7635  0.6317
  163DOPC  C21319729   7.478   2.494  15.624 -0.7414 -0.0695  0.6106
  163DOPC  H13R19730   7.580   2.473  15.588 -1.0101  0.1025 -0.2710
  163DOPC  H13S19731   7.481   2.583  15.691  1.1980  0.8927 -0.6837
  163DOPC  C21419732   7.401   2.530  15.500  0.3610 -0.0779  0.5366
  163DOPC  H14R19733   7.404   2.443  15.431  0.6767  1.5908 -1.6709
  163DOPC  H14S19734   7.447   2.617  15.449 -2.1920  0.5491 -0.8744
  163DOPC  C21519735   7.250   2.564  15.514  0.3716 -0.7975  0.3431
  163DOPC  H15R19736   7.245   2.627  15.605 -1.5526 -1.0560  0.4455
  163DOPC  H15S19737   7.187   2.475  15.535  0.7584 -1.0255  0.5569
  163DOPC  C21619738   7.195   2.645  15.393  0.3442 -0.3761  0.4740
  163DOPC  H16R19739   7.192   2.581  15.302 -2.3433 -1.6751  1.3787
  163DOPC  H16S19740   7.261   2.734  15.379 -0.0788  0.0418  1.0814
  163DOPC  C21719741   7.047   2.685  15.415 -0.1226  0.6406  0.2433
  163DOPC  H17R19742   7.050   2.733  15.515  0.1825 -1.4064  1.2697
  163DOPC  H17S19743   6.986   2.593  15.427  0.3295  0.4707  1.3243
  163DOPC  C21819744   6.984   2.774  15.307 -0.2148  0.5044  0.0933
  163DOPC  H18R19745   6.874   2.776  15.326 -0.4158 -0.2517 -0.9014
  163DOPC  H18S19746   6.988   2.727  15.207 -0.6881  0.3973  0.1206
  163DOPC  H18T19747   7.022   2.878  15.314 -0.0165  0.3795  0.9781
  163DOPC   C3319748   7.424   2.950  16.052 -0.6820  0.1209  0.7534
  163DOPC   H3X19749   7.446   2.855  16.106  1.6951  0.0315 -0.2723
  163DOPC   H3Y19750   7.515   3.009  16.031  0.6933 -1.6646  1.4257
  163DOPC   C3419751   7.363   2.913  15.919  0.4545  0.3059 -0.0345
  163DOPC   H4X19752   7.350   3.009  15.864  1.6871  0.1525 -0.6434
  163DOPC   H4Y19753   7.266   2.860  15.930  0.6826 -0.2988 -0.8261
  163DOPC   C3519754   7.460   2.833  15.830 -0.3227 -0.1006  0.4269
  163DOPC   H5X19755   7.411   2.800  15.736 -1.1083 -1.0002  1.1249
  163DOPC   H5Y19756   7.500   2.744  15.884  0.8714 -1.2358 -2.1625
  163DOPC   C3619757   7.584   2.911  15.783  0.2196  0.0616  0.3689
  163DOPC   H6X19758   7.645   2.945  15.869 -0.5182 -2.0424  1.8023
  163DOPC   H6Y19759   7.649   2.839  15.729  1.3317  0.8494  0.6316
  163DOPC   C3719760   7.554   3.018  15.683  0.0308 -0.6248  0.3440
  163DOPC   H7X19761   7.483   2.986  15.603 -1.8632 -2.1757  2.5203
  163DOPC   H7Y19762   7.486   3.093  15.728 -3.4781 -2.8404 -0.8489
  163DOPC   C3819763   7.687   3.074  15.610  0.5742  0.6092 -0.3163
  163DOPC   H8X19764   7.715   2.989  15.545 -1.6380  0.2404 -0.8560
  163DOPC   H8Y19765   7.759   3.091  15.693 -0.9259 -0.4867  1.3046
  163DOPC   C3919766   7.665   3.194  15.518  0.0201 -0.9009  0.0251
  163DOPC   H9X19767   7.621   3.175  15.418  0.3490  1.8074 -0.7011
  163DOPC  C31019768   7.682   3.328  15.556  0.4830 -0.1150  0.5330
  163DOPC  H10X19769   7.656   3.405  15.482  0.1614  0.5339  1.2988
  163DOPC  C31119770   7.716   3.379  15.693  0.5010  0.0714  0.2092
  163DOPC  H11X19771   7.802   3.450  15.689  2.0597 -1.7857 -2.3554
  163DOPC  H11Y19772   7.742   3.296  15.763 -0.4940  0.0334  0.5532
  163DOPC  C31219773   7.605   3.460  15.753  0.3126 -0.0356  0.1519
  163DOPC  H12X19774   7.575   3.542  15.684 -1.8329  1.2689  2.4850
  163DOPC  H12Y19775   7.656   3.512  15.837  2.2786 -1.1564 -0.2975
  163DOPC  C31319776   7.473   3.377  15.789 -0.7197  0.0978 -0.0442
  163DOPC  H13X19777   7.443   3.336  15.690 -2.1273  0.6163  0.1401
  163DOPC  H13Y19778   7.498   3.296  15.860 -1.0526  0.5927  0.6436
  163DOPC  C31419779   7.360   3.471  15.847 -0.2867  0.3154 -0.8446
  163DOPC  H14X19780   7.325   3.560  15.789  0.4894  2.4959  1.8195
  163DOPC  H14Y19781   7.266   3.412  15.847 -0.1528  0.0777  0.6109
  163DOPC  C31519782   7.390   3.535  15.981 -0.6881 -0.0704  0.5595
  163DOPC  H15X19783   7.323   3.620  16.007 -0.7819  0.2752 -0.7490
  163DOPC  H15Y19784   7.491   3.577  15.963 -0.2941 -1.5270 -0.8254
  163DOPC  C31619785   7.409   3.439  16.104 -0.0616 -0.2269  1.0656
  163DOPC  H16X19786   7.307   3.402  16.125 -0.5302  0.4483  0.0715
  163DOPC  H16Y19787   7.469   3.351  16.075 -0.1193  0.4368 -1.3391
  163DOPC  C31719788   7.476   3.510  16.218  0.4606  0.1460 -0.2253
  163DOPC  H17X19789   7.481   3.441  16.305  0.4264  1.8280  1.1723
  163DOPC  H17Y19790   7.578   3.548  16.198  0.7022 -0.3632  0.0245
  163DOPC  C31819791   7.401   3.627  16.275  0.1386 -0.2097  0.4104
  163DOPC  H18X19792   7.448   3.669  16.366 -0.0001 -0.4271  0.5830
  163DOPC  H18Y19793   7.403   3.710  16.201  1.4062  0.5957  1.2966
  163DOPC  H18Z19794   7.297   3.597  16.299  0.2635 -1.2263 -0.2405
  164DOPC     N19795   0.872   2.017  17.219 -0.0903 -0.6768  0.4603
  164DOPC   C1219796   0.927   2.003  17.069 -0.1372  0.6997  0.3401
  164DOPC  H12A19797   1.016   2.060  17.050  1.6074 -2.4665 -1.9432
  164DOPC  H12B19798   0.853   2.047  17.003 -0.6453  0.8795  1.0182
  164DOPC   C1319799   0.965   1.964  17.314  0.1049  0.3978 -0.0093
  164DOPC  H13A19800   0.980   1.860  17.291 -0.4555  0.3885 -0.3544
  164DOPC  H13B19801   1.060   2.014  17.311  0.6537 -0.6555 -0.4265
  164DOPC  H13C19802   0.925   1.975  17.414  3.3699  1.8214  1.2798
  164DOPC   C1419803   0.734   1.958  17.233  0.0753 -0.5049  0.2150
  164DOPC  H14A19804   0.691   1.963  17.332  1.3112 -1.1793  0.8133
  164DOPC  H14B19805   0.671   2.000  17.156  0.2488  2.3737  1.5124
  164DOPC  H14C19806   0.752   1.856  17.200  0.2425 -1.2563  2.4581
  164DOPC   C1519807   0.867   2.160  17.249 -0.6869 -1.1983 -0.1821
  164DOPC  H15A19808   0.860   2.174  17.356 -1.3234  0.5071 -0.4227
  164DOPC  H15B19809   0.792   2.208  17.188 -0.0154 -1.7403 -1.4700
  164DOPC  H15C19810   0.966   2.199  17.229 -0.8559 -0.9677 -0.5714
  164DOPC   C1119811   0.974   1.863  17.029  0.1274  0.6227 -0.3258
  164DOPC  H11A19812   1.009   1.871  16.924  1.0706 -2.3695 -0.3286
  164DOPC  H11B19813   1.063   1.844  17.094  0.5744  0.3655 -1.0028
  164DOPC     P19814   0.760   1.733  16.947  0.0305  0.3878  0.2112
  164DOPC   O1319815   0.700   1.868  16.916 -0.4357  0.2921  0.6092
  164DOPC   O1419816   0.674   1.628  17.005  0.0716 -0.4758 -0.6823
  164DOPC   O1219817   0.884   1.752  17.043 -0.6772 -0.2978 -0.6440
  164DOPC   O1119818   0.823   1.676  16.816 -0.2363 -0.3195  0.5814
  164DOPC    C119819   0.918   1.564  16.812  0.9520 -0.4000 -0.1043
  164DOPC    HA19820   0.926   1.510  16.909  1.3851  1.3700  0.8955
  164DOPC    HB19821   1.017   1.604  16.780  0.8650  0.1713  0.3361
  164DOPC    C219822   0.868   1.460  16.708  0.2676  0.2836  0.1939
  164DOPC    HS19823   0.921   1.363  16.707 -3.0972 -1.6907  0.2715
  164DOPC   O2119824   0.871   1.517  16.573 -0.5984 -0.3273  0.2355
  164DOPC   C2119825   0.987   1.511  16.515 -0.1039 -0.6044  0.1580
  164DOPC   O2219826   1.077   1.437  16.546 -0.1485  0.1174  0.0396
  164DOPC   C2219827   0.992   1.599  16.394  0.5777 -0.3170  0.2331
  164DOPC   H2R19828   1.062   1.677  16.430 -1.7132  0.5746  3.2080
  164DOPC   H2S19829   0.888   1.637  16.386 -0.0684 -1.4890  2.3434
  164DOPC    C319830   0.729   1.402  16.725  0.4419  0.3826  0.6844
  164DOPC    HX19831   0.647   1.478  16.727 -0.1133 -0.2262  1.7169
  164DOPC    HY19832   0.725   1.346  16.820  0.2138 -0.6626  0.0709
  164DOPC   O3119833   0.695   1.321  16.610  0.1077 -0.0617  0.5900
  164DOPC   C3119834   0.665   1.198  16.621 -0.6831  0.2268  0.0145
  164DOPC   O3219835   0.645   1.131  16.723 -0.3260 -0.4276 -0.4530
  164DOPC   C3219836   0.628   1.148  16.479  0.0197 -0.5564  0.3524
  164DOPC   H2X19837   0.555   1.220  16.436  0.0265  0.0241  1.2751
  164DOPC   H2Y19838   0.724   1.155  16.424  0.3174  0.3194  0.9605
  164DOPC   C2319839   1.056   1.545  16.263  0.2179  0.6992  0.4045
  164DOPC   H3R19840   1.146   1.491  16.299  0.6949  0.4001 -1.1870
  164DOPC   H3S19841   1.077   1.632  16.196  1.0518  0.4174  0.2910
  164DOPC   C2419842   0.970   1.445  16.190 -0.2920  0.3825  0.0885
  164DOPC   H4R19843   0.948   1.367  16.266  0.9160 -0.4328 -0.3692
  164DOPC   H4S19844   1.022   1.388  16.111 -1.7851 -0.2340 -0.4817
  164DOPC   C2519845   0.850   1.510  16.127  0.9867  0.4118 -0.5118
  164DOPC   H5R19846   0.885   1.590  16.058  2.1161 -0.9859 -1.6218
  164DOPC   H5S19847   0.778   1.548  16.202 -0.0758  1.8856 -2.1894
  164DOPC   C2619848   0.760   1.417  16.038  0.3759  0.6270 -0.4433
  164DOPC   H6R19849   0.826   1.373  15.960  1.1852 -0.7596  0.9624
  164DOPC   H6S19850   0.684   1.487  15.997 -0.1438  0.7765  0.7489
  164DOPC   C2719851   0.688   1.301  16.109  0.0322  0.7620  0.2936
  164DOPC   H7R19852   0.630   1.339  16.195 -0.2330 -0.0459  0.4804
  164DOPC   H7S19853   0.756   1.228  16.159 -0.7239  0.4026  0.8059
  164DOPC   C2819854   0.592   1.225  16.022  0.2125  0.5487 -0.0722
  164DOPC   H8R19855   0.515   1.295  15.982  0.6593  0.8580 -0.4000
  164DOPC   H8S19856   0.546   1.152  16.092  0.1998 -0.8578 -1.4877
  164DOPC   C2919857   0.659   1.137  15.919  0.7042  0.0652 -0.3837
  164DOPC   H9R19858   0.707   1.052  15.970  1.4136  0.8519  0.2804
  164DOPC  C21019859   0.665   1.155  15.787 -0.0270  0.6860 -0.1062
  164DOPC  H10R19860   0.719   1.086  15.721  1.0226  3.1604 -2.0197
  164DOPC  C21119861   0.611   1.263  15.700  0.0596 -0.8154 -0.2922
  164DOPC  H11R19862   0.704   1.312  15.664 -1.2556  1.6902 -0.4843
  164DOPC  H11S19863   0.567   1.345  15.762 -0.4210  0.3628 -2.1130
  164DOPC  C21219864   0.503   1.217  15.602  0.4872 -0.6847 -0.6445
  164DOPC  H12R19865   0.426   1.176  15.671  1.4641 -0.4701  0.6056
  164DOPC  H12S19866   0.540   1.127  15.549  0.0136 -1.8681  0.9523
  164DOPC  C21319867   0.446   1.328  15.508 -0.1461  0.0310  0.0185
  164DOPC  H13R19868   0.530   1.383  15.460 -1.5933  1.7447 -0.7004
  164DOPC  H13S19869   0.403   1.403  15.578  0.1145 -0.8475  1.1530
  164DOPC  C21419870   0.357   1.262  15.396  0.9433  0.0352  0.5824
  164DOPC  H14R19871   0.428   1.193  15.345 -0.1914 -0.8904  0.2123
  164DOPC  H14S19872   0.323   1.346  15.332 -1.3184 -1.4436 -0.2607
  164DOPC  C21519873   0.231   1.179  15.446 -0.4414  0.1041 -0.5470
  164DOPC  H15R19874   0.279   1.097  15.504 -0.4453  0.2878 -0.2827
  164DOPC  H15S19875   0.167   1.139  15.364  0.4219 -2.0515 -0.2444
  164DOPC  C21619876   0.148   1.272  15.539 -0.0969 -0.2349 -0.2200
  164DOPC  H16R19877   0.113   1.364  15.487 -0.6636  1.1518  2.4564
  164DOPC  H16S19878   0.214   1.300  15.623  0.7979  2.1349 -1.6270
  164DOPC  C21719879   0.024   1.212  15.608  0.2538 -0.4483  0.0050
  164DOPC  H17R19880  -0.051   1.192  15.529 -1.8361  0.1597  1.7513
  164DOPC  H17S19881  -0.019   1.280  15.685  2.7840 -0.2317  1.3351
  164DOPC  C21819882   0.065   1.084  15.685  0.4752 -0.0070 -0.1858
  164DOPC  H18R19883   0.113   1.016  15.611 -0.0210 -0.9768  0.3559
  164DOPC  H18S19884  -0.019   1.035  15.739  2.5735 -1.3020  2.1806
  164DOPC  H18T19885   0.137   1.120  15.762  2.4065 -1.5229 -1.1951
  164DOPC   C3319886   0.564   1.007  16.481  0.0655 -0.3439 -0.0177
  164DOPC   H3X19887   0.460   1.007  16.520  0.0852  3.2598  0.3551
  164DOPC   H3Y19888   0.616   0.932  16.545 -1.3735 -2.6026 -1.3852
  164DOPC   C3419889   0.554   0.937  16.340 -0.6917 -0.5985  0.2039
  164DOPC   H4X19890   0.655   0.934  16.294 -0.2024 -0.0704  1.2014
  164DOPC   H4Y19891   0.489   1.002  16.278 -0.5687  1.7950  2.4208
  164DOPC   C3519892   0.510   0.788  16.338  0.0328  0.0887  0.7985
  164DOPC   H5X19893   0.422   0.775  16.405  1.3342  0.4019  2.6521
  164DOPC   H5Y19894   0.594   0.735  16.388  1.1339  3.1748  2.5052
  164DOPC   C3619895   0.476   0.741  16.193 -0.2846 -0.2240 -0.1736
  164DOPC   H6X19896   0.411   0.651  16.198  0.9336 -1.1093  0.3484
  164DOPC   H6Y19897   0.417   0.817  16.138  1.3802  0.0870 -1.6230
  164DOPC   C3719898   0.605   0.693  16.125 -0.7500 -0.2136  0.5998
  164DOPC   H7X19899   0.682   0.773  16.120 -0.7734 -0.1975  0.4977
  164DOPC   H7Y19900   0.641   0.616  16.196 -0.6989 -1.1908 -0.4608
  164DOPC   C3819901   0.597   0.619  15.990  0.8649 -0.2616 -0.4716
  164DOPC   H8X19902   0.507   0.554  15.988  1.9072 -1.7481 -0.9132
  164DOPC   H8Y19903   0.691   0.561  15.980  0.5671 -0.7047 -0.7705
  164DOPC   C3919904   0.584   0.712  15.871  0.4841  0.1199 -0.1676
  164DOPC   H9X19905   0.528   0.806  15.885  1.1162  0.9059 -2.4446
  164DOPC  C31019906   0.633   0.702  15.744 -0.0700 -0.7049 -0.2917
  164DOPC  H10X19907   0.611   0.775  15.664  4.7052  0.1833 -1.1382
  164DOPC  C31119908   0.703   0.577  15.693 -0.1392 -0.1903 -0.0276
  164DOPC  H11X19909   0.732   0.515  15.781  1.4694  1.0815  0.3957
  164DOPC  H11Y19910   0.798   0.607  15.643  0.2537 -2.3309 -0.6533
  164DOPC  C31219911   0.628   0.485  15.588 -0.1008 -0.0879  0.1966
  164DOPC  H12X19912   0.554   0.531  15.520 -1.7964 -2.1164  0.5592
  164DOPC  H12Y19913   0.587   0.399  15.646 -1.1744  0.9396  0.9936
  164DOPC  C31319914   0.738   0.427  15.491 -0.3740  0.1168  0.2772
  164DOPC  H13X19915   0.818   0.369  15.541  0.5412  0.7683 -0.3924
  164DOPC  H13Y19916   0.690   0.352  15.424  0.3083 -0.1617  0.0972
  164DOPC  C31419917   0.802   0.524  15.402 -0.1018 -0.3404 -0.3605
  164DOPC  H14X19918   0.875   0.585  15.460 -0.6971 -1.1113  1.2586
  164DOPC  H14Y19919   0.731   0.594  15.354 -0.3784 -0.2984  0.1010
  164DOPC  C31519920   0.867   0.467  15.285  0.4503  0.3378 -0.4878
  164DOPC  H15X19921   0.782   0.418  15.232 -0.4809  0.1030  1.1588
  164DOPC  H15Y19922   0.935   0.384  15.315 -2.7833 -1.5345  2.3491
  164DOPC  C31619923   0.945   0.558  15.187 -0.3552 -0.9405  0.2038
  164DOPC  H16X19924   0.873   0.587  15.108 -0.2785  2.8542  1.3336
  164DOPC  H16Y19925   0.994   0.645  15.237  3.1310 -0.4875 -3.4971
  164DOPC  C31719926   1.067   0.485  15.113  0.0417  0.4010  0.2871
  164DOPC  H17X19927   1.146   0.484  15.190 -0.0348 -1.5622  0.3837
  164DOPC  H17Y19928   1.040   0.379  15.095 -2.7351  1.1236 -0.3934
  164DOPC  C31819929   1.118   0.553  14.988  0.4873 -0.1235  0.6930
  164DOPC  H18X19930   1.197   0.490  14.942  0.2217 -1.0099  1.4273
  164DOPC  H18Y19931   1.043   0.586  14.912  0.8252  0.8086  0.7511
  164DOPC  H18Z19932   1.176   0.643  15.019  2.8828 -0.5131 -2.2396
  165DOPC     N19933   5.869   0.333  17.669 -0.9537 -0.7270 -0.4110
  165DOPC   C1219934   5.931   0.419  17.560 -0.4658  0.0852  1.0899
  165DOPC  H12A19935   6.011   0.483  17.595  0.3624 -0.0254 -0.4694
  165DOPC  H12B19936   5.859   0.485  17.514 -0.2799  0.0190  0.7001
  165DOPC   C1319937   5.751   0.266  17.607 -0.0273  0.4326 -0.9263
  165DOPC  H13A19938   5.797   0.205  17.531 -0.1990  1.0157 -1.5044
  165DOPC  H13B19939   5.690   0.202  17.669 -0.6652  1.8216 -0.0876
  165DOPC  H13C19940   5.689   0.338  17.557  0.4501  0.5343 -1.3805
  165DOPC   C1419941   5.827   0.414  17.783  0.3785  0.4093 -0.3292
  165DOPC  H14A19942   5.751   0.482  17.748 -0.4439 -0.9114 -1.1911
  165DOPC  H14B19943   5.773   0.350  17.851  1.7974 -0.5712 -0.0825
  165DOPC  H14C19944   5.904   0.469  17.834  0.2457 -1.8836  2.6093
  165DOPC   C1519945   5.959   0.232  17.736 -0.3757  0.2477 -0.3383
  165DOPC  H15A19946   6.041   0.267  17.797 -1.7376  1.1341  1.0636
  165DOPC  H15B19947   6.010   0.169  17.665  2.1190  1.9871 -0.2163
  165DOPC  H15C19948   5.893   0.173  17.799 -1.9785  3.7427  1.5308
  165DOPC   C1119949   5.995   0.334  17.444 -0.5579  0.3257  0.5322
  165DOPC  H11A19950   6.062   0.399  17.384  0.1434 -0.0528  0.9037
  165DOPC  H11B19951   6.057   0.256  17.492 -0.4252  0.5355  0.7090
  165DOPC     P19952   5.807   0.330  17.253 -0.0582  0.2773  0.1277
  165DOPC   O1319953   5.725   0.450  17.290 -0.1484  0.2073  0.0214
  165DOPC   O1419954   5.724   0.221  17.187  0.1743 -0.1752 -0.4918
  165DOPC   O1219955   5.897   0.268  17.368  0.0073 -0.1274 -0.2734
  165DOPC   O1119956   5.925   0.375  17.154 -0.0426 -1.0650  0.0855
  165DOPC    C119957   6.014   0.275  17.109 -0.1291  0.2469  0.3632
  165DOPC    HA19958   6.003   0.176  17.158  0.8348 -0.0031  0.0909
  165DOPC    HB19959   6.118   0.297  17.142  0.6562 -3.2048  0.5362
  165DOPC    C219960   5.995   0.262  16.955 -0.3457  0.0263  0.1245
  165DOPC    HS19961   6.046   0.352  16.913 -2.0182  0.0904 -1.9204
  165DOPC   O2119962   5.854   0.257  16.924 -0.1612 -0.6094  0.3729
  165DOPC   C2119963   5.790   0.371  16.896 -0.5708 -0.6471  0.0924
  165DOPC   O2219964   5.845   0.479  16.877  0.1095  0.2936 -0.0889
  165DOPC   C2219965   5.645   0.348  16.901  0.2387 -0.4953  0.2137
  165DOPC   H2R19966   5.602   0.432  16.961  1.5545 -0.8484  1.6972
  165DOPC   H2S19967   5.618   0.254  16.953 -2.1986  0.1940  0.3204
  165DOPC    C319968   6.072   0.136  16.890  0.2010 -0.0691 -0.7747
  165DOPC    HX19969   6.063   0.049  16.959  0.0719  0.6924  0.1932
  165DOPC    HY19970   6.181   0.157  16.896  0.1559  0.7169 -2.3532
  165DOPC   O3119971   6.031   0.106  16.756 -0.3172 -0.2872  0.7399
  165DOPC   C3119972   6.067   0.196  16.667  0.5194  0.0466  0.1894
  165DOPC   O3219973   6.149   0.286  16.692 -0.7301 -0.1824  0.1188
  165DOPC   C3219974   5.997   0.165  16.538  0.3482  0.1824  0.6059
  165DOPC   H2X19975   5.888   0.145  16.552  0.2702 -0.3210 -0.5897
  165DOPC   H2Y19976   6.014   0.255  16.475  1.1429 -0.0953  0.4173
  165DOPC   C2319977   5.590   0.348  16.758 -0.1640 -0.3287  0.0529
  165DOPC   H3R19978   5.642   0.421  16.693  0.0967  0.2971  0.9498
  165DOPC   H3S19979   5.484   0.382  16.754  1.1116  4.8069  2.0195
  165DOPC   C2419980   5.607   0.214  16.692  0.7998 -0.2565 -0.4119
  165DOPC   H4R19981   5.559   0.146  16.765 -0.4934  1.2808  0.2220
  165DOPC   H4S19982   5.712   0.179  16.677  1.4898  2.1076 -1.5779
  165DOPC   C2519983   5.530   0.191  16.557 -0.5054 -0.3543  0.5342
  165DOPC   H5R19984   5.421   0.212  16.564 -0.6654 -0.1721 -1.5985
  165DOPC   H5S19985   5.546   0.082  16.541 -1.1157 -0.2472 -1.0679
  165DOPC   C2619986   5.598   0.273  16.439  0.2352 -0.0741  0.2861
  165DOPC   H6R19987   5.708   0.264  16.442  0.0790 -2.8707  0.0498
  165DOPC   H6S19988   5.569   0.379  16.454  1.2377 -0.1153  3.0045
  165DOPC   C2719989   5.534   0.242  16.303  0.3299 -0.4714 -0.0597
  165DOPC   H7R19990   5.554   0.319  16.226  1.5383  0.9839  1.6103
  165DOPC   H7S19991   5.424   0.243  16.316  0.4083  0.4886  0.6349
  165DOPC   C2819992   5.581   0.114  16.229  0.7150  0.6538 -0.0601
  165DOPC   H8R19993   5.497   0.082  16.164  0.6326  0.8018 -0.0258
  165DOPC   H8S19994   5.587   0.028  16.300  0.1838  3.0407  3.0675
  165DOPC   C2919995   5.702   0.134  16.140 -1.4531 -0.5931  0.6577
  165DOPC   H9R19996   5.788   0.184  16.185 -1.9620  0.1308  0.8561
  165DOPC  C21019997   5.718   0.107  16.011  0.8787  0.3273 -0.2400
  165DOPC  H10R19998   5.816   0.129  15.966  0.2284  2.3781 -0.7636
  165DOPC  C21119999   5.619   0.064  15.905 -1.0089  0.1828  0.5583
  165DOPC  H11R20000   5.542   0.001  15.955  1.1662 -0.9836  2.6700
  165DOPC  H11S20001   5.670   0.001  15.830  0.1791  0.1871  1.3315
  165DOPC  C21220002   5.542   0.184  15.840  0.0515  0.0951 -0.0003
  165DOPC  H12R20003   5.476   0.243  15.908  0.5829  0.4812  0.1861
  165DOPC  H12S20004   5.481   0.138  15.760 -0.7128  1.0756 -0.0005
  165DOPC  C21320005   5.635   0.288  15.770  0.1100  0.0966 -0.1900
  165DOPC  H13R20006   5.684   0.232  15.687  0.2049  1.5542 -1.1667
  165DOPC  H13S20007   5.708   0.316  15.848  0.2479  0.7078 -0.5295
  165DOPC  C21420008   5.572   0.422  15.724  0.4355  0.0162 -0.9653
  165DOPC  H14R20009   5.534   0.479  15.812 -3.1333 -1.3611 -1.4447
  165DOPC  H14S20010   5.490   0.396  15.654 -0.0688 -0.0093 -0.3786
  165DOPC  C21520011   5.667   0.503  15.642 -0.4911  0.4167  0.2983
  165DOPC  H15R20012   5.693   0.455  15.546 -1.2848  0.1910  0.1869
  165DOPC  H15S20013   5.764   0.507  15.696 -0.3362 -0.5486  0.0895
  165DOPC  C21620014   5.614   0.645  15.595  0.0406  0.1078 -0.6853
  165DOPC  H16R20015   5.621   0.714  15.682  0.0214 -1.6117  0.7463
  165DOPC  H16S20016   5.510   0.628  15.560  0.1177 -0.3514 -0.7010
  165DOPC  C21720017   5.697   0.700  15.482  0.0650 -0.0634  0.2053
  165DOPC  H17R20018   5.642   0.767  15.412 -0.5975  0.6576  1.3810
  165DOPC  H17S20019   5.729   0.613  15.422  1.5130  0.4251  0.2414
  165DOPC  C21820020   5.819   0.772  15.540  0.1851 -0.0457  0.1250
  165DOPC  H18R20021   5.788   0.865  15.592 -1.5663 -1.1444  1.1482
  165DOPC  H18S20022   5.896   0.804  15.468  0.5267 -0.2822  0.3800
  165DOPC  H18T20023   5.872   0.713  15.618 -1.5435  0.2575  1.6221
  165DOPC   C3320024   6.054   0.049  16.468 -0.5676 -0.5477 -0.1783
  165DOPC   H3X20025   6.098  -0.022  16.541 -1.4404 -1.0739 -0.1473
  165DOPC   H3Y20026   6.139   0.075  16.401 -0.1438  3.3451  1.5681
  165DOPC   C3420027   5.941  -0.024  16.392 -0.6220 -0.8155  0.6274
  165DOPC   H4X20028   5.896   0.049  16.321 -0.8031 -1.0142  0.5360
  165DOPC   H4Y20029   5.860  -0.052  16.463 -0.4784 -1.4592  0.5400
  165DOPC   C3520030   5.990  -0.153  16.326  0.0350 -0.0581  0.5008
  165DOPC   H5X20031   5.896  -0.209  16.306 -1.1278  0.6378  3.5180
  165DOPC   H5Y20032   6.053  -0.196  16.407 -0.0924  2.5810  2.1158
  165DOPC   C3620033   6.064  -0.133  16.191 -0.6269  0.2360 -0.2377
  165DOPC   H6X20034   5.992  -0.097  16.114  0.4026 -0.1073 -1.3864
  165DOPC   H6Y20035   6.150  -0.068  16.216 -0.6597  0.1518  0.0980
  165DOPC   C3720036   6.110  -0.269  16.129  0.0515  0.2073 -0.2804
  165DOPC   H7X20037   6.020  -0.331  16.143 -1.1812  2.2399  1.3810
  165DOPC   H7Y20038   6.192  -0.313  16.191 -0.1426  1.2342  0.7498
  165DOPC   C3820039   6.150  -0.257  15.980 -0.1219  0.2717 -0.1747
  165DOPC   H8X20040   6.202  -0.351  15.953  0.1797  0.1586  0.7522
  165DOPC   H8Y20041   6.234  -0.189  15.958  0.5676 -0.1821  0.9618
  165DOPC   C3920042   6.035  -0.221  15.887 -0.4044  0.5521  0.3245
  165DOPC   H9X20043   5.956  -0.162  15.937 -2.0247 -1.2596  0.0289
  165DOPC  C31020044   6.033  -0.243  15.753  0.5029 -0.8498 -0.2082
  165DOPC  H10X20045   5.944  -0.219  15.694  0.9286  0.4934 -0.3352
  165DOPC  C31120046   6.150  -0.294  15.670 -0.6673  0.2192 -0.1955
  165DOPC  H11X20047   6.120  -0.386  15.615  1.2290 -0.7740  0.3494
  165DOPC  H11Y20048   6.237  -0.316  15.735  0.2224 -0.8334 -1.6903
  165DOPC  C31220049   6.189  -0.185  15.571 -1.1309 -0.5618 -0.0852
  165DOPC  H12X20050   6.212  -0.088  15.622  0.6453 -1.9953  2.0176
  165DOPC  H12Y20051   6.114  -0.180  15.490 -3.5204 -0.6123  1.9896
  165DOPC  C31320052   6.319  -0.230  15.501 -0.0653 -0.2465 -0.0659
  165DOPC  H13X20053   6.402  -0.235  15.576 -0.5651  0.4181  0.5501
  165DOPC  H13Y20054   6.314  -0.336  15.469 -0.9832 -0.7627  1.6839
  165DOPC  C31420055   6.348  -0.136  15.385  0.0128  0.4365 -0.3056
  165DOPC  H14X20056   6.428  -0.179  15.321  0.8234  0.3750  0.7221
  165DOPC  H14Y20057   6.253  -0.126  15.328 -1.1540  3.1971  1.9014
  165DOPC  C31520058   6.398  -0.002  15.429 -0.4292  0.3173 -0.1274
  165DOPC  H15X20059   6.449  -0.004  15.528 -0.0901  0.3506 -0.2995
  165DOPC  H15Y20060   6.306   0.060  15.435 -0.6371 -0.1013  3.8767
  165DOPC  C31620061   6.504   0.056  15.336  0.2165 -0.1489  0.0085
  165DOPC  H16X20062   6.586  -0.018  15.323  0.9124  0.9946 -3.3502
  165DOPC  H16Y20063   6.462   0.080  15.235 -2.6303  3.5442  1.8085
  165DOPC  C31720064   6.557   0.196  15.375 -0.1519  0.2300 -0.0764
  165DOPC  H17X20065   6.630   0.229  15.298  0.5517 -2.5596 -0.6973
  165DOPC  H17Y20066   6.471   0.267  15.382 -0.3932 -0.0126 -0.5440
  165DOPC  C31820067   6.623   0.201  15.506  0.5596 -0.1575 -1.2471
  165DOPC  H18X20068   6.671   0.296  15.539  2.6238 -1.5970  0.1695
  165DOPC  H18Y20069   6.553   0.179  15.590  1.9502  0.0164  0.0071
  165DOPC  H18Z20070   6.711   0.135  15.524  1.2825  1.0425 -0.1666
  166DOPC     N20071   6.497   1.695  17.178  0.1688  0.1520 -0.4557
  166DOPC   C1220072   6.465   1.837  17.143  0.5775 -0.7516 -0.3352
  166DOPC  H12A20073   6.435   1.828  17.040  1.8676 -3.3279 -0.5787
  166DOPC  H12B20074   6.547   1.908  17.147  0.9115 -1.0884 -1.0270
  166DOPC   C1320075   6.488   1.664  17.324 -0.3106  0.1906 -0.6418
  166DOPC  H13A20076   6.530   1.567  17.345  0.7730  0.9933  1.1457
  166DOPC  H13B20077   6.556   1.734  17.371 -0.9477  0.2258  0.2459
  166DOPC  H13C20078   6.386   1.683  17.356 -0.0555  0.9222 -0.2379
  166DOPC   C1420079   6.624   1.662  17.125 -0.3538  0.4164  0.4026
  166DOPC  H14A20080   6.651   1.558  17.140  0.1317  0.5002  0.1110
  166DOPC  H14B20081   6.632   1.671  17.018 -0.5448 -1.2637  0.2150
  166DOPC  H14C20082   6.697   1.716  17.183 -0.5337  0.3074  0.7392
  166DOPC   C1520083   6.392   1.599  17.111 -0.1737 -0.1409  0.0970
  166DOPC  H15A20084   6.302   1.613  17.170 -0.3344 -0.5877 -0.0314
  166DOPC  H15B20085   6.431   1.498  17.116 -2.0373 -0.9219  0.0486
  166DOPC  H15C20086   6.378   1.613  17.005 -1.2786 -0.7019  0.1480
  166DOPC   C1120087   6.346   1.915  17.209 -0.4477 -0.0054  0.2557
  166DOPC  H11A20088   6.373   1.925  17.317 -0.6595  0.7094  0.2458
  166DOPC  H11B20089   6.344   2.018  17.167 -2.7282 -0.2073 -0.2615
  166DOPC     P20090   6.131   1.880  17.079  0.1435 -0.4703  0.3981
  166DOPC   O1320091   6.101   2.029  17.083  0.4522  0.6745  0.2214
  166DOPC   O1420092   6.012   1.795  17.097 -0.7518  0.1448 -0.1908
  166DOPC   O1220093   6.224   1.850  17.206  0.0122  0.0629  0.1514
  166DOPC   O1120094   6.212   1.849  16.950  0.2096 -0.1314  0.2784
  166DOPC    C120095   6.178   1.921  16.827 -0.2967 -0.0874 -0.7932
  166DOPC    HA20096   6.253   1.890  16.751  2.1233  0.7834  1.1018
  166DOPC    HB20097   6.192   2.030  16.839  1.9422 -0.5964  3.1730
  166DOPC    C220098   6.045   1.873  16.767 -0.4253  0.0275  0.6212
  166DOPC    HS20099   5.961   1.868  16.839 -1.1601 -0.5316 -0.2692
  166DOPC   O2120100   6.067   1.733  16.724  0.2972 -0.2962 -0.1272
  166DOPC   C2120101   5.955   1.670  16.684 -0.2187 -1.0746  0.0606
  166DOPC   O2220102   5.848   1.724  16.661  0.1580 -0.9943 -0.1577
  166DOPC   C2220103   5.990   1.525  16.643  0.3778 -0.4062 -0.1387
  166DOPC   H2R20104   6.035   1.465  16.726 -2.5297 -2.3684  0.1963
  166DOPC   H2S20105   6.069   1.530  16.565  1.4623  0.0589  0.9570
  166DOPC    C320106   6.016   1.963  16.641 -0.2208  0.0809 -0.2247
  166DOPC    HX20107   6.045   2.061  16.685  2.2318 -1.3276  1.5095
  166DOPC    HY20108   5.909   1.953  16.614 -0.1100 -0.8836 -0.3457
  166DOPC   O3120109   6.101   1.940  16.529 -0.1123  0.5783 -0.3684
  166DOPC   C3120110   6.068   2.012  16.427 -0.6303 -0.3001  0.6095
  166DOPC   O3220111   5.979   2.093  16.422 -0.4103 -0.3413 -0.6103
  166DOPC   C3220112   6.173   2.003  16.318  0.0036 -0.1553 -0.0260
  166DOPC   H2X20113   6.186   2.100  16.265  0.2627 -0.6715 -0.9404
  166DOPC   H2Y20114   6.274   1.992  16.364 -0.1302  1.4944  0.7465
  166DOPC   C2320115   5.873   1.448  16.588 -0.0612 -0.1378  0.1344
  166DOPC   H3R20116   5.778   1.443  16.644  0.2565  0.1479  0.7134
  166DOPC   H3S20117   5.909   1.343  16.596  1.1077 -0.0721 -2.8592
  166DOPC   C2420118   5.851   1.486  16.439  0.4189 -0.3625 -0.8410
  166DOPC   H4R20119   5.943   1.471  16.379  2.4618  0.1477  1.9855
  166DOPC   H4S20120   5.813   1.590  16.441  0.3986 -0.3500  2.0635
  166DOPC   C2520121   5.749   1.398  16.375 -0.2103  0.3855 -0.3106
  166DOPC   H5R20122   5.649   1.402  16.424 -1.8733 -0.1270 -3.3729
  166DOPC   H5S20123   5.785   1.293  16.380 -2.6218 -0.5532 -1.0313
  166DOPC   C2620124   5.735   1.427  16.226 -0.3788  0.1837  0.3481
  166DOPC   H6R20125   5.664   1.355  16.180 -0.4043  0.1624  0.4203
  166DOPC   H6S20126   5.839   1.406  16.193 -1.4590 -3.6089 -1.0624
  166DOPC   C2720127   5.684   1.570  16.186 -0.0935  0.1366 -0.0725
  166DOPC   H7R20128   5.753   1.646  16.229 -0.3533 -0.0844  0.7570
  166DOPC   H7S20129   5.591   1.575  16.247  0.6007  0.6444  0.9795
  166DOPC   C2820130   5.643   1.582  16.038 -0.1908 -0.2533 -0.2660
  166DOPC   H8R20131   5.572   1.664  16.016 -1.4896 -1.4835 -0.8411
  166DOPC   H8S20132   5.577   1.500  16.000 -0.7127  1.1326 -2.5548
  166DOPC   C2920133   5.772   1.596  15.950  0.4859  0.2908 -0.9845
  166DOPC   H9R20134   5.845   1.665  15.994  1.3798 -0.6125 -1.0206
  166DOPC  C21020135   5.788   1.541  15.827 -0.5381  0.5221  0.2067
  166DOPC  H10R20136   5.876   1.552  15.763 -2.3566 -0.3191 -2.6295
  166DOPC  C21120137   5.672   1.492  15.756 -0.3975  0.7069 -0.1764
  166DOPC  H11R20138   5.576   1.531  15.796  0.7316  1.6991  1.7001
  166DOPC  H11S20139   5.672   1.381  15.758  0.6705  0.5676 -3.1558
  166DOPC  C21220140   5.682   1.544  15.616 -0.1594 -1.2194 -0.1902
  166DOPC  H12R20141   5.787   1.551  15.579 -0.1392 -0.7712 -0.0589
  166DOPC  H12S20142   5.648   1.650  15.620 -0.8456 -1.4591  0.3941
  166DOPC  C21320143   5.599   1.465  15.510 -0.5781  0.2055  0.0079
  166DOPC  H13R20144   5.495   1.454  15.547 -0.1933 -0.2257  0.9921
  166DOPC  H13S20145   5.636   1.362  15.492  0.5104  0.4843  0.5578
  166DOPC  C21420146   5.585   1.537  15.369  0.4243  0.7936  0.5686
  166DOPC  H14R20147   5.532   1.633  15.387 -2.4449 -0.8189  1.5053
  166DOPC  H14S20148   5.508   1.477  15.316  1.6983  2.0665 -3.0052
  166DOPC  C21520149   5.708   1.538  15.285 -0.0584 -0.4177  0.1547
  166DOPC  H15R20150   5.753   1.438  15.301 -0.6986 -0.6035  0.9073
  166DOPC  H15S20151   5.784   1.611  15.321 -0.7603  0.0540  0.7201
  166DOPC  C21620152   5.681   1.579  15.132  0.5947  0.1272 -0.1775
  166DOPC  H16R20153   5.603   1.658  15.132 -0.1304 -0.5566  0.7441
  166DOPC  H16S20154   5.637   1.495  15.074  1.0993  0.7710 -1.5564
  166DOPC  C21720155   5.810   1.629  15.068 -0.4201  0.1247  0.4286
  166DOPC  H17R20156   5.875   1.540  15.083  2.5559  1.7380 -1.7370
  166DOPC  H17S20157   5.852   1.719  15.119 -2.8054  2.7898 -1.9615
  166DOPC  C21820158   5.796   1.660  14.916  0.1653 -0.3242 -0.3239
  166DOPC  H18R20159   5.749   1.577  14.860  2.9374 -1.2447 -1.4832
  166DOPC  H18S20160   5.887   1.675  14.855 -0.7547 -2.5428 -2.4185
  166DOPC  H18T20161   5.734   1.749  14.893 -2.5863 -1.6568  1.4212
  166DOPC   C3320162   6.139   1.897  16.214 -0.1627  0.2698  0.0757
  166DOPC   H3X20163   6.189   1.931  16.121 -1.0597  1.4969  0.0231
  166DOPC   H3Y20164   6.032   1.885  16.187  0.2395  0.1400 -1.5645
  166DOPC   C3420165   6.201   1.761  16.255 -0.8144  0.6465  0.6682
  166DOPC   H4X20166   6.159   1.746  16.356 -2.4022 -0.5663 -0.1250
  166DOPC   H4Y20167   6.310   1.780  16.267 -0.6558 -0.0746  0.4417
  166DOPC   C3520168   6.161   1.645  16.165 -0.0169 -0.3705  0.2884
  166DOPC   H5X20169   6.050   1.647  16.160  0.0491  0.1208 -2.2180
  166DOPC   H5Y20170   6.188   1.551  16.218  2.3378 -0.4098 -0.8612
  166DOPC   C3620171   6.234   1.657  16.026  0.6120  0.1788  0.0615
  166DOPC   H6X20172   6.200   1.754  15.983  1.4930 -1.0681 -3.8657
  166DOPC   H6Y20173   6.342   1.664  16.052  0.1332  0.8298  2.0428
  166DOPC   C3720174   6.189   1.540  15.940 -0.0020 -0.1055  0.3328
  166DOPC   H7X20175   6.231   1.447  15.984  0.4451  0.9305  2.2293
  166DOPC   H7Y20176   6.078   1.530  15.942 -0.1919  1.6425  2.4430
  166DOPC   C3820177   6.226   1.565  15.793 -0.1644 -0.2015  0.6080
  166DOPC   H8X20178   6.159   1.646  15.757 -0.2453  0.3219  1.8673
  166DOPC   H8Y20179   6.191   1.470  15.746  1.1061 -1.3046  1.7761
  166DOPC   C3920180   6.372   1.591  15.743 -0.0848  0.4323  0.0566
  166DOPC   H9X20181   6.413   1.671  15.807  0.9519 -3.0390  4.1513
  166DOPC  C31020182   6.450   1.527  15.649  0.2445  0.4687  0.2711
  166DOPC  H10X20183   6.558   1.544  15.640  0.1660 -0.0980 -2.4042
  166DOPC  C31120184   6.420   1.406  15.567  0.1649 -0.1960 -0.2949
  166DOPC  H11X20185   6.310   1.393  15.581 -0.2089  1.2978 -1.5968
  166DOPC  H11Y20186   6.473   1.322  15.616 -1.7449 -1.0270  0.4847
  166DOPC  C31220187   6.453   1.420  15.416  0.1061 -0.3189 -0.3421
  166DOPC  H12X20188   6.564   1.424  15.413  0.1305 -0.9427 -0.2455
  166DOPC  H12Y20189   6.420   1.521  15.383  0.3908  0.5493  1.8483
  166DOPC  C31320190   6.419   1.296  15.333 -0.1529 -0.8726 -0.0031
  166DOPC  H13X20191   6.487   1.219  15.375  3.1008  0.8709 -1.6848
  166DOPC  H13Y20192   6.311   1.270  15.339 -0.5792  0.7547 -0.1207
  166DOPC  C31420193   6.457   1.329  15.186  0.4961  0.5895 -0.5201
  166DOPC  H14X20194   6.394   1.415  15.154 -2.4289 -1.0308  0.4915
  166DOPC  H14Y20195   6.558   1.376  15.177  0.9412 -0.0922  0.6085
  166DOPC  C31520196   6.443   1.206  15.092 -0.2273 -0.1440 -0.2228
  166DOPC  H15X20197   6.365   1.235  15.018 -0.1647 -1.0406 -0.6553
  166DOPC  H15Y20198   6.394   1.128  15.154 -0.9499  2.7176  3.1262
  166DOPC  C31620199   6.583   1.155  15.043  0.3587 -0.0143  0.3663
  166DOPC  H16X20200   6.608   1.196  14.943  0.1559  0.0052  0.3224
  166DOPC  H16Y20201   6.659   1.198  15.111  1.3168 -1.4132  0.2013
  166DOPC  C31720202   6.594   0.999  15.034  0.5929  0.8573 -0.0719
  166DOPC  H17X20203   6.700   0.967  15.024  0.3237 -0.8717  1.7581
  166DOPC  H17Y20204   6.547   0.946  15.120  0.9693  1.1572  0.3226
  166DOPC  C31820205   6.539   0.958  14.906  0.6580 -0.1191 -0.1676
  166DOPC  H18X20206   6.603   1.010  14.831  0.5028  1.0263  0.4647
  166DOPC  H18Y20207   6.546   0.849  14.886  2.6638 -0.1046  0.1538
  166DOPC  H18Z20208   6.435   0.988  14.881  1.4455  0.1347 -3.6718
  167DOPC     N20209   6.387   0.668  17.055 -0.0976  0.3147  0.1625
  167DOPC   C1220210   6.343   0.816  17.056  0.2164 -0.0889 -0.3776
  167DOPC  H12A20211   6.252   0.818  16.998  0.1566 -1.3934 -0.3559
  167DOPC  H12B20212   6.424   0.874  17.016 -0.5034  1.4226  0.2485
  167DOPC   C1320213   6.492   0.643  17.158 -0.0452  0.4559  0.3726
  167DOPC  H13A20214   6.500   0.537  17.177  0.7397  0.6357  1.1248
  167DOPC  H13B20215   6.589   0.676  17.123  0.5615 -0.2783  1.3295
  167DOPC  H13C20216   6.469   0.693  17.251 -0.4379  0.0451  0.4975
  167DOPC   C1420217   6.433   0.637  16.914  0.5649 -0.8371  0.0009
  167DOPC  H14A20218   6.352   0.661  16.847  0.7667 -0.1758 -0.0208
  167DOPC  H14B20219   6.512   0.706  16.887 -0.3092 -0.1616 -0.9204
  167DOPC  H14C20220   6.469   0.536  16.903  4.4794  0.2458  1.2720
  167DOPC   C1520221   6.283   0.566  17.073 -0.5057  0.3052  1.0114
  167DOPC  H15A20222   6.262   0.554  17.178  0.4764  1.1495  1.3206
  167DOPC  H15B20223   6.318   0.473  17.030 -1.7449  0.0721  0.4864
  167DOPC  H15C20224   6.191   0.589  17.022  0.0199 -0.2363 -0.2334
  167DOPC   C1120225   6.312   0.870  17.195 -0.6232 -0.6858 -0.9441
  167DOPC  H11A20226   6.259   0.967  17.180 -0.6519 -0.4232  0.6202
  167DOPC  H11B20227   6.238   0.805  17.245  1.6346 -2.3711  0.3738
  167DOPC     P20228   6.550   0.986  17.257 -0.1370 -0.2937 -0.3625
  167DOPC   O1320229   6.670   0.924  17.314  0.0893 -0.7696 -0.2849
  167DOPC   O1420230   6.518   1.124  17.296 -0.0560 -0.1331  0.3818
  167DOPC   O1220231   6.422   0.884  17.286 -0.4598 -0.4938  0.3438
  167DOPC   O1120232   6.560   0.986  17.098 -0.7854  0.5593 -0.5063
  167DOPC    C120233   6.676   1.026  17.035 -0.6565 -0.6280  0.5517
  167DOPC    HA20234   6.771   1.035  17.092  0.0110  0.7699 -0.6979
  167DOPC    HB20235   6.664   1.130  16.996 -0.2707 -0.4362  0.9401
  167DOPC    C220236   6.712   0.923  16.923  0.1112 -0.8006 -0.4057
  167DOPC    HS20237   6.791   0.965  16.858 -0.3862  2.4521  0.9170
  167DOPC   O2120238   6.597   0.886  16.840  0.1563 -0.3010  0.2360
  167DOPC   C2120239   6.556   0.972  16.754  0.0542 -0.1660 -0.2713
  167DOPC   O2220240   6.590   1.092  16.748 -0.1440 -0.1876 -0.0541
  167DOPC   C2220241   6.453   0.911  16.659  0.0449 -0.3028 -0.2095
  167DOPC   H2R20242   6.376   0.985  16.627  1.3863  1.9867  1.5241
  167DOPC   H2S20243   6.399   0.836  16.720 -1.6847  0.9588 -0.1277
  167DOPC    C320244   6.779   0.798  16.990  0.2470  0.9180  0.8174
  167DOPC    HX20245   6.730   0.790  17.090  1.7890 -0.8519  1.4681
  167DOPC    HY20246   6.886   0.815  17.013  0.2813  2.3032 -0.2589
  167DOPC   O3120247   6.766   0.675  16.913 -0.0189 -0.1018 -0.0958
  167DOPC   C3120248   6.846   0.659  16.813  0.0821 -0.0938 -0.7057
  167DOPC   O3220249   6.926   0.747  16.774  0.8840  0.0221 -0.5153
  167DOPC   C3220250   6.850   0.511  16.770  0.0392  0.5803 -0.2705
  167DOPC   H2X20251   6.951   0.473  16.794 -0.9983 -1.1811  1.6061
  167DOPC   H2Y20252   6.777   0.447  16.824  0.0768  0.3643 -0.4752
  167DOPC   C2320253   6.513   0.836  16.536 -0.4178 -0.4643  0.7889
  167DOPC   H3R20254   6.423   0.790  16.488  0.4866  1.3833 -3.1388
  167DOPC   H3S20255   6.579   0.754  16.572  1.4194  0.4820 -0.2855
  167DOPC   C2420256   6.568   0.930  16.428  0.6808 -0.4734  0.3316
  167DOPC   H4R20257   6.655   0.981  16.474  0.1949 -0.2874  1.0668
  167DOPC   H4S20258   6.504   1.014  16.396  0.4299 -0.8708 -0.2227
  167DOPC   C2520259   6.621   0.847  16.307  0.0293 -0.3781 -0.2117
  167DOPC   H5R20260   6.666   0.754  16.347  0.6978 -0.1973 -0.5348
  167DOPC   H5S20261   6.710   0.904  16.272  0.3673 -0.4320  0.5276
  167DOPC   C2620262   6.512   0.824  16.207  0.0407  0.6880 -0.5592
  167DOPC   H6R20263   6.462   0.921  16.188 -0.9319  0.2887 -0.1037
  167DOPC   H6S20264   6.451   0.749  16.261  0.9671 -1.3645 -2.2075
  167DOPC   C2720265   6.573   0.773  16.074  0.0562 -0.3852  0.2980
  167DOPC   H7R20266   6.652   0.839  16.033 -0.6732 -0.0565 -0.5970
  167DOPC   H7S20267   6.494   0.782  15.998  0.0970  1.4029  0.4338
  167DOPC   C2820268   6.637   0.635  16.073  0.6040  0.9010 -0.7913
  167DOPC   H8R20269   6.720   0.648  16.146  0.2674  0.8736 -0.4054
  167DOPC   H8S20270   6.680   0.611  15.973 -0.2150  0.9944 -1.1663
  167DOPC   C2920271   6.557   0.523  16.123  0.7090  0.5554 -0.4955
  167DOPC   H9R20272   6.548   0.529  16.233 -0.2074  2.9945 -0.6442
  167DOPC  C21020273   6.506   0.416  16.053  0.1286 -0.7850 -0.9076
  167DOPC  H10R20274   6.455   0.338  16.111 -0.7612  2.1687  2.6590
  167DOPC  C21120275   6.496   0.385  15.904  0.3192 -0.1236 -0.2952
  167DOPC  H11R20276   6.402   0.326  15.894  1.5969 -2.5444  0.9788
  167DOPC  H11S20277   6.580   0.327  15.861 -1.8487 -1.4467 -3.1275
  167DOPC  C21220278   6.466   0.507  15.823 -0.1998  0.2939 -0.3489
  167DOPC  H12R20279   6.380   0.566  15.862  0.1804  0.2961  0.5205
  167DOPC  H12S20280   6.551   0.579  15.823  0.1124 -0.0207  1.4886
  167DOPC  C21320281   6.439   0.479  15.675 -0.7911 -0.2206 -0.1416
  167DOPC  H13R20282   6.376   0.388  15.662 -0.4579 -0.5541  0.4965
  167DOPC  H13S20283   6.537   0.459  15.627 -0.8776 -2.9261  0.6777
  167DOPC  C21420284   6.374   0.598  15.611  0.2526  0.3172  0.8657
  167DOPC  H14R20285   6.273   0.594  15.658 -1.2910 -1.5848 -2.2969
  167DOPC  H14S20286   6.372   0.579  15.502  0.4592 -0.1922  0.9473
  167DOPC  C21520287   6.433   0.733  15.638 -0.4450 -0.4340 -0.7262
  167DOPC  H15R20288   6.541   0.731  15.615 -0.3489 -0.4138 -0.2864
  167DOPC  H15S20289   6.416   0.761  15.744 -4.9760 -1.0498 -1.0890
  167DOPC  C21620290   6.355   0.841  15.553 -0.1345  0.0750 -0.3144
  167DOPC  H16R20291   6.249   0.809  15.545  0.0806 -0.6395 -0.3420
  167DOPC  H16S20292   6.411   0.840  15.458 -1.3035  3.4588 -1.2059
  167DOPC  C21720293   6.357   0.984  15.610 -0.6949  0.3521 -0.4328
  167DOPC  H17R20294   6.321   1.062  15.540 -0.0032  0.9303 -0.1456
  167DOPC  H17S20295   6.462   1.010  15.634 -0.7290  1.2420 -1.2241
  167DOPC  C21820296   6.284   1.001  15.745 -0.3276  0.0680  0.0004
  167DOPC  H18R20297   6.295   1.105  15.784 -0.7993  0.5857 -1.1874
  167DOPC  H18S20298   6.330   0.926  15.812  0.0806 -0.0350 -0.3903
  167DOPC  H18T20299   6.177   0.973  15.734 -0.4886  0.8186 -0.4333
  167DOPC   C3320300   6.824   0.494  16.617  0.0583 -0.9100 -0.0730
  167DOPC   H3X20301   6.903   0.542  16.556 -1.5262  2.1083  0.0485
  167DOPC   H3Y20302   6.726   0.545  16.599  1.1145  1.4253  0.4238
  167DOPC   C3420303   6.817   0.342  16.584  0.3856 -0.2463  0.4102
  167DOPC   H4X20304   6.729   0.292  16.631 -1.7859  1.7565 -1.2501
  167DOPC   H4Y20305   6.906   0.293  16.629  0.6677  0.8671  1.0782
  167DOPC   C3520306   6.818   0.306  16.433  0.1596  0.0481  0.0564
  167DOPC   H5X20307   6.725   0.338  16.382  0.3964 -0.1836 -0.5351
  167DOPC   H5Y20308   6.838   0.200  16.405 -0.2465  0.4244 -1.8412
  167DOPC   C3620309   6.934   0.377  16.347  0.2399 -0.3005 -0.7820
  167DOPC   H6X20310   6.907   0.485  16.347 -0.6051 -0.4829  0.8580
  167DOPC   H6Y20311   7.023   0.371  16.413 -0.1592 -0.7727 -0.2785
  167DOPC   C3720312   6.943   0.315  16.205  0.0015  0.7124  0.1434
  167DOPC   H7X20313   6.975   0.210  16.215 -3.4633 -0.7209 -1.7797
  167DOPC   H7Y20314   6.852   0.322  16.142  0.5862 -0.0851 -0.8121
  167DOPC   C3820315   7.055   0.384  16.125 -0.2720  0.3502  0.4995
  167DOPC   H8X20316   7.152   0.376  16.178 -1.0479  2.3396  2.3626
  167DOPC   H8Y20317   7.033   0.493  16.120 -0.2048  0.3692  0.6312
  167DOPC   C3920318   7.060   0.320  15.986  0.6193 -0.0408  0.2363
  167DOPC   H9X20319   7.120   0.228  15.978 -0.4258 -0.6177 -1.6801
  167DOPC  C31020320   7.029   0.382  15.874  0.2645  0.7584  1.0518
  167DOPC  H10X20321   7.045   0.329  15.779  0.2422 -0.5684  1.7721
  167DOPC  C31120322   6.951   0.508  15.867 -0.2418 -0.7326  0.0461
  167DOPC  H11X20323   6.995   0.573  15.945  0.7037 -1.5490  0.2042
  167DOPC  H11Y20324   6.845   0.489  15.897  0.4590 -2.0822  1.8024
  167DOPC  C31220325   6.960   0.569  15.725  0.6457 -0.0797 -0.7686
  167DOPC  H12X20326   7.063   0.578  15.685 -0.0235  2.5864 -2.0757
  167DOPC  H12Y20327   6.926   0.674  15.737 -0.4734 -0.6072  1.3722
  167DOPC  C31320328   6.887   0.487  15.619  0.2069  0.1903  0.1768
  167DOPC  H13X20329   6.925   0.383  15.615  1.0982  0.5224 -0.4059
  167DOPC  H13Y20330   6.781   0.485  15.650  0.4192 -2.3568  0.9752
  167DOPC  C31420331   6.907   0.567  15.486  0.3843  0.1138  0.9311
  167DOPC  H14X20332   6.860   0.665  15.509 -0.9504  0.3420 -2.2291
  167DOPC  H14Y20333   7.014   0.578  15.460 -0.4536  1.1373 -2.6063
  167DOPC  C31520334   6.826   0.518  15.365 -0.2504  0.1445 -0.5086
  167DOPC  H15X20335   6.719   0.511  15.396  0.6492  0.1711  2.9613
  167DOPC  H15Y20336   6.859   0.414  15.343 -0.9004 -0.7549  2.3300
  167DOPC  C31620337   6.837   0.601  15.241 -0.8824 -0.3061 -0.4185
  167DOPC  H16X20338   6.829   0.708  15.268 -0.3146  0.4231 -2.9060
  167DOPC  H16Y20339   6.938   0.596  15.195 -0.0668  3.3606  0.6587
  167DOPC  C31720340   6.729   0.560  15.149 -0.9278 -0.2082  0.0493
  167DOPC  H17X20341   6.764   0.587  15.047  0.9165  1.4996  1.0731
  167DOPC  H17Y20342   6.719   0.449  15.153 -1.3652 -0.1460  2.8446
  167DOPC  C31820343   6.588   0.620  15.173 -0.1635  0.1702  0.6706
  167DOPC  H18X20344   6.576   0.724  15.134  2.6590  0.5259  0.5604
  167DOPC  H18Y20345   6.509   0.551  15.137 -2.3115  1.3000  2.9161
  167DOPC  H18Z20346   6.573   0.626  15.283 -1.1882 -1.9424  0.6948
  168DOPC     N20347   1.700   7.536  17.572  0.1293  0.0728 -0.7693
  168DOPC   C1220348   1.839   7.517  17.518 -0.3630  0.5446  0.2832
  168DOPC  H12A20349   1.921   7.545  17.583  0.1350 -0.1450 -0.0316
  168DOPC  H12B20350   1.840   7.575  17.426 -0.7742  0.8792  0.4887
  168DOPC   C1320351   1.595   7.513  17.477 -0.0465 -0.3299 -0.0609
  168DOPC  H13A20352   1.607   7.567  17.385 -1.3461 -1.5163 -0.9836
  168DOPC  H13B20353   1.590   7.410  17.444 -2.7026  0.0381 -1.0681
  168DOPC  H13C20354   1.502   7.545  17.523 -0.7897 -1.7306 -0.5131
  168DOPC   C1420355   1.695   7.679  17.615  0.1423  0.2209  0.1188
  168DOPC  H14A20356   1.732   7.744  17.537  0.0075  0.8814  0.5914
  168DOPC  H14B20357   1.594   7.713  17.633  0.4276  0.6812  0.9626
  168DOPC  H14C20358   1.761   7.705  17.696 -1.1478  1.5733  0.7930
  168DOPC   C1520359   1.675   7.442  17.687 -0.3573  0.0378  0.3365
  168DOPC  H15A20360   1.681   7.345  17.641  2.6024  1.2265 -2.1807
  168DOPC  H15B20361   1.580   7.464  17.734  0.2723  1.7718  0.9020
  168DOPC  H15C20362   1.759   7.448  17.755  0.5113  0.3936 -0.7352
  168DOPC   C1120363   1.871   7.375  17.464  0.2820  0.1147  0.3340
  168DOPC  H11A20364   1.980   7.373  17.440  0.3939 -1.0982  0.8588
  168DOPC  H11B20365   1.858   7.299  17.544 -0.3236 -0.0331  0.0986
  168DOPC     P20366   1.809   7.398  17.213 -0.0054  0.1195  0.2991
  168DOPC   O1320367   1.810   7.544  17.222  0.5142 -0.7410 -0.3413
  168DOPC   O1420368   1.712   7.343  17.113 -0.7377  0.2240 -0.2979
  168DOPC   O1220369   1.783   7.338  17.357 -0.2088  0.2366  0.0135
  168DOPC   O1120370   1.956   7.332  17.188 -0.4116 -0.1664  0.6082
  168DOPC    C120371   2.060   7.422  17.143  0.4013 -1.0966  0.0263
  168DOPC    HA20372   2.150   7.359  17.126  0.4102 -1.4231  1.1833
  168DOPC    HB20373   2.092   7.489  17.225 -0.3653  0.6269 -1.0334
  168DOPC    C220374   2.032   7.492  17.004  0.3172  0.7015 -0.3871
  168DOPC    HS20375   1.929   7.535  17.004  0.7147  1.6747 -0.3958
  168DOPC   O2120376   2.056   7.388  16.904 -0.0148  0.3654  0.3011
  168DOPC   C2120377   2.014   7.408  16.783  0.3007  0.6845 -0.8154
  168DOPC   O2220378   1.940   7.497  16.745 -0.1774 -0.0847 -0.0136
  168DOPC   C2220379   2.068   7.300  16.696 -0.9116  0.1888 -0.8741
  168DOPC   H2R20380   2.060   7.203  16.751  1.5872  0.3719 -0.0267
  168DOPC   H2S20381   2.177   7.317  16.680 -0.0446 -3.7158 -0.2924
  168DOPC    C320382   2.130   7.608  16.986  0.0124  0.1194 -0.0599
  168DOPC    HX20383   2.231   7.562  16.993  0.0951 -0.1328 -2.2109
  168DOPC    HY20384   2.131   7.665  17.082  0.2173 -0.3102  0.1932
  168DOPC   O3120385   2.112   7.676  16.860  0.4786  0.3791 -0.0287
  168DOPC   C3120386   2.033   7.775  16.873  0.7002 -0.4194  0.3804
  168DOPC   O3220387   1.989   7.825  16.979  0.2385 -0.3533  0.8018
  168DOPC   C3220388   2.011   7.842  16.737  0.0539  0.1911 -0.0966
  168DOPC   H2X20389   2.096   7.906  16.706 -0.2896  1.8522  2.1454
  168DOPC   H2Y20390   2.014   7.755  16.668 -1.6171 -2.0119  2.4114
  168DOPC   C2320391   2.001   7.281  16.565 -0.8075 -0.3780 -0.4751
  168DOPC   H3R20392   2.003   7.373  16.504 -2.1187 -1.9295 -2.9953
  168DOPC   H3S20393   1.895   7.256  16.587 -0.8843  0.1137 -0.2603
  168DOPC   C2420394   2.060   7.170  16.483 -0.0819 -0.1096 -0.3373
  168DOPC   H4R20395   2.056   7.070  16.531 -1.2363 -0.6579 -1.4977
  168DOPC   H4S20396   2.169   7.188  16.476 -0.4503  2.4483 -0.3333
  168DOPC   C2520397   1.993   7.169  16.349  0.2230 -0.1946 -0.8346
  168DOPC   H5R20398   2.067   7.110  16.290  1.8050  1.3009 -0.4249
  168DOPC   H5S20399   1.988   7.262  16.290  0.7310 -0.1628 -0.8249
  168DOPC   C2620400   1.860   7.096  16.355  0.8318 -0.0565 -0.5809
  168DOPC   H6R20401   1.795   7.148  16.429  1.9745  2.8999 -1.5198
  168DOPC   H6S20402   1.878   6.994  16.394  1.6406  0.0003 -0.8071
  168DOPC   C2720403   1.783   7.087  16.224  1.0804  1.0615 -0.4256
  168DOPC   H7R20404   1.844   7.025  16.155 -1.6390 -0.3108 -1.7439
  168DOPC   H7S20405   1.767   7.185  16.175  1.3229  0.7476 -1.1487
  168DOPC   C2820406   1.653   7.013  16.256  0.0421 -1.2715 -0.4464
  168DOPC   H8R20407   1.666   6.936  16.335  1.8713 -0.8657 -0.3022
  168DOPC   H8S20408   1.620   6.970  16.159 -0.9253  0.3492 -0.8587
  168DOPC   C2920409   1.553   7.109  16.302  0.4043 -0.6833  0.3737
  168DOPC   H9R20410   1.593   7.169  16.385  0.9097 -0.4510 -0.0328
  168DOPC  C21020411   1.419   7.118  16.259 -0.0023  0.1292 -0.1296
  168DOPC  H10R20412   1.345   7.183  16.308 -3.4035 -1.7598 -2.3844
  168DOPC  C21120413   1.359   7.031  16.147 -0.4605 -0.0148 -0.3007
  168DOPC  H11R20414   1.307   6.945  16.194 -1.3962  1.0329  0.6321
  168DOPC  H11S20415   1.435   6.977  16.087  0.2417  0.6347 -0.0136
  168DOPC  C21220416   1.284   7.113  16.040 -0.0146  0.3894  0.6180
  168DOPC  H12R20417   1.346   7.203  16.020  0.3956  0.1651  0.8680
  168DOPC  H12S20418   1.186   7.149  16.079 -0.1314  2.5842 -1.4820
  168DOPC  C21320419   1.257   7.038  15.902  0.1972 -0.5682  0.0519
  168DOPC  H13R20420   1.214   6.940  15.933  0.4399 -0.2752  1.3533
  168DOPC  H13S20421   1.355   7.021  15.852 -0.8722 -0.4521 -2.2247
  168DOPC  C21420422   1.166   7.123  15.809  0.5667  0.1542 -0.4612
  168DOPC  H14R20423   1.211   7.223  15.792  0.3578  0.1250 -1.2184
  168DOPC  H14S20424   1.065   7.146  15.850  1.4322  3.4139  0.0997
  168DOPC  C21520425   1.158   7.052  15.671 -0.5852  0.3493  0.0621
  168DOPC  H15R20426   1.056   7.064  15.630 -0.9836 -2.7593 -0.0731
  168DOPC  H15S20427   1.162   6.942  15.684  0.4441  0.2866 -0.6521
  168DOPC  C21620428   1.269   7.096  15.575 -0.1210  0.0809  0.3986
  168DOPC  H16R20429   1.371   7.072  15.612 -0.3867 -1.0934  0.4359
  168DOPC  H16S20430   1.258   7.206  15.562 -3.3676 -0.1977 -0.3125
  168DOPC  C21720431   1.245   7.038  15.434 -0.3717 -0.5950  0.1469
  168DOPC  H17R20432   1.135   7.031  15.418 -1.0728  0.9098  3.3598
  168DOPC  H17S20433   1.302   6.944  15.423 -0.2454 -0.8304  2.4500
  168DOPC  C21820434   1.290   7.124  15.313 -0.2325  0.0282  0.4070
  168DOPC  H18R20435   1.226   7.214  15.326 -2.1672 -1.4022  1.3086
  168DOPC  H18S20436   1.269   7.087  15.210  0.8485  1.2608 -0.2923
  168DOPC  H18T20437   1.398   7.151  15.317 -0.7887  2.5112  0.6132
  168DOPC   C3320438   1.875   7.911  16.722 -0.1945 -0.6596  0.0724
  168DOPC   H3X20439   1.868   8.003  16.784 -0.3567 -0.4062 -0.3182
  168DOPC   H3Y20440   1.791   7.846  16.755 -2.2248  0.9723 -1.5993
  168DOPC   C3420441   1.848   7.969  16.581 -0.2155 -0.4580  0.4561
  168DOPC   H4X20442   1.738   7.986  16.584 -0.2358  0.5365 -2.4478
  168DOPC   H4Y20443   1.861   7.897  16.498  0.2200  1.2909 -1.0769
  168DOPC   C3520444   1.945   8.077  16.526 -0.8241  0.4993  0.3438
  168DOPC   H5X20445   2.050   8.039  16.536 -1.5027 -1.8242 -0.6779
  168DOPC   H5Y20446   1.929   8.165  16.592 -0.2326  0.6203  0.3400
  168DOPC   C3620447   1.909   8.117  16.382 -0.1567 -0.4827  0.1792
  168DOPC   H6X20448   1.804   8.153  16.378 -0.1934 -0.5570  0.4770
  168DOPC   H6Y20449   1.968   8.209  16.362 -1.5711  1.0563  2.5705
  168DOPC   C3720450   1.944   8.014  16.274 -0.3769 -0.0793 -0.3947
  168DOPC   H7X20451   2.052   7.996  16.293 -0.1548  1.2905 -0.2431
  168DOPC   H7Y20452   1.891   7.917  16.285 -1.7626  0.5567 -1.2507
  168DOPC   C3820453   1.923   8.051  16.128  0.2350  0.1779  1.0531
  168DOPC   H8X20454   1.959   8.151  16.093  0.2554 -0.7795 -2.0173
  168DOPC   H8Y20455   1.813   8.047  16.116  0.4707 -0.6963 -1.3149
  168DOPC   C3920456   1.977   7.943  16.040  0.2691 -0.5248  0.4907
  168DOPC   H9X20457   1.997   7.851  16.096  1.7422  1.6890  3.9886
  168DOPC  C31020458   2.020   7.968  15.913  0.6236 -0.1796  0.4996
  168DOPC  H10X20459   2.063   7.884  15.855 -1.3438 -0.1413 -1.1644
  168DOPC  C31120460   2.014   8.096  15.831 -0.1540 -0.4471 -0.3524
  168DOPC  H11X20461   2.116   8.125  15.797  0.2141 -1.2708  0.0338
  168DOPC  H11Y20462   1.975   8.182  15.890  1.8038  1.9492 -2.3212
  168DOPC  C31220463   1.935   8.069  15.706  0.2143 -0.6246  0.8802
  168DOPC  H12X20464   1.943   8.156  15.637 -1.8994 -0.6245  0.5670
  168DOPC  H12Y20465   1.826   8.062  15.723 -0.0453 -1.3350 -0.8752
  168DOPC  C31320466   1.987   7.948  15.620  0.3903  0.1704 -0.1543
  168DOPC  H13X20467   2.098   7.941  15.619  0.3716 -1.3929  1.8939
  168DOPC  H13Y20468   1.956   7.856  15.675  0.2175  1.8671  2.8332
  168DOPC  C31420469   1.924   7.941  15.477  0.4715 -0.4250  0.0384
  168DOPC  H14X20470   1.813   7.932  15.481  0.1930  1.8465 -0.9878
  168DOPC  H14Y20471   1.946   8.036  15.423  0.3130  0.0268  0.7434
  168DOPC  C31520472   1.989   7.841  15.383 -0.2255  0.6558 -0.6323
  168DOPC  H15X20473   2.006   7.749  15.443  1.3547 -0.5272 -2.7767
  168DOPC  H15Y20474   2.083   7.891  15.353  0.1546  0.9944  1.0359
  168DOPC  C31620475   1.906   7.809  15.256  0.4772 -0.4683  0.6636
  168DOPC  H16X20476   1.814   7.750  15.274 -0.3686  0.2856 -0.9829
  168DOPC  H16Y20477   1.875   7.904  15.207 -2.1901 -1.4786  0.2350
  168DOPC  C31720478   1.997   7.736  15.161  0.8870 -0.2070  0.2307
  168DOPC  H17X20479   2.096   7.786  15.157  1.0971 -0.5723  0.7087
  168DOPC  H17Y20480   2.006   7.633  15.203 -1.8398 -0.5427  0.1610
  168DOPC  C31820481   1.929   7.717  15.023  0.3371 -0.3129 -0.3061
  168DOPC  H18X20482   1.882   7.812  14.989 -1.1193 -0.7434  0.4168
  168DOPC  H18Y20483   2.002   7.680  14.949 -1.1183 -1.4094 -1.2448
  168DOPC  H18Z20484   1.843   7.646  15.026 -0.2885  0.4349  0.3045
  169DOPC     N20485   0.041   1.154  17.329 -0.0436  0.0868  0.1776
  169DOPC   C1220486   0.078   1.228  17.202  0.2452 -0.2363  0.1236
  169DOPC  H12A20487   0.181   1.213  17.174  0.5320  1.6813  0.0307
  169DOPC  H12B20488   0.064   1.334  17.207 -0.8906 -0.4130  1.2170
  169DOPC   C1320489   0.148   1.176  17.432 -0.0601 -0.4096  0.1460
  169DOPC  H13A20490   0.172   1.281  17.443  2.0222 -0.7454 -0.6530
  169DOPC  H13B20491   0.107   1.144  17.527 -0.8014 -0.2888 -0.1294
  169DOPC  H13C20492   0.230   1.112  17.404 -1.0992 -1.5970 -0.2829
  169DOPC   C1420493   0.011   1.006  17.308 -0.6468  0.2109  0.3808
  169DOPC  H14A20494   0.016   0.946  17.397 -1.7204 -1.4153 -0.6041
  169DOPC  H14B20495  -0.083   0.989  17.257  0.5181  0.9064 -2.1848
  169DOPC  H14C20496   0.085   0.970  17.238 -0.2491 -1.0719  1.4354
  169DOPC   C1520497  -0.088   1.215  17.374  0.2489 -0.1597  0.2758
  169DOPC  H15A20498  -0.083   1.323  17.381 -0.3280 -0.1454  0.5156
  169DOPC  H15B20499  -0.114   1.181  17.473  0.8533  2.0356  1.2571
  169DOPC  H15C20500  -0.169   1.193  17.305  0.7731  0.0845 -0.4277
  169DOPC   C1120501  -0.009   1.195  17.079 -0.0315  0.4392  0.3787
  169DOPC  H11A20502   0.039   1.223  16.983 -2.5531 -2.7928 -2.0597
  169DOPC  H11B20503  -0.019   1.085  17.072 -0.9028  0.6195 -2.7679
  169DOPC     P20504  -0.151   1.414  17.031 -0.2571 -0.5357 -0.0517
  169DOPC   O1320505  -0.056   1.492  17.115 -0.2980 -0.1083  0.7337
  169DOPC   O1420506  -0.298   1.444  17.037 -0.0902  0.3414 -0.1679
  169DOPC   O1220507  -0.135   1.264  17.087  0.4197 -0.3494  0.5876
  169DOPC   O1120508  -0.103   1.406  16.881 -0.1572  0.1383 -0.3933
  169DOPC    C120509  -0.197   1.350  16.791 -0.0227 -0.2140  0.3944
  169DOPC    HA20510  -0.192   1.403  16.693 -0.7128  1.5362  1.2447
  169DOPC    HB20511  -0.304   1.354  16.822 -0.3027  2.0325 -0.6619
  169DOPC    C220512  -0.175   1.199  16.766 -0.2927 -0.0583  0.2352
  169DOPC    HS20513  -0.184   1.148  16.865 -2.3785  0.3784  0.3124
  169DOPC   O2120514  -0.040   1.188  16.720 -0.9920 -0.0154  0.2589
  169DOPC   C2120515   0.013   1.060  16.716  0.3878 -0.1454 -0.5480
  169DOPC   O2220516  -0.044   0.958  16.747  1.0290  0.4533  0.3875
  169DOPC   C2220517   0.145   1.072  16.629 -0.0165 -0.0903  0.0207
  169DOPC   H2R20518   0.185   0.969  16.640  0.9624  0.3976  1.3225
  169DOPC   H2S20519   0.201   1.156  16.677  0.8499  0.8636 -2.5067
  169DOPC    C320520  -0.273   1.138  16.659  0.3222 -0.2639 -0.6075
  169DOPC    HX20521  -0.371   1.152  16.710  1.5108  2.0668  1.2550
  169DOPC    HY20522  -0.250   1.031  16.647  2.9688  0.2467 -0.6053
  169DOPC   O3120523  -0.272   1.216  16.534  0.9333 -0.3653 -0.1083
  169DOPC   C3120524  -0.317   1.156  16.425 -0.1568  0.0087  0.8644
  169DOPC   O3220525  -0.355   1.043  16.426 -0.2199  0.3269  0.5458
  169DOPC   C3220526  -0.319   1.253  16.307  0.6128  0.0429 -0.7226
  169DOPC   H2X20527  -0.421   1.284  16.277 -0.3862 -1.0233  1.3234
  169DOPC   H2Y20528  -0.273   1.346  16.346  0.4350 -0.0464 -0.2881
  169DOPC   C2320529   0.135   1.081  16.479  0.1420  0.0298 -0.1719
  169DOPC   H3R20530   0.235   1.100  16.433  1.6480 -0.3583  2.7231
  169DOPC   H3S20531   0.062   1.159  16.449 -1.1510 -1.0369  0.1111
  169DOPC   C2420532   0.090   0.944  16.412  0.3950 -0.1829  0.0674
  169DOPC   H4R20533  -0.015   0.923  16.444  0.4000  1.3406  1.1713
  169DOPC   H4S20534   0.148   0.860  16.455 -0.3978  0.5075  2.6676
  169DOPC   C2520535   0.097   0.951  16.258 -0.1808 -0.2770 -0.5135
  169DOPC   H5R20536   0.200   0.985  16.234 -0.0277 -1.0961 -1.0436
  169DOPC   H5S20537   0.027   1.027  16.218  1.8138  1.0570 -1.6950
  169DOPC   C2620538   0.089   0.802  16.194 -0.0819  0.1047 -0.4564
  169DOPC   H6R20539   0.002   0.758  16.247  0.2352 -0.4123 -0.3532
  169DOPC   H6S20540   0.181   0.752  16.232 -2.2420 -4.2056 -0.3119
  169DOPC   C2720541   0.069   0.808  16.039  0.3518 -0.6745 -0.0819
  169DOPC   H7R20542   0.145   0.877  15.995  0.8308 -0.3684  1.1841
  169DOPC   H7S20543  -0.028   0.856  16.016  1.0320 -0.1197 -1.9840
  169DOPC   C2820544   0.073   0.672  15.969 -0.1493  0.3008 -0.2528
  169DOPC   H8R20545   0.016   0.598  16.029  0.8070  0.8283  1.3730
  169DOPC   H8S20546   0.176   0.631  15.963  0.3459  1.2266  1.3761
  169DOPC   C2920547   0.019   0.678  15.821 -0.6822 -0.3151  0.1128
  169DOPC   H9R20548  -0.089   0.666  15.805 -0.8349 -1.8050  1.8287
  169DOPC  C21020549   0.100   0.673  15.713 -0.6427  0.6699 -0.0935
  169DOPC  H10R20550   0.053   0.672  15.614 -1.8061  0.9695  0.4310
  169DOPC  C21120551   0.255   0.680  15.712  0.5500  0.8162  0.0111
  169DOPC  H11R20552   0.307   0.582  15.717  0.9477  0.8114 -2.8513
  169DOPC  H11S20553   0.295   0.745  15.793  0.1398  2.0263 -0.7306
  169DOPC  C21220554   0.300   0.748  15.581  0.2182 -0.0264  0.8534
  169DOPC  H12R20555   0.411   0.756  15.588  0.3628 -0.6689 -0.3769
  169DOPC  H12S20556   0.258   0.851  15.574 -0.2372 -0.2158  0.8016
  169DOPC  C21320557   0.266   0.671  15.451  0.9067 -0.1763  0.1657
  169DOPC  H13R20558   0.157   0.668  15.426  1.7309  0.8435 -4.3295
  169DOPC  H13S20559   0.310   0.572  15.477  2.2414  0.7440  1.5664
  169DOPC  C21420560   0.336   0.730  15.332 -0.0881  0.2407 -0.5511
  169DOPC  H14R20561   0.440   0.717  15.369 -0.4193  2.4274  1.3990
  169DOPC  H14S20562   0.321   0.840  15.330 -0.4617  0.1808 -1.4616
  169DOPC  C21520563   0.305   0.665  15.193 -0.5710 -0.1567 -1.0304
  169DOPC  H15R20564   0.373   0.713  15.119  0.5966  1.5256  1.0012
  169DOPC  H15S20565   0.198   0.690  15.176 -1.2638 -1.1440  1.4348
  169DOPC  C21620566   0.312   0.509  15.180 -0.4256 -0.5012 -0.2954
  169DOPC  H16R20567   0.256   0.476  15.090 -3.6888  1.6138  0.8157
  169DOPC  H16S20568   0.267   0.451  15.263  1.3303 -2.1987 -0.4515
  169DOPC  C21720569   0.459   0.465  15.163 -0.2128  0.5681 -0.3787
  169DOPC  H17R20570   0.526   0.497  15.246  1.3816 -0.5438 -1.1860
  169DOPC  H17S20571   0.500   0.520  15.076  2.1981  0.6285  0.7176
  169DOPC  C21820572   0.494   0.313  15.152  0.4349 -0.1358 -0.5054
  169DOPC  H18R20573   0.604   0.299  15.150  0.3647 -1.2649  1.2963
  169DOPC  H18S20574   0.436   0.267  15.068 -0.3288 -0.4559  0.1838
  169DOPC  H18T20575   0.462   0.267  15.248  0.5503  1.3126  0.2609
  169DOPC   C3320576  -0.235   1.205  16.189 -0.2204 -0.7008  0.3075
  169DOPC   H3X20577  -0.264   1.101  16.164 -2.3965  0.2311 -1.3426
  169DOPC   H3Y20578  -0.129   1.197  16.222 -0.2875 -1.1387  0.4245
  169DOPC   C3420579  -0.263   1.284  16.056  1.1376  0.1895  0.4461
  169DOPC   H4X20580  -0.179   1.243  15.995  1.6827 -0.9511  1.8798
  169DOPC   H4Y20581  -0.252   1.393  16.071 -1.8830  0.3816  1.9841
  169DOPC   C3520582  -0.402   1.248  15.991 -0.2419  0.1127  0.1779
  169DOPC   H5X20583  -0.493   1.285  16.042 -1.1670 -2.1187  0.2690
  169DOPC   H5Y20584  -0.418   1.138  15.998 -0.8492 -0.1197 -3.0695
  169DOPC   C3620585  -0.402   1.286  15.835  0.5415 -0.2265  0.7538
  169DOPC   H6X20586  -0.298   1.294  15.796  0.4600 -0.6355  0.4466
  169DOPC   H6Y20587  -0.455   1.201  15.787 -1.8328  0.8310  1.3323
  169DOPC   C3720588  -0.476   1.415  15.801  1.2796  0.6391  0.6064
  169DOPC   H7X20589  -0.569   1.406  15.860  1.5662 -3.6571  0.7233
  169DOPC   H7Y20590  -0.420   1.500  15.845  1.9625 -0.4040  1.8451
  169DOPC   C3820591  -0.514   1.417  15.656 -0.2165  0.2354 -0.5634
  169DOPC   H8X20592  -0.573   1.507  15.627 -0.3466  0.1919 -0.4361
  169DOPC   H8Y20593  -0.583   1.335  15.627 -0.1198 -0.1769  0.3245
  169DOPC   C3920594  -0.388   1.414  15.563  0.5804 -0.2430  0.1332
  169DOPC   H9X20595  -0.309   1.345  15.596  1.6211  0.5754 -0.5948
  169DOPC  C31020596  -0.373   1.483  15.445 -0.1244  0.2159  0.4135
  169DOPC  H10X20597  -0.283   1.473  15.382  0.0506 -0.2364  0.7384
  169DOPC  C31120598  -0.478   1.556  15.370 -0.6135 -0.9707 -0.4780
  169DOPC  H11X20599  -0.571   1.552  15.430  0.2317 -1.1155  0.8455
  169DOPC  H11Y20600  -0.513   1.520  15.270  0.6047  0.0876 -1.3184
  169DOPC  C31220601  -0.434   1.705  15.362  0.2219 -0.1444 -0.1805
  169DOPC  H12X20602  -0.403   1.748  15.460 -2.1408  1.3017  0.0285
  169DOPC  H12Y20603  -0.522   1.763  15.325 -0.5599  1.2007  3.3160
  169DOPC  C31320604  -0.326   1.735  15.256  1.2169 -0.8108  0.0810
  169DOPC  H13X20605  -0.236   1.790  15.292  1.1605  0.1178 -1.1227
  169DOPC  H13Y20606  -0.289   1.637  15.221  1.8233 -0.8009  0.6672
  169DOPC  C31420607  -0.367   1.799  15.121  0.5005 -0.5556  0.9149
  169DOPC  H14X20608  -0.394   1.904  15.141  1.3620 -0.2452  0.4918
  169DOPC  H14Y20609  -0.285   1.795  15.046  0.7390 -0.1855  1.1561
  169DOPC  C31520610  -0.492   1.730  15.059  0.8359  1.2577  0.3966
  169DOPC  H15X20611  -0.574   1.761  15.127  0.8263 -1.9358  2.0070
  169DOPC  H15Y20612  -0.481   1.620  15.057 -0.5848  1.0940  0.2977
  169DOPC  C31620613  -0.517   1.791  14.922 -0.1469 -0.5594  0.3632
  169DOPC  H16X20614  -0.492   1.900  14.921  2.0419 -0.9689 -2.0008
  169DOPC  H16Y20615  -0.446   1.759  14.843 -0.2813  2.4815 -1.1770
  169DOPC  C31720616  -0.658   1.787  14.864  0.4104  0.2680 -0.6896
  169DOPC  H17X20617  -0.679   1.678  14.861  0.1226  0.3059 -0.1402
  169DOPC  H17Y20618  -0.726   1.824  14.943 -0.7875 -0.5981 -1.2749
  169DOPC  C31820619  -0.681   1.847  14.729  0.3304 -0.5447  0.0854
  169DOPC  H18X20620  -0.615   1.791  14.658 -1.1700 -1.7853 -0.3943
  169DOPC  H18Y20621  -0.789   1.824  14.712  0.6326 -2.3209  0.3154
  169DOPC  H18Z20622  -0.672   1.957  14.722 -1.7009 -0.4079 -1.2235
  170DOPC     N20623   6.749   6.650  17.202  0.2410 -0.7126 -0.0809
  170DOPC   C1220624   6.757   6.721  17.065 -0.8087  0.1598 -0.2812
  170DOPC  H12A20625   6.791   6.650  16.991 -1.2347  0.5793 -0.8915
  170DOPC  H12B20626   6.839   6.792  17.074 -0.6682  0.1582 -1.3511
  170DOPC   C1320627   6.644   6.544  17.208 -0.0506 -0.0985  0.4137
  170DOPC  H13A20628   6.553   6.570  17.156  0.6447 -0.7962 -1.2117
  170DOPC  H13B20629   6.685   6.453  17.166 -1.7401 -0.0501 -1.4689
  170DOPC  H13C20630   6.610   6.526  17.309  0.7355 -0.4179  0.6370
  170DOPC   C1420631   6.726   6.742  17.326  0.6467  0.7632  0.8401
  170DOPC  H14A20632   6.737   6.673  17.408 -0.1099 -0.1013  0.2318
  170DOPC  H14B20633   6.804   6.815  17.343  1.0355  0.7058 -0.5762
  170DOPC  H14C20634   6.625   6.780  17.315  0.4937  0.1934  0.2215
  170DOPC   C1520635   6.888   6.604  17.227 -0.2522  0.5843 -0.5259
  170DOPC  H15A20636   6.916   6.521  17.165 -1.5338 -1.0628  1.0065
  170DOPC  H15B20637   6.902   6.571  17.329  1.9329 -0.5454 -1.1513
  170DOPC  H15C20638   6.958   6.684  17.210  3.3275 -2.3102 -0.4117
  170DOPC   C1120639   6.635   6.811  17.021 -0.7173  0.0923  0.4394
  170DOPC  H11A20640   6.661   6.857  16.923 -0.4542  1.1087  0.9727
  170DOPC  H11B20641   6.550   6.742  17.004 -0.8486  0.4554 -0.4656
  170DOPC     P20642   6.671   7.049  17.124 -0.0451  0.3896  0.2605
  170DOPC   O1320643   6.817   7.016  17.133 -0.2092  0.0309  0.2085
  170DOPC   O1420644   6.622   7.120  17.242 -0.5267 -0.0920  0.2737
  170DOPC   O1220645   6.593   6.910  17.112 -0.0608  0.1700  0.6039
  170DOPC   O1120646   6.652   7.134  16.998  0.2690 -0.3222  0.1464
  170DOPC    C120647   6.524   7.163  16.936  0.6175  0.3123 -0.3870
  170DOPC    HA20648   6.522   7.270  16.906  0.4207  0.5093  0.2953
  170DOPC    HB20649   6.442   7.160  17.011  1.5009 -1.9043  0.6009
  170DOPC    C220650   6.480   7.085  16.806  0.0906  0.0707 -0.8279
  170DOPC    HS20651   6.388   7.133  16.765 -0.6948  0.5885  1.4201
  170DOPC   O2120652   6.451   6.946  16.834 -0.2675 -0.1656  0.2576
  170DOPC   C2120653   6.333   6.924  16.883 -0.2016  0.2671  1.0052
  170DOPC   O2220654   6.257   7.007  16.933  0.2920 -0.1362 -0.4907
  170DOPC   C2220655   6.298   6.778  16.855 -0.2951  0.0896 -0.7566
  170DOPC   H2R20656   6.267   6.738  16.954  2.5111  0.4594  0.3893
  170DOPC   H2S20657   6.389   6.718  16.834 -1.5544 -1.7354 -1.2472
  170DOPC    C320658   6.599   7.092  16.703 -0.0153 -0.8109  0.0428
  170DOPC    HX20659   6.689   7.038  16.742  0.6539 -0.6828 -1.2825
  170DOPC    HY20660   6.642   7.194  16.703  1.1559 -1.2761 -1.7533
  170DOPC   O3120661   6.553   7.050  16.570  0.5207 -0.5161  0.1226
  170DOPC   C3120662   6.513   7.155  16.500 -0.0807 -0.2577  0.5034
  170DOPC   O3220663   6.497   7.270  16.543 -0.2218  0.0564  0.6991
  170DOPC   C3220664   6.501   7.124  16.351 -0.6844  0.1045  0.7937
  170DOPC   H2X20665   6.603   7.110  16.309 -0.6190 -0.6666  1.2043
  170DOPC   H2Y20666   6.448   7.027  16.337  1.0452 -0.7163 -0.4457
  170DOPC   C2320667   6.179   6.761  16.753  0.3035  0.2857 -0.1506
  170DOPC   H3R20668   6.110   6.842  16.785  1.4399  1.1848  0.0854
  170DOPC   H3S20669   6.133   6.660  16.761  1.2106 -0.2264 -1.0727
  170DOPC   C2420670   6.215   6.778  16.606 -0.6377  0.0913 -0.2284
  170DOPC   H4R20671   6.265   6.878  16.600  1.0718 -0.6332  1.1217
  170DOPC   H4S20672   6.118   6.781  16.553 -0.9826  3.5956  0.3064
  170DOPC   C2520673   6.308   6.664  16.563  0.1285 -0.5734 -0.2051
  170DOPC   H5R20674   6.266   6.562  16.572  0.7934 -0.7786  0.7063
  170DOPC   H5S20675   6.402   6.665  16.623  0.9330 -2.4313 -1.3609
  170DOPC   C2620676   6.367   6.681  16.417  0.7113 -1.0773  0.5437
  170DOPC   H6R20677   6.450   6.607  16.413  0.9866 -0.7361 -0.1610
  170DOPC   H6S20678   6.410   6.783  16.410 -0.9951 -0.2476  1.5280
  170DOPC   C2720679   6.252   6.659  16.311 -0.0141  0.7231 -0.0996
  170DOPC   H7R20680   6.177   6.736  16.337  0.6465  1.3472  0.0055
  170DOPC   H7S20681   6.199   6.563  16.327 -0.4537  1.1315  0.9484
  170DOPC   C2820682   6.278   6.680  16.163 -0.4102  0.0910  0.4028
  170DOPC   H8R20683   6.293   6.790  16.158  1.0617 -0.1459 -1.0942
  170DOPC   H8S20684   6.186   6.646  16.111  0.6112  0.0454 -1.4554
  170DOPC   C2920685   6.395   6.597  16.112  0.2364 -0.1387 -0.6532
  170DOPC   H9R20686   6.494   6.638  16.133 -0.5973  0.2546  3.2680
  170DOPC  C21020687   6.386   6.480  16.045  0.1108 -0.1725  0.8657
  170DOPC  H10R20688   6.480   6.441  16.004  0.0612  0.0991  0.4893
  170DOPC  C21120689   6.265   6.410  15.994  0.7028 -0.0576 -0.3428
  170DOPC  H11R20690   6.176   6.416  16.061  1.0861 -1.5403  0.3343
  170DOPC  H11S20691   6.286   6.301  15.999 -0.3187 -0.3749 -1.9874
  170DOPC  C21220692   6.236   6.442  15.844 -0.2495  0.7974 -0.1286
  170DOPC  H12R20693   6.264   6.549  15.834 -1.5674  1.1626 -0.1168
  170DOPC  H12S20694   6.129   6.425  15.819 -0.4907  1.3005  0.5446
  170DOPC  C21320695   6.335   6.356  15.762 -0.0818  0.2726 -0.5436
  170DOPC  H13R20696   6.326   6.249  15.790  5.2728 -0.7661 -1.5819
  170DOPC  H13S20697   6.440   6.370  15.798 -1.1183 -0.4877  3.1676
  170DOPC  C21420698   6.323   6.376  15.613  0.4557  0.4437  0.0283
  170DOPC  H14R20699   6.359   6.478  15.588 -0.4220  1.0887  1.3279
  170DOPC  H14S20700   6.213   6.382  15.602  0.5505 -0.4933 -2.1092
  170DOPC  C21520701   6.380   6.274  15.519 -0.2353  0.3880  0.2040
  170DOPC  H15R20702   6.365   6.310  15.415  0.4547  1.0665  0.3305
  170DOPC  H15S20703   6.321   6.182  15.536  0.1699  0.1672  0.4203
  170DOPC  C21620704   6.526   6.258  15.558 -0.2111 -0.2361  0.3867
  170DOPC  H16R20705   6.540   6.226  15.663  0.1754  1.9467  1.0585
  170DOPC  H16S20706   6.573   6.358  15.548 -1.1645  0.1819  0.0049
  170DOPC  C21720707   6.614   6.155  15.476 -0.2285 -0.1344  0.5301
  170DOPC  H17R20708   6.593   6.164  15.367  1.5180 -0.6091  0.1196
  170DOPC  H17S20709   6.588   6.053  15.512 -0.6013 -0.8619 -1.6471
  170DOPC  C21820710   6.764   6.186  15.502 -0.3080 -0.5738 -0.2910
  170DOPC  H18R20711   6.805   6.159  15.601  1.4885  1.4833 -0.3992
  170DOPC  H18S20712   6.782   6.294  15.483 -2.0804 -0.4498 -1.4769
  170DOPC  H18T20713   6.821   6.126  15.428 -1.3091 -1.1505 -0.6051
  170DOPC   C3320714   6.430   7.227  16.263  0.4101  0.4488  0.6689
  170DOPC   H3X20715   6.474   7.327  16.287 -1.0622  1.3093 -0.0826
  170DOPC   H3Y20716   6.320   7.236  16.276  0.3020 -0.7219  0.6753
  170DOPC   C3420717   6.454   7.198  16.116 -0.9930 -0.4374 -0.5273
  170DOPC   H4X20718   6.564   7.206  16.104 -0.5699 -2.9535  0.9146
  170DOPC   H4Y20719   6.405   7.275  16.053 -0.1906 -0.2380 -0.9245
  170DOPC   C3520720   6.413   7.063  16.072 -0.0726 -0.0813  0.9513
  170DOPC   H5X20721   6.311   7.039  16.106 -0.5117 -2.1409 -1.4882
  170DOPC   H5Y20722   6.477   6.988  16.124  1.4133 -1.8466 -3.0071
  170DOPC   C3620723   6.421   7.033  15.924  0.2779 -0.2083 -0.1126
  170DOPC   H6X20724   6.373   7.109  15.859  0.2158 -2.0300 -2.3506
  170DOPC   H6Y20725   6.529   7.041  15.896  0.2169  2.2624  0.1415
  170DOPC   C3720726   6.353   6.897  15.876  0.2151 -0.4258  0.0097
  170DOPC   H7X20727   6.408   6.813  15.922 -1.2169 -2.0228 -1.0729
  170DOPC   H7Y20728   6.248   6.905  15.912  0.2605  2.4319 -0.2646
  170DOPC   C3820729   6.362   6.887  15.724  0.3082 -0.1736 -0.0222
  170DOPC   H8X20730   6.308   6.975  15.683  0.5724 -0.5477 -1.2390
  170DOPC   H8Y20731   6.306   6.793  15.703 -2.2633  1.1731  0.3134
  170DOPC   C3920732   6.497   6.863  15.661 -0.5799 -0.4182  0.5567
  170DOPC   H9X20733   6.543   6.765  15.678 -1.1913 -0.5995  1.2693
  170DOPC  C31020734   6.567   6.953  15.590 -0.3027 -0.0248 -0.7344
  170DOPC  H10X20735   6.660   6.927  15.537 -0.8675 -1.6981 -0.9547
  170DOPC  C31120736   6.527   7.100  15.572  0.1029  0.6861  0.3253
  170DOPC  H11X20737   6.587   7.160  15.643  0.5441 -0.2700  0.7815
  170DOPC  H11Y20738   6.419   7.118  15.591  0.3161  0.9116  1.3849
  170DOPC  C31220739   6.570   7.152  15.433 -0.3768  0.3724 -0.5480
  170DOPC  H12X20740   6.677   7.126  15.427 -0.9701 -3.6483  2.4271
  170DOPC  H12Y20741   6.564   7.263  15.436 -0.7683  0.3546  2.5434
  170DOPC  C31320742   6.491   7.094  15.318  1.0437  0.2208 -0.2048
  170DOPC  H13X20743   6.510   6.986  15.300 -0.6954  0.0232 -1.1121
  170DOPC  H13Y20744   6.382   7.100  15.340  1.0562  0.2218 -0.1449
  170DOPC  C31420745   6.520   7.165  15.194 -0.0792 -0.7632  0.6822
  170DOPC  H14X20746   6.513   7.275  15.206 -1.0917 -0.0711 -4.1684
  170DOPC  H14Y20747   6.622   7.146  15.155 -1.0220 -0.4364 -2.1717
  170DOPC  C31520748   6.431   7.109  15.075  0.4676 -0.4831  0.4344
  170DOPC  H15X20749   6.416   7.000  15.089  0.5701 -0.3704  1.4938
  170DOPC  H15Y20750   6.485   7.123  14.978 -0.1193 -1.7288 -0.0952
  170DOPC  C31620751   6.288   7.164  15.052 -0.9340  0.2116  0.0692
  170DOPC  H16X20752   6.225   7.144  15.141  2.0857 -1.2575  2.0256
  170DOPC  H16Y20753   6.301   7.275  15.049  0.9315  0.1125  2.1310
  170DOPC  C31720754   6.224   7.114  14.922  0.3607  0.3445  0.7008
  170DOPC  H17X20755   6.115   7.132  14.931  0.1298 -0.6387  0.0611
  170DOPC  H17Y20756   6.256   7.177  14.837 -4.0120  1.9457 -0.0125
  170DOPC  C31820757   6.249   6.964  14.888 -0.3143 -0.3104 -0.0963
  170DOPC  H18X20758   6.347   6.955  14.836  0.2641 -0.8984  1.0654
  170DOPC  H18Y20759   6.265   6.901  14.978 -0.3395  0.4038  0.4159
  170DOPC  H18Z20760   6.173   6.916  14.823 -0.1271  0.4687 -0.9117
  171DOPC     N20761   4.130   2.200  12.269  0.7826  0.3816 -0.4986
  171DOPC   C1220762   4.068   2.145  12.405 -0.3514  0.0433  0.1478
  171DOPC  H12A20763   4.148   2.088  12.449 -0.7161 -0.7519 -0.1898
  171DOPC  H12B20764   3.983   2.080  12.390  0.4892 -0.5677 -2.5360
  171DOPC   C1320765   4.022   2.287  12.205 -0.7133  0.5313  0.2061
  171DOPC  H13A20766   4.064   2.337  12.118 -2.4306  3.6937  1.0224
  171DOPC  H13B20767   3.938   2.225  12.178 -0.1514 -0.4051  0.5796
  171DOPC  H13C20768   3.991   2.361  12.278  0.8806  1.8404 -0.3743
  171DOPC   C1420769   4.170   2.084  12.188 -0.1836  0.3147 -0.4694
  171DOPC  H14A20770   4.088   2.015  12.178 -0.3372  0.1458  1.4819
  171DOPC  H14B20771   4.201   2.101  12.086  1.5129 -1.4477 -0.3063
  171DOPC  H14C20772   4.256   2.043  12.240 -0.6295  0.1402  0.1495
  171DOPC   C1520773   4.238   2.287  12.294 -0.3193  0.0986 -0.1772
  171DOPC  H15A20774   4.293   2.321  12.208 -2.1061  0.3988 -1.2512
  171DOPC  H15B20775   4.310   2.244  12.362 -0.1648  0.6862  0.0337
  171DOPC  H15C20776   4.206   2.380  12.337  0.0334  0.9564 -1.7095
  171DOPC   C1120777   4.028   2.250  12.513  0.2221  0.0584 -0.4132
  171DOPC  H11A20778   4.002   2.203  12.610 -1.0598 -0.0634 -0.7939
  171DOPC  H11B20779   4.111   2.322  12.528  0.2639 -0.1276  0.2768
  171DOPC     P20780   3.859   2.441  12.547  0.2089  0.0261  0.2588
  171DOPC   O1320781   3.738   2.489  12.475  0.3314  0.4380  0.2785
  171DOPC   O1420782   3.966   2.546  12.564  0.1149  1.6667  0.1640
  171DOPC   O1220783   3.912   2.320  12.462  0.1331 -0.2225 -0.4061
  171DOPC   O1120784   3.825   2.379  12.693  0.4796 -0.6235 -0.0141
  171DOPC    C120785   3.773   2.253  12.712  0.0388  0.5124 -0.2078
  171DOPC    HA20786   3.836   2.216  12.796 -0.0295  2.6445  0.8823
  171DOPC    HB20787   3.771   2.190  12.621 -0.9933 -0.4238  0.4346
  171DOPC    C220788   3.631   2.257  12.763 -0.7154  0.3877 -0.8102
  171DOPC    HS20789   3.569   2.316  12.691 -0.5672 -1.5004 -2.5581
  171DOPC   O2120790   3.628   2.307  12.899  0.6965 -0.0058  0.2264
  171DOPC   C2120791   3.622   2.440  12.915 -0.0751 -0.3703  0.8911
  171DOPC   O2220792   3.616   2.526  12.826 -0.3721 -0.8296 -0.5779
  171DOPC   C2220793   3.609   2.461  13.063 -0.4406 -1.1414 -0.1769
  171DOPC   H2R20794   3.700   2.425  13.116 -1.2353  0.8894  2.8365
  171DOPC   H2S20795   3.522   2.400  13.097 -1.2578  0.0600 -0.0347
  171DOPC    C320796   3.560   2.123  12.759 -0.1685 -0.6076 -0.8355
  171DOPC    HX20797   3.620   2.052  12.820 -2.2851 -1.1922  0.6986
  171DOPC    HY20798   3.552   2.089  12.654  1.1016  0.9710 -1.4862
  171DOPC   O3120799   3.423   2.130  12.808  0.2405  0.2611 -0.2582
  171DOPC   C3120800   3.402   2.082  12.934  0.2550  0.8583  0.4822
  171DOPC   O3220801   3.483   2.018  13.009  0.8693 -0.0257  0.2055
  171DOPC   C3220802   3.261   2.111  12.971  0.0214 -0.4045  0.3961
  171DOPC   H2X20803   3.237   2.218  12.955 -1.1361 -0.7973 -0.6451
  171DOPC   H2Y20804   3.193   2.054  12.904  1.6744 -1.9639 -0.0229
  171DOPC   C2320805   3.578   2.612  13.091 -0.1865  0.1317 -0.1027
  171DOPC   H3R20806   3.481   2.628  13.039  0.7566 -1.2236 -2.4322
  171DOPC   H3S20807   3.660   2.678  13.053  1.9921 -2.1195  0.4268
  171DOPC   C2420808   3.552   2.653  13.240  0.3589  0.1781  0.0075
  171DOPC   H4R20809   3.450   2.625  13.274  0.5128  0.7932  1.0122
  171DOPC   H4S20810   3.557   2.764  13.246 -0.8306  0.1634  2.3872
  171DOPC   C2520811   3.671   2.609  13.330  0.5036 -0.5820  0.2170
  171DOPC   H5R20812   3.760   2.673  13.309 -0.8321  1.5328  0.7783
  171DOPC   H5S20813   3.694   2.500  13.326  0.1502 -0.6401 -0.3428
  171DOPC   C2620814   3.641   2.642  13.483 -0.3273 -0.3082  0.4694
  171DOPC   H6R20815   3.556   2.575  13.510 -0.6513 -0.0379  0.1286
  171DOPC   H6S20816   3.607   2.748  13.486  0.5100  0.0490 -1.2785
  171DOPC   C2720817   3.764   2.629  13.576 -0.7691  0.0387 -0.2590
  171DOPC   H7R20818   3.826   2.720  13.558  1.6927 -1.6894 -1.0405
  171DOPC   H7S20819   3.825   2.537  13.563  0.4678  0.5574  1.5807
  171DOPC   C2820820   3.721   2.618  13.718  0.4713 -0.2262  0.3504
  171DOPC   H8R20821   3.811   2.579  13.769 -0.1498 -0.5371  1.2307
  171DOPC   H8S20822   3.643   2.540  13.730  0.4366 -0.4964 -1.3673
  171DOPC   C2920823   3.688   2.751  13.785 -0.2574 -0.0750 -0.8114
  171DOPC   H9R20824   3.616   2.817  13.736 -1.3415 -1.6377 -1.4091
  171DOPC  C21020825   3.730   2.789  13.908  0.3990  0.2265 -0.2022
  171DOPC  H10R20826   3.690   2.888  13.935  1.6272  1.5962 -2.9519
  171DOPC  C21120827   3.822   2.719  14.003 -0.0396  0.3288  0.1565
  171DOPC  H11R20828   3.872   2.792  14.071 -0.3573  0.6140  0.0861
  171DOPC  H11S20829   3.895   2.657  13.947  0.1166  0.1734  0.5313
  171DOPC  C21220830   3.754   2.606  14.083  0.3948 -1.0833 -0.4688
  171DOPC  H12R20831   3.830   2.543  14.134  0.0651 -1.9920 -1.0799
  171DOPC  H12S20832   3.702   2.543  14.007  1.3972  0.1877 -2.2706
  171DOPC  C21320833   3.654   2.653  14.186  0.1994  0.5963 -0.3149
  171DOPC  H13R20834   3.580   2.712  14.129  0.3622 -0.0012 -1.1597
  171DOPC  H13S20835   3.704   2.701  14.273  2.1129 -2.2663  0.3248
  171DOPC  C21420836   3.566   2.537  14.249 -0.0237 -0.0644  0.3549
  171DOPC  H14R20837   3.627   2.480  14.322  0.9094  0.9789  0.4153
  171DOPC  H14S20838   3.533   2.468  14.169 -0.5986  0.9224 -0.2729
  171DOPC  C21520839   3.454   2.582  14.340 -0.0204 -0.3918 -0.0459
  171DOPC  H15R20840   3.390   2.653  14.283  2.0589 -0.0069 -2.0305
  171DOPC  H15S20841   3.501   2.639  14.423 -2.2985 -0.0522  1.0829
  171DOPC  C21620842   3.368   2.474  14.406  0.4063  0.0897 -0.2394
  171DOPC  H16R20843   3.429   2.416  14.478  3.1259 -0.0299 -2.4860
  171DOPC  H16S20844   3.343   2.403  14.325 -2.7685  1.9449 -1.0949
  171DOPC  C21720845   3.233   2.526  14.455  0.0339 -0.5952  0.2176
  171DOPC  H17R20846   3.149   2.459  14.483 -0.2264  0.0961  1.1555
  171DOPC  H17S20847   3.190   2.574  14.365  0.0858  0.3630  0.6906
  171DOPC  C21820848   3.251   2.630  14.568 -0.6912 -0.4542  0.2816
  171DOPC  H18R20849   3.290   2.597  14.667 -1.3801 -0.1312  0.6695
  171DOPC  H18S20850   3.159   2.690  14.585 -0.1029  1.0636 -1.5730
  171DOPC  H18T20851   3.317   2.714  14.540 -0.5300 -0.9653 -0.9072
  171DOPC   C3320852   3.243   2.074  13.124 -0.0226  0.2855 -0.4725
  171DOPC   H3X20853   3.270   1.967  13.141  0.5458  0.5964  0.6674
  171DOPC   H3Y20854   3.134   2.075  13.143  0.0681 -1.8047  0.4927
  171DOPC   C3420855   3.319   2.166  13.219  0.3996  0.1961 -0.3043
  171DOPC   H4X20856   3.289   2.272  13.207  1.7004  0.6611  0.3971
  171DOPC   H4Y20857   3.429   2.172  13.206  0.4976  0.3538  0.5740
  171DOPC   C3520858   3.300   2.119  13.366  0.0087 -0.2844 -0.7663
  171DOPC   H5X20859   3.328   2.012  13.372  1.2619  0.0464 -0.1744
  171DOPC   H5Y20860   3.195   2.147  13.387  0.2924  1.5480 -1.5697
  171DOPC   C3620861   3.395   2.181  13.470  0.3264 -0.5660 -0.2521
  171DOPC   H6X20862   3.500   2.145  13.459 -0.4303 -3.5908  1.1826
  171DOPC   H6Y20863   3.403   2.291  13.473 -1.9469 -0.3571  0.1422
  171DOPC   C3720864   3.353   2.153  13.618 -0.1083 -0.5529  0.0605
  171DOPC   H7X20865   3.349   2.045  13.640  3.6345 -0.3011  2.9886
  171DOPC   H7Y20866   3.440   2.186  13.679 -0.9633  1.1094  0.4698
  171DOPC   C3820867   3.241   2.253  13.675  0.4168 -0.3285  0.4169
  171DOPC   H8X20868   3.157   2.229  13.606 -0.0142 -2.8378  1.6778
  171DOPC   H8Y20869   3.278   2.356  13.659  1.9408 -0.8607  0.3197
  171DOPC   C3920870   3.202   2.225  13.818 -0.2351  0.6146  0.3286
  171DOPC   H9X20871   3.112   2.162  13.828  0.0147 -0.0319 -1.2051
  171DOPC  C31020872   3.249   2.276  13.931  0.3587 -0.5343 -0.2422
  171DOPC  H10X20873   3.207   2.237  14.025  0.1637 -2.7047 -1.1601
  171DOPC  C31120874   3.345   2.392  13.936  0.0265 -0.7592  0.7948
  171DOPC  H11X20875   3.395   2.425  13.842  1.0538  0.0611  1.6039
  171DOPC  H11Y20876   3.423   2.359  14.009 -0.0597  2.6357  2.6507
  171DOPC  C31220877   3.304   2.521  14.006  0.6571 -1.1653  0.2514
  171DOPC  H12X20878   3.390   2.576  14.048 -0.9608 -0.1769  2.4958
  171DOPC  H12Y20879   3.235   2.490  14.087 -2.8296  0.4770 -1.8174
  171DOPC  C31320880   3.234   2.633  13.918  0.3079 -0.6156  0.0463
  171DOPC  H13X20881   3.131   2.612  13.881  0.1391 -0.0764  0.2025
  171DOPC  H13Y20882   3.253   2.729  13.970  4.9764 -0.5133 -1.4033
  171DOPC  C31420883   3.303   2.668  13.787 -0.0953  0.4444 -0.0699
  171DOPC  H14X20884   3.407   2.702  13.807 -0.2587  0.1429  1.4023
  171DOPC  H14Y20885   3.303   2.584  13.715 -2.0902  0.3611 -0.0293
  171DOPC  C31520886   3.240   2.779  13.706 -0.1451 -0.0320  0.1706
  171DOPC  H15X20887   3.257   2.875  13.758  1.5121  1.3045 -2.5974
  171DOPC  H15Y20888   3.129   2.772  13.697 -0.1785 -0.0585  0.5792
  171DOPC  C31620889   3.301   2.800  13.568  0.5539  0.4488  0.4241
  171DOPC  H16X20890   3.407   2.825  13.586  0.2853  1.2917  0.8876
  171DOPC  H16Y20891   3.277   2.718  13.496 -1.4246  1.9010 -0.6546
  171DOPC  C31720892   3.237   2.922  13.499  0.8088 -0.7965 -0.6283
  171DOPC  H17X20893   3.127   2.921  13.481  0.3925  2.6432  0.9456
  171DOPC  H17Y20894   3.259   3.008  13.565 -1.1499 -0.6316 -0.1307
  171DOPC  C31820895   3.302   2.952  13.363 -0.7532  0.4651 -0.3682
  171DOPC  H18X20896   3.269   2.877  13.288  0.4731 -0.7353  0.2591
  171DOPC  H18Y20897   3.283   3.057  13.331 -1.6100  0.6917  0.8254
  171DOPC  H18Z20898   3.412   2.939  13.373 -0.6159  1.1592 -0.8817
  172DOPC     N20899   3.171   2.944  12.414  0.3263 -0.1400 -0.4039
  172DOPC   C1220900   3.227   3.076  12.457  0.5759 -0.1431  0.3989
  172DOPC  H12A20901   3.208   3.152  12.382 -0.2180  1.0110  1.7310
  172DOPC  H12B20902   3.335   3.069  12.459  0.5411 -2.3960 -1.6195
  172DOPC   C1320903   3.146   2.844  12.521  0.6864 -0.6792  0.2576
  172DOPC  H13A20904   3.235   2.796  12.559 -0.4824 -2.3329  1.0337
  172DOPC  H13B20905   3.090   2.886  12.603  0.3745 -0.7355  0.0720
  172DOPC  H13C20906   3.090   2.761  12.479 -0.9968  0.3600  0.3682
  172DOPC   C1420907   3.273   2.890  12.320 -0.2336 -0.0769  0.5737
  172DOPC  H14A20908   3.297   2.976  12.259 -0.2818 -0.8066 -0.5113
  172DOPC  H14B20909   3.365   2.855  12.366 -0.9503 -3.3559 -0.1980
  172DOPC  H14C20910   3.226   2.806  12.271 -0.4737 -0.4416  1.4144
  172DOPC   C1520911   3.042   2.969  12.347  0.3483 -0.9162  0.1157
  172DOPC  H15A20912   2.998   2.874  12.320 -0.7057 -0.8746  1.5972
  172DOPC  H15B20913   3.053   3.027  12.256  0.9535  0.0391  0.7804
  172DOPC  H15C20914   2.968   3.007  12.416 -0.3045  1.8392 -1.9164
  172DOPC   C1120915   3.168   3.138  12.584 -0.2024 -0.2325  0.4271
  172DOPC  H11A20916   3.198   3.078  12.673  0.7440  0.8499  0.8769
  172DOPC  H11B20917   3.225   3.234  12.590 -0.3843  0.1212 -2.2377
  172DOPC     P20918   2.914   3.102  12.675 -0.0120 -0.3645  0.2801
  172DOPC   O1320919   2.959   2.979  12.734  0.1557  0.2626  0.0054
  172DOPC   O1420920   2.782   3.104  12.609  0.3685 -0.2207 -0.7176
  172DOPC   O1220921   3.019   3.157  12.572 -0.3436 -0.2902 -0.1472
  172DOPC   O1120922   2.906   3.205  12.797  0.1369  0.6670 -0.5736
  172DOPC    C120923   3.021   3.270  12.851 -0.4423 -0.0619 -1.1823
  172DOPC    HA20924   3.057   3.354  12.788  0.3779  1.4672  1.1911
  172DOPC    HB20925   3.106   3.199  12.862  1.2921  2.1105  0.2505
  172DOPC    C220926   2.986   3.327  12.993 -0.0859 -0.7137 -0.3922
  172DOPC    HS20927   3.081   3.374  13.027 -0.6708  0.5082 -0.3726
  172DOPC   O2120928   2.931   3.229  13.085  0.2112  0.5318 -0.3507
  172DOPC   C2120929   3.013   3.137  13.131  0.4609 -0.5056 -0.1236
  172DOPC   O2220930   3.131   3.134  13.121  0.4482  0.1112 -0.2061
  172DOPC   C2220931   2.928   3.031  13.214  0.0820  0.3364  0.2140
  172DOPC   H2R20932   2.992   2.958  13.267 -1.0202 -0.1783  0.8667
  172DOPC   H2S20933   2.863   2.975  13.144 -2.1357 -0.2488  2.5777
  172DOPC    C320934   2.892   3.447  12.985  0.7025  0.4161  0.2599
  172DOPC    HX20935   2.800   3.419  12.929  1.8278 -1.7714 -0.6209
  172DOPC    HY20936   2.939   3.529  12.928  0.5072  1.6641  1.8239
  172DOPC   O3120937   2.873   3.505  13.119 -0.2674 -0.1540 -0.4592
  172DOPC   C3120938   2.768   3.469  13.190 -0.1124  0.1918  0.1144
  172DOPC   O3220939   2.683   3.386  13.160  0.6730 -0.4078 -0.2581
  172DOPC   C3220940   2.782   3.532  13.325  0.2279  0.0462 -0.1349
  172DOPC   H2X20941   2.879   3.504  13.370  0.0241 -1.0232 -0.3286
  172DOPC   H2Y20942   2.779   3.640  13.300  0.3319 -0.3221 -1.8723
  172DOPC   C2320943   2.840   3.088  13.320  0.1805  0.1749  0.6654
  172DOPC   H3R20944   2.773   3.015  13.371 -0.1549 -0.7085 -0.9764
  172DOPC   H3S20945   2.773   3.165  13.275  0.7981 -0.6063 -1.7100
  172DOPC   C2420946   2.910   3.159  13.436 -0.3045  0.0236 -0.9491
  172DOPC   H4R20947   2.929   3.261  13.398  0.9203 -0.4001 -1.5243
  172DOPC   H4S20948   3.006   3.108  13.460  0.9528  2.7377  0.2009
  172DOPC   C2520949   2.825   3.175  13.566 -0.1925 -0.9026 -0.0147
  172DOPC   H5R20950   2.717   3.193  13.547 -0.3607 -1.8014  0.0502
  172DOPC   H5S20951   2.865   3.264  13.619 -0.2345 -0.2795 -0.9906
  172DOPC   C2620952   2.838   3.046  13.655  0.3146 -0.3957  0.0578
  172DOPC   H6R20953   2.940   3.005  13.643  0.7305  0.4732  0.4935
  172DOPC   H6S20954   2.770   2.972  13.608  1.8456 -1.8290  0.0296
  172DOPC   C2720955   2.798   3.061  13.802  0.5500 -0.8130 -0.0167
  172DOPC   H7R20956   2.694   3.101  13.793  1.3507  1.4401  0.2136
  172DOPC   H7S20957   2.855   3.140  13.856 -0.7572 -1.2016  2.0460
  172DOPC   C2820958   2.764   2.924  13.868  0.2490  0.3951 -0.0381
  172DOPC   H8R20959   2.710   2.857  13.797 -0.5419  0.1466  0.7734
  172DOPC   H8S20960   2.707   2.935  13.963  1.2605 -3.0228  1.1338
  172DOPC   C2920961   2.900   2.866  13.888 -0.8462 -0.8811  0.8888
  172DOPC   H9R20962   2.935   2.820  13.795 -0.6068  1.1781 -0.0988
  172DOPC  C21020963   2.980   2.879  13.996 -0.8438 -0.1484 -0.5488
  172DOPC  H10R20964   3.082   2.837  13.988 -0.4667  1.0495 -3.2711
  172DOPC  C21120965   2.958   2.940  14.124  1.2306 -0.1849  0.1984
  172DOPC  H11R20966   2.867   3.005  14.124  2.5054  1.6916  1.5400
  172DOPC  H11S20967   3.039   3.009  14.154 -1.4851  2.5788  1.8194
  172DOPC  C21220968   2.948   2.825  14.225  0.4809  0.5088 -0.7167
  172DOPC  H12R20969   3.033   2.760  14.193  1.2305  1.4938 -0.7886
  172DOPC  H12S20970   2.847   2.781  14.218  0.1448  1.0615  0.4408
  172DOPC  C21320971   2.972   2.869  14.365  0.0257 -0.3164 -0.4378
  172DOPC  H13R20972   3.064   2.929  14.378 -0.6033  0.6483 -0.3555
  172DOPC  H13S20973   2.994   2.778  14.426 -0.5226  2.1414  3.8542
  172DOPC  C21420974   2.856   2.949  14.428  0.1359 -0.7431  0.5972
  172DOPC  H14R20975   2.758   2.910  14.391 -0.0087  2.0128 -2.3527
  172DOPC  H14S20976   2.856   3.052  14.386  3.4090 -1.5342 -1.7622
  172DOPC  C21520977   2.855   2.962  14.580  0.3982  0.7926 -0.3936
  172DOPC  H15R20978   2.933   3.033  14.615  0.0346  1.3741 -0.7374
  172DOPC  H15S20979   2.880   2.860  14.614 -0.6640  1.3070  2.2681
  172DOPC  C21620980   2.718   2.993  14.642  0.1176  0.5139  0.1559
  172DOPC  H16R20981   2.640   2.925  14.602 -0.6070  1.4181 -0.0075
  172DOPC  H16S20982   2.691   3.099  14.622 -0.0198  0.6471  1.0232
  172DOPC  C21720983   2.711   2.978  14.791  0.0646 -0.2628 -0.2545
  172DOPC  H17R20984   2.617   3.033  14.814 -0.9815 -1.1057 -2.2535
  172DOPC  H17S20985   2.794   3.026  14.846 -0.6939 -0.5895  1.2210
  172DOPC  C21820986   2.710   2.833  14.840  0.7710 -0.2917  0.7715
  172DOPC  H18R20987   2.668   2.829  14.943 -1.2054  0.3641  0.0409
  172DOPC  H18S20988   2.807   2.781  14.829  0.5570 -0.2157 -2.4020
  172DOPC  H18T20989   2.637   2.783  14.772  1.5565 -0.0217 -0.2959
  172DOPC   C3320990   2.667   3.489  13.413 -0.5147 -0.0472  0.1001
  172DOPC   H3X20991   2.662   3.378  13.409  2.2656 -0.2295  0.0657
  172DOPC   H3Y20992   2.568   3.524  13.377 -1.7985 -0.7837  2.6619
  172DOPC   C3420993   2.691   3.540  13.554 -0.0637  0.1523  0.5857
  172DOPC   H4X20994   2.671   3.649  13.566  0.9701  0.3175  0.9379
  172DOPC   H4Y20995   2.800   3.533  13.573  0.3641 -1.8215 -2.0322
  172DOPC   C3520996   2.607   3.462  13.659  0.3290 -0.1530 -0.1188
  172DOPC   H5X20997   2.641   3.357  13.655  0.1271 -0.1969 -0.8134
  172DOPC   H5Y20998   2.498   3.465  13.639  0.5449  1.8275 -1.3072
  172DOPC   C3620999   2.635   3.522  13.799  0.1545  0.0358 -0.3456
  172DOPC   H6X21000   2.737   3.492  13.832  0.3297  0.4456 -0.5088
  172DOPC   H6Y21001   2.634   3.633  13.798 -3.7957  0.1262 -0.9096
  172DOPC   C3721002   2.537   3.472  13.908 -0.2286  0.5585 -0.1479
  172DOPC   H7X21003   2.445   3.536  13.912 -0.3744  0.4061 -0.9158
  172DOPC   H7Y21004   2.508   3.366  13.892  0.8122 -0.1591  2.3394
  172DOPC   C3821005   2.596   3.475  14.048  0.2760 -0.2218  0.6680
  172DOPC   H8X21006   2.615   3.580  14.077 -1.7235  0.2255  0.4721
  172DOPC   H8Y21007   2.693   3.420  14.047  0.5032  0.1313  1.9492
  172DOPC   C3921008   2.492   3.431  14.147  0.1402  0.0924 -0.2710
  172DOPC   H9X21009   2.404   3.497  14.155  0.5530  0.5987  0.2234
  172DOPC  C31021010   2.498   3.331  14.234 -0.2806  0.4909 -0.3592
  172DOPC  H10X21011   2.406   3.309  14.289 -0.5306  3.5143  0.5918
  172DOPC  C31121012   2.604   3.229  14.255  0.5002 -0.2732 -0.1997
  172DOPC  H11X21013   2.607   3.189  14.358 -0.1887 -2.4653 -0.9754
  172DOPC  H11Y21014   2.706   3.269  14.236  0.6247  0.3827  1.6443
  172DOPC  C31221015   2.582   3.100  14.171 -0.1211  0.1216  0.5959
  172DOPC  H12X21016   2.655   3.020  14.196 -0.0051  0.1821  0.4490
  172DOPC  H12Y21017   2.599   3.144  14.070 -1.7902  0.2885  0.3534
  172DOPC  C31321018   2.437   3.039  14.165  0.1129  0.1072 -0.3169
  172DOPC  H13X21019   2.428   3.016  14.273  2.2887 -1.1599 -0.3322
  172DOPC  H13Y21020   2.362   3.117  14.141  0.0151 -0.2518 -1.2375
  172DOPC  C31421021   2.414   2.912  14.086 -0.4569 -0.3121  0.3232
  172DOPC  H14X21022   2.416   2.912  13.975 -1.8522 -0.7059  0.2768
  172DOPC  H14Y21023   2.481   2.834  14.126 -1.0238 -0.6762  0.5844
  172DOPC  C31521024   2.266   2.860  14.115 -0.0238 -0.8604  0.0526
  172DOPC  H15X21025   2.194   2.936  14.077 -0.0184  0.0962  1.8452
  172DOPC  H15Y21026   2.264   2.863  14.226 -1.8620 -0.3571  0.0396
  172DOPC  C31621027   2.220   2.717  14.071  0.0476  0.1963  0.3236
  172DOPC  H16X21028   2.134   2.674  14.127 -0.4218 -0.8316 -1.1218
  172DOPC  H16Y21029   2.180   2.729  13.968  2.3989 -1.2454 -0.8404
  172DOPC  C31721030   2.343   2.620  14.063 -0.5198  0.0965  0.0722
  172DOPC  H17X21031   2.317   2.526  14.009 -2.5338 -0.5818  2.1171
  172DOPC  H17Y21032   2.421   2.672  14.004 -0.4032  1.2146  1.1850
  172DOPC  C31821033   2.402   2.577  14.200  0.0393 -0.3035 -0.0340
  172DOPC  H18X21034   2.431   2.665  14.260 -0.7109  1.3473 -1.9579
  172DOPC  H18Y21035   2.334   2.509  14.255  0.5978 -2.0712 -1.4041
  172DOPC  H18Z21036   2.491   2.511  14.191  1.5365  1.7769 -1.4747
  173DOPC     N21037   1.070   3.190  12.837  0.6680 -0.1556  0.1958
  173DOPC   C1221038   1.134   3.285  12.729 -0.3958 -0.4895 -0.7627
  173DOPC  H12A21039   1.100   3.257  12.630 -0.3201 -0.5927 -0.7590
  173DOPC  H12B21040   1.240   3.265  12.732 -0.3967 -0.6328 -1.4141
  173DOPC   C1321041   1.156   3.210  12.958  0.2520  0.9484  0.1032
  173DOPC  H13A21042   1.262   3.203  12.941  0.4511 -0.2854  1.6255
  173DOPC  H13B21043   1.145   3.309  13.000 -1.0101  0.4785  0.9577
  173DOPC  H13C21044   1.137   3.134  13.032 -0.9592  1.7673  0.6650
  173DOPC   C1421045   1.076   3.043  12.790  0.8197 -0.8317  0.1970
  173DOPC  H14A21046   1.180   3.017  12.776  0.9697 -0.6995  1.0640
  173DOPC  H14B21047   1.017   2.979  12.853  1.2074 -1.8562 -0.4517
  173DOPC  H14C21048   1.020   3.043  12.697  0.4843 -0.4056  0.3949
  173DOPC   C1521049   0.924   3.221  12.855  0.5618  0.2206 -0.5343
  173DOPC  H15A21050   0.876   3.177  12.942  1.4557 -0.1209 -0.1958
  173DOPC  H15B21051   0.870   3.184  12.770  0.6825  0.7534 -0.8429
  173DOPC  H15C21052   0.906   3.327  12.867  1.6193  0.4786 -1.0862
  173DOPC   C1121053   1.100   3.441  12.736 -0.2132  0.1167 -0.5587
  173DOPC  H11A21054   1.161   3.491  12.658 -1.1786  0.8378 -0.8716
  173DOPC  H11B21055   0.997   3.465  12.702  0.2639  3.4698 -0.0133
  173DOPC     P21056   1.229   3.610  12.879  0.0500 -0.2734 -0.0822
  173DOPC   O1321057   1.145   3.730  12.864 -0.5217 -1.0726  0.0131
  173DOPC   O1421058   1.342   3.599  12.790  0.2005 -0.2844 -0.0603
  173DOPC   O1221059   1.139   3.484  12.870 -0.1182 -0.4105  0.0137
  173DOPC   O1121060   1.284   3.608  13.029 -0.0593 -0.3954  0.4749
  173DOPC    C121061   1.380   3.506  13.059  0.2198  0.3639  0.3763
  173DOPC    HA21062   1.457   3.475  12.986  2.9189  0.0176  3.1478
  173DOPC    HB21063   1.326   3.411  13.080  1.9316 -0.3971  1.5289
  173DOPC    C221064   1.470   3.552  13.179 -0.3999 -0.3869 -0.4104
  173DOPC    HS21065   1.526   3.461  13.208  0.6243 -0.4640 -2.5200
  173DOPC   O2121066   1.389   3.600  13.289  0.1920  0.1727 -0.1007
  173DOPC   C2121067   1.324   3.499  13.350 -0.6598  0.0315  0.0980
  173DOPC   O2221068   1.341   3.379  13.331 -0.0108 -0.4402 -0.3464
  173DOPC   C2221069   1.222   3.556  13.453 -0.0385 -0.1159  0.2352
  173DOPC   H2R21070   1.145   3.600  13.386  2.0349  1.8589 -0.9843
  173DOPC   H2S21071   1.259   3.651  13.495 -1.7706  1.6394 -1.9375
  173DOPC    C321072   1.565   3.663  13.139  0.0698 -0.5256  0.0305
  173DOPC    HX21073   1.505   3.748  13.099  0.2077 -1.1431 -1.5358
  173DOPC    HY21074   1.620   3.607  13.060  0.8855 -0.0540  0.2473
  173DOPC   O3121075   1.661   3.707  13.233  0.0350 -0.1183 -0.4288
  173DOPC   C3121076   1.611   3.796  13.326 -0.5485  0.4265  0.0865
  173DOPC   O3221077   1.502   3.846  13.329  0.1814  0.0835  0.7513
  173DOPC   C3221078   1.733   3.848  13.403 -0.1075  0.2477 -0.3512
  173DOPC   H2X21079   1.808   3.869  13.323 -0.0158  1.5308  0.0487
  173DOPC   H2Y21080   1.707   3.943  13.455 -1.3275 -0.9031  1.2578
  173DOPC   C2321081   1.162   3.449  13.542 -0.6139 -0.1331  0.5050
  173DOPC   H3R21082   1.241   3.382  13.584 -0.1777 -0.4865 -0.8248
  173DOPC   H3S21083   1.100   3.382  13.479 -1.8836  0.9895  0.5198
  173DOPC   C2421084   1.065   3.497  13.651  0.2014  0.0586  0.2830
  173DOPC   H4R21085   0.989   3.551  13.590 -1.7217 -4.9504 -2.3655
  173DOPC   H4S21086   1.121   3.564  13.720  0.6994  1.1000 -1.0973
  173DOPC   C2521087   0.986   3.392  13.732  0.2130 -0.0534 -0.0476
  173DOPC   H5R21088   1.062   3.317  13.765  1.0675  1.3794  1.4100
  173DOPC   H5S21089   0.910   3.345  13.667 -0.8061  0.0775  1.0125
  173DOPC   C2621090   0.923   3.440  13.861 -0.1082 -0.3215 -0.5335
  173DOPC   H6R21091   0.856   3.524  13.832 -1.2674 -0.4079  1.6650
  173DOPC   H6S21092   0.999   3.479  13.933  0.1365 -0.0917 -0.9162
  173DOPC   C2721093   0.832   3.332  13.938 -0.3520 -0.4804  0.5734
  173DOPC   H7R21094   0.869   3.227  13.939 -0.8105 -0.6714 -1.0154
  173DOPC   H7S21095   0.741   3.328  13.875  1.0364  1.1888 -1.7064
  173DOPC   C2821096   0.793   3.373  14.084 -0.6426  0.0762  0.2044
  173DOPC   H8R21097   0.802   3.483  14.087  0.6704  0.0385 -1.3268
  173DOPC   H8S21098   0.867   3.324  14.151  0.1220 -1.1459 -1.4683
  173DOPC   C2921099   0.654   3.344  14.122  0.4905  0.3578 -0.5802
  173DOPC   H9R21100   0.575   3.392  14.064 -0.2284  0.6226  0.5809
  173DOPC  C21021101   0.599   3.263  14.219  0.4677  0.0839 -0.2650
  173DOPC  H10R21102   0.490   3.270  14.231  0.3536 -0.4169 -0.9180
  173DOPC  C21121103   0.685   3.185  14.315 -0.3161 -0.4454  0.0768
  173DOPC  H11R21104   0.788   3.178  14.274 -0.3776  0.5413 -0.2749
  173DOPC  H11S21105   0.645   3.083  14.336 -2.2927  0.5795  1.5367
  173DOPC  C21221106   0.709   3.262  14.447 -0.6421  0.2585 -0.2619
  173DOPC  H12R21107   0.615   3.300  14.492 -0.0849  0.2473  0.9407
  173DOPC  H12S21108   0.766   3.356  14.430  1.4208 -0.6146  1.3470
  173DOPC  C21321109   0.790   3.181  14.551 -0.9405 -0.4132  0.3223
  173DOPC  H13R21110   0.889   3.154  14.508 -0.5993 -1.7395  1.8226
  173DOPC  H13S21111   0.751   3.079  14.571  3.3063 -2.2200  0.4662
  173DOPC  C21421112   0.803   3.256  14.686  0.3532 -0.6609 -0.0816
  173DOPC  H14R21113   0.698   3.288  14.699  0.3545 -0.3221 -0.8309
  173DOPC  H14S21114   0.869   3.345  14.676  0.1346 -0.5041 -0.1157
  173DOPC  C21521115   0.843   3.160  14.799 -0.1351 -0.1667 -0.1497
  173DOPC  H15R21116   0.936   3.114  14.758  0.4031  0.4080  0.3886
  173DOPC  H15S21117   0.762   3.085  14.811  1.1477 -1.4665  0.7075
  173DOPC  C21621118   0.857   3.233  14.935 -0.3899  0.9316 -0.6654
  173DOPC  H16R21119   0.896   3.335  14.911 -0.4777  0.8428 -1.1951
  173DOPC  H16S21120   0.924   3.167  14.994  0.1565  0.6658 -1.5495
  173DOPC  C21721121   0.725   3.256  15.013  0.1773 -0.1072  0.4155
  173DOPC  H17R21122   0.668   3.162  15.027 -1.7597  1.0076  0.2632
  173DOPC  H17S21123   0.660   3.319  14.950 -0.4586 -1.8339 -0.7345
  173DOPC  C21821124   0.756   3.321  15.147 -0.2291 -0.3057 -0.3289
  173DOPC  H18R21125   0.821   3.411  15.150 -1.4780  0.6070  0.1094
  173DOPC  H18S21126   0.798   3.243  15.214 -3.2559 -1.1063  0.8109
  173DOPC  H18T21127   0.666   3.355  15.203 -0.8589 -1.9893 -0.2557
  173DOPC   C3321128   1.772   3.746  13.515 -1.1103 -0.4300 -0.7414
  173DOPC   H3X21129   1.783   3.642  13.478  0.7763 -1.2339  1.7956
  173DOPC   H3Y21130   1.686   3.725  13.582 -0.4335  0.0153  0.2918
  173DOPC   C3421131   1.897   3.794  13.597  0.4190  0.3595  0.0160
  173DOPC   H4X21132   1.971   3.835  13.525  1.0904 -0.6974  0.0687
  173DOPC   H4Y21133   1.936   3.700  13.642 -0.4877  0.1612  0.4193
  173DOPC   C3521134   1.868   3.900  13.704 -0.3776  0.7176 -0.2107
  173DOPC   H5X21135   1.813   3.863  13.794  0.0510  0.3803 -0.0813
  173DOPC   H5Y21136   1.803   3.973  13.652 -1.1182 -1.0315 -1.8763
  173DOPC   C3621137   1.998   3.980  13.748  0.3182  0.6481  0.2826
  173DOPC   H6X21138   2.035   4.017  13.650 -1.3101 -0.0082 -0.6147
  173DOPC   H6Y21139   1.968   4.066  13.813  1.8875 -0.2616  2.3423
  173DOPC   C3721140   2.113   3.899  13.812  0.6402  0.1186  0.2657
  173DOPC   H7X21141   2.082   3.835  13.897  1.1182 -2.4252 -1.3745
  173DOPC   H7Y21142   2.151   3.837  13.728 -1.6825  1.6815 -2.1194
  173DOPC   C3821143   2.230   3.992  13.848  0.4455  0.4270  0.2897
  173DOPC   H8X21144   2.197   4.069  13.922 -0.7139  0.3770 -0.1615
  173DOPC   H8Y21145   2.261   4.056  13.763  0.5001 -0.5934 -0.4754
  173DOPC   C3921146   2.354   3.918  13.881 -0.6028  0.8414  0.2857
  173DOPC   H9X21147   2.429   3.904  13.802 -0.2781 -0.9172  0.8537
  173DOPC  C31021148   2.381   3.885  14.010 -0.2746  0.2058 -0.2482
  173DOPC  H10X21149   2.469   3.822  14.028 -1.0008 -0.3033  1.8010
  173DOPC  C31121150   2.284   3.895  14.122  0.3957 -0.3132  0.3838
  173DOPC  H11X21151   2.199   3.964  14.104  1.0330  1.0044  2.1891
  173DOPC  H11Y21152   2.341   3.942  14.205  0.8043  0.0486 -0.0973
  173DOPC  C31221153   2.231   3.750  14.156  0.0833  0.2417 -0.2388
  173DOPC  H12X21154   2.313   3.679  14.177 -0.1445  0.0841  0.1432
  173DOPC  H12Y21155   2.167   3.718  14.071  1.8315  1.8769 -2.2820
  173DOPC  C31321156   2.139   3.746  14.285 -0.6657 -0.4102  0.4570
  173DOPC  H13X21157   2.114   3.643  14.317 -2.1880  0.1377  1.1167
  173DOPC  H13Y21158   2.206   3.794  14.360 -0.2427  0.2330 -0.3048
  173DOPC  C31421159   2.005   3.813  14.261 -0.4409  0.5639 -0.3712
  173DOPC  H14X21160   2.028   3.907  14.206 -1.5061 -0.4479 -2.6846
  173DOPC  H14Y21161   1.925   3.754  14.212 -1.3164  0.0521  1.5796
  173DOPC  C31521162   1.947   3.857  14.394  0.2201 -0.2005  0.1313
  173DOPC  H15X21163   2.029   3.912  14.445  0.6816 -1.3285  0.6494
  173DOPC  H15Y21164   1.921   3.772  14.460 -2.6801  1.0662  0.7735
  173DOPC  C31621165   1.811   3.934  14.376 -0.2693 -0.2593  0.5471
  173DOPC  H16X21166   1.833   4.034  14.333  0.8560 -0.3807  0.8080
  173DOPC  H16Y21167   1.744   3.877  14.307 -0.4552 -0.1161  0.6099
  173DOPC  C31721168   1.730   3.955  14.504 -0.1030 -0.3537 -0.3542
  173DOPC  H17X21169   1.697   3.856  14.543  1.9620  0.2392  3.4519
  173DOPC  H17Y21170   1.804   3.987  14.581 -1.2379 -3.6581  2.3673
  173DOPC  C31821171   1.613   4.036  14.483  0.0332 -0.3542  0.0034
  173DOPC  H18X21172   1.576   4.066  14.583 -1.7035  0.5953 -0.8841
  173DOPC  H18Y21173   1.624   4.124  14.416 -3.0999 -1.7321 -2.5786
  173DOPC  H18Z21174   1.539   3.983  14.419 -1.8701  0.5616  1.3677
  174DOPC     N21175   4.801   1.132  12.060 -0.4732  0.1857  0.6043
  174DOPC   C1221176   4.730   1.025  12.144  0.1089  0.0678  0.0503
  174DOPC  H12A21177   4.805   0.991  12.214  0.9278 -1.3951 -1.4781
  174DOPC  H12B21178   4.710   0.937  12.085  0.0214 -0.5617  0.9981
  174DOPC   C1321179   4.902   1.069  11.965 -0.4496 -0.4296 -0.7079
  174DOPC  H13A21180   4.959   1.149  11.922 -1.3427  1.0926  0.8283
  174DOPC  H13B21181   4.978   1.013  12.016  3.3832  2.6733 -2.5181
  174DOPC  H13C21182   4.858   1.007  11.888  1.5599 -2.2217 -0.5126
  174DOPC   C1421183   4.878   1.220  12.154  0.1257  0.2371  0.4605
  174DOPC  H14A21184   4.952   1.166  12.212 -1.4677 -0.4296  1.9401
  174DOPC  H14B21185   4.936   1.290  12.095  2.6312 -0.4686  1.9233
  174DOPC  H14C21186   4.813   1.266  12.226 -1.3722 -1.6841  0.4031
  174DOPC   C1521187   4.701   1.216  11.978 -0.2158  0.4463 -0.2246
  174DOPC  H15A21188   4.662   1.146  11.905 -1.7132  1.0529 -0.0346
  174DOPC  H15B21189   4.749   1.293  11.918 -0.4862 -0.8747 -2.2524
  174DOPC  H15C21190   4.625   1.267  12.035 -2.0117 -0.4872 -1.6751
  174DOPC   C1121191   4.600   1.066  12.214  0.4863 -0.5919  0.6733
  174DOPC  H11A21192   4.537   1.091  12.127  1.6484 -0.5808 -0.1830
  174DOPC  H11B21193   4.564   0.975  12.268 -3.5698  0.7321  0.5103
  174DOPC     P21194   4.506   1.292  12.312 -0.1557 -0.1668 -0.0601
  174DOPC   O1321195   4.373   1.233  12.343  0.0439  0.1335  0.1607
  174DOPC   O1421196   4.504   1.379  12.193 -0.4549 -0.2417  0.1682
  174DOPC   O1221197   4.617   1.178  12.303 -0.3127  0.1185  0.1222
  174DOPC   O1121198   4.559   1.370  12.435 -0.1515  0.5381 -0.2428
  174DOPC    C121199   4.576   1.308  12.565  0.4756  0.4296 -0.1469
  174DOPC    HA21200   4.609   1.202  12.564  0.7888  0.5294 -0.7501
  174DOPC    HB21201   4.477   1.304  12.616  0.0472  0.4648 -0.9560
  174DOPC    C221202   4.672   1.383  12.668  0.4523 -0.0544 -0.0280
  174DOPC    HS21203   4.672   1.341  12.771  0.5636  1.2481  0.5157
  174DOPC   O2121204   4.637   1.522  12.679  0.0205  0.2868  0.6778
  174DOPC   C2121205   4.523   1.535  12.752 -0.4792  0.2799  0.2741
  174DOPC   O2221206   4.475   1.444  12.820 -0.4118  0.4454 -0.6398
  174DOPC   C2221207   4.471   1.678  12.744  0.4297  0.0817  1.0099
  174DOPC   H2R21208   4.421   1.686  12.644  0.1934 -0.0084  1.1190
  174DOPC   H2S21209   4.559   1.743  12.731  0.0763  0.4319  0.2950
  174DOPC    C321210   4.812   1.365  12.616  0.1286  0.1476 -0.0827
  174DOPC    HX21211   4.848   1.437  12.540 -0.5972  0.8277  0.2075
  174DOPC    HY21212   4.803   1.270  12.559 -1.3246  1.7265 -2.7186
  174DOPC   O3121213   4.902   1.336  12.724  0.0388 -0.1861  0.3470
  174DOPC   C3121214   4.955   1.446  12.785  0.9763  0.3561  0.0658
  174DOPC   O3221215   4.950   1.561  12.743  0.3658 -0.4818  0.0059
  174DOPC   C3221216   5.025   1.393  12.914 -0.3468 -0.1338 -0.8915
  174DOPC   H2X21217   5.013   1.284  12.930 -0.8433  0.2874  2.0138
  174DOPC   H2Y21218   5.132   1.405  12.887 -0.0006  0.5893  0.7193
  174DOPC   C2321219   4.359   1.715  12.840 -0.4853  0.2794 -0.0017
  174DOPC   H3R21220   4.284   1.634  12.840  1.1508 -1.3994 -2.6681
  174DOPC   H3S21221   4.320   1.811  12.800  0.2152  0.9163  0.7891
  174DOPC   C2421222   4.407   1.738  12.984 -0.0161  0.0561 -0.2270
  174DOPC   H4R21223   4.502   1.796  12.987 -0.2068  0.4532 -1.3571
  174DOPC   H4S21224   4.426   1.637  13.027 -0.9654 -0.0096  0.0738
  174DOPC   C2521225   4.296   1.799  13.082  0.4373  0.6337 -0.0345
  174DOPC   H5R21226   4.209   1.732  13.072  2.2841 -2.0153  0.5474
  174DOPC   H5S21227   4.281   1.902  13.042  2.7905  0.1832 -2.3905
  174DOPC   C2621228   4.341   1.814  13.225  0.1520 -0.4791  0.2929
  174DOPC   H6R21229   4.450   1.831  13.230 -0.0392  0.6756  0.7594
  174DOPC   H6S21230   4.341   1.719  13.283 -0.8453 -0.9086 -0.3817
  174DOPC   C2721231   4.276   1.923  13.305  0.4593 -0.3415  0.2236
  174DOPC   H7R21232   4.170   1.898  13.325  0.6238 -0.3104  1.2055
  174DOPC   H7S21233   4.283   2.023  13.258 -4.1066  0.2147  0.3365
  174DOPC   C2821234   4.344   1.935  13.441  0.2556  0.1009 -0.2193
  174DOPC   H8R21235   4.453   1.954  13.427  0.4361 -1.4087 -1.0421
  174DOPC   H8S21236   4.341   1.840  13.498  0.9204  0.0038 -0.3420
  174DOPC   C2921237   4.266   2.042  13.521  0.8227 -0.2042  0.5766
  174DOPC   H9R21238   4.245   2.131  13.461  1.7140 -0.4037 -0.0487
  174DOPC  C21021239   4.204   2.026  13.639 -0.4199  0.1623 -0.2054
  174DOPC  H10R21240   4.164   2.113  13.693  0.2056  0.2996  0.0542
  174DOPC  C21121241   4.220   1.906  13.731 -0.2278 -0.9776 -0.6066
  174DOPC  H11R21242   4.189   1.812  13.680 -2.0988 -0.9481  0.4043
  174DOPC  H11S21243   4.143   1.911  13.811  0.1358 -0.9949 -0.2570
  174DOPC  C21221244   4.360   1.900  13.800 -0.7376 -0.0629  0.0993
  174DOPC  H12R21245   4.434   1.918  13.719  0.7921 -0.2591  1.3986
  174DOPC  H12S21246   4.373   1.797  13.841 -0.8206 -0.0272  0.2146
  174DOPC  C21321247   4.372   2.006  13.906 -0.1660 -0.2614 -0.2467
  174DOPC  H13R21248   4.296   1.985  13.985  0.6362 -0.7511  0.4042
  174DOPC  H13S21249   4.352   2.107  13.863  1.4006  0.5651  0.8652
  174DOPC  C21421250   4.511   2.020  13.977  0.3091 -0.2948 -0.5432
  174DOPC  H14R21251   4.601   2.015  13.912  1.8361 -1.4687  1.5332
  174DOPC  H14S21252   4.521   1.927  14.038 -0.3237  0.8584  1.4208
  174DOPC  C21521253   4.516   2.136  14.082 -0.5432  0.9278 -0.7454
  174DOPC  H15R21254   4.433   2.209  14.066  0.3525  2.3310  0.6532
  174DOPC  H15S21255   4.598   2.211  14.072  0.2286  0.2457  0.2664
  174DOPC  C21621256   4.497   2.086  14.225 -0.8033  0.1838 -1.1601
  174DOPC  H16R21257   4.426   2.001  14.213  0.2681 -1.3800  2.2143
  174DOPC  H16S21258   4.453   2.164  14.291 -1.0418 -2.1714  1.6777
  174DOPC  C21721259   4.626   2.046  14.297 -1.1402  0.0900 -0.6591
  174DOPC  H17R21260   4.678   2.142  14.315 -0.6076 -0.4054  0.5390
  174DOPC  H17S21261   4.678   1.976  14.228 -0.7595 -0.7637  0.4695
  174DOPC  C21821262   4.596   1.971  14.429  0.4342  0.2409 -0.6230
  174DOPC  H18R21263   4.527   1.886  14.410  0.1082  0.7114 -1.5945
  174DOPC  H18S21264   4.544   2.039  14.500 -0.4948 -0.7497 -0.3149
  174DOPC  H18T21265   4.690   1.929  14.470  0.0387 -2.8221 -2.5372
  174DOPC   C3321266   4.987   1.484  13.038  0.3462 -0.3152  0.2367
  174DOPC   H3X21267   4.996   1.593  13.015  0.7515 -0.4445 -0.2299
  174DOPC   H3Y21268   5.059   1.463  13.120  2.3835 -3.5052 -2.0992
  174DOPC   C3421269   4.843   1.459  13.094 -0.1768  0.1255  0.1241
  174DOPC   H4X21270   4.768   1.481  13.014  0.8795  0.0426 -0.9221
  174DOPC   H4Y21271   4.842   1.524  13.184 -0.9254 -2.2667  1.9453
  174DOPC   C3521272   4.833   1.317  13.145  0.2927 -0.6437 -0.1304
  174DOPC   H5X21273   4.931   1.293  13.192 -0.7090 -0.1089  2.3813
  174DOPC   H5Y21274   4.825   1.259  13.050  0.2505 -1.0181  0.1023
  174DOPC   C3621275   4.728   1.288  13.239 -0.0472 -0.2219 -0.3065
  174DOPC   H6X21276   4.723   1.353  13.329 -2.0317  0.7940 -1.0930
  174DOPC   H6Y21277   4.624   1.305  13.203  0.1019  0.9805 -0.2300
  174DOPC   C3721278   4.753   1.142  13.295 -0.1647 -0.2118  0.8750
  174DOPC   H7X21279   4.760   1.083  13.202  0.0882  2.3401 -0.8276
  174DOPC   H7Y21280   4.837   1.124  13.365  0.2207  0.9420  0.7259
  174DOPC   C3821281   4.626   1.091  13.373  0.4941  0.5029  0.5148
  174DOPC   H8X21282   4.542   1.105  13.301  0.3543  2.0560  0.9442
  174DOPC   H8Y21283   4.599   1.156  13.459 -0.2793  0.5677  0.2304
  174DOPC   C3921284   4.630   0.948  13.425  0.1784  0.6906  0.7124
  174DOPC   H9X21285   4.681   0.884  13.352 -0.5899  0.0398  0.7259
  174DOPC  C31021286   4.603   0.891  13.540 -0.4620 -0.2969  0.6252
  174DOPC  H10X21287   4.611   0.781  13.541  3.3148 -0.1718  0.9201
  174DOPC  C31121288   4.546   0.949  13.668 -0.4908 -0.1886 -0.0130
  174DOPC  H11X21289   4.541   1.060  13.676 -1.4068 -0.3659  3.4007
  174DOPC  H11Y21290   4.609   0.931  13.758 -1.6672  0.8353  1.0653
  174DOPC  C31221291   4.406   0.913  13.715 -0.1152  0.0380  0.2804
  174DOPC  H12X21292   4.387   0.804  13.724  0.6522 -0.3931 -2.4505
  174DOPC  H12Y21293   4.332   0.944  13.639 -1.2670 -3.2917 -0.1217
  174DOPC  C31321294   4.374   0.986  13.846  0.2514  0.2418  0.5169
  174DOPC  H13X21295   4.460   0.961  13.913 -0.2730 -1.6256  0.5455
  174DOPC  H13Y21296   4.375   1.095  13.824  2.5389  0.2705  0.4503
  174DOPC  C31421297   4.244   0.944  13.909 -0.6259 -0.8369  0.2872
  174DOPC  H14X21298   4.259   0.846  13.959 -1.2970 -1.9100 -1.5074
  174DOPC  H14Y21299   4.219   1.008  13.996  0.0385  0.8624 -0.7208
  174DOPC  C31521300   4.125   0.913  13.816  0.0550 -0.1213  0.3380
  174DOPC  H15X21301   4.143   0.848  13.728  0.1376 -0.8896  0.9129
  174DOPC  H15Y21302   4.101   1.010  13.768 -2.1131 -0.7134  0.1067
  174DOPC  C31621303   4.001   0.874  13.893  1.0893  0.6535  0.5258
  174DOPC  H16X21304   4.029   0.790  13.961 -0.1035  0.2220  0.5053
  174DOPC  H16Y21305   3.973   0.957  13.961 -0.4070 -1.0370  2.1031
  174DOPC  C31721306   3.893   0.829  13.787 -0.1198 -0.5454  1.0371
  174DOPC  H17X21307   3.858   0.911  13.721 -0.2122 -1.3513  0.0572
  174DOPC  H17Y21308   3.954   0.769  13.716  0.4549 -1.1968  2.0581
  174DOPC  C31821309   3.768   0.743  13.833 -0.6722  0.6604  0.2539
  174DOPC  H18X21310   3.736   0.677  13.750 -0.4178  0.8327  0.0183
  174DOPC  H18Y21311   3.798   0.683  13.922  0.7040  1.1995  0.1815
  174DOPC  H18Z21312   3.679   0.808  13.845 -0.9736  0.0430  1.5958
  175DOPC     N21313   3.382   4.202  12.417 -0.2162 -0.0528 -0.0254
  175DOPC   C1221314   3.452   4.144  12.543 -0.0249  0.2493  0.9935
  175DOPC  H12A21315   3.541   4.097  12.505 -0.0118  1.2567 -0.2826
  175DOPC  H12B21316   3.389   4.065  12.582  1.0884 -0.7530  0.8200
  175DOPC   C1321317   3.481   4.287  12.342  0.1277  0.3649 -0.5814
  175DOPC  H13A21318   3.543   4.337  12.415 -0.5556  0.0815  0.2132
  175DOPC  H13B21319   3.539   4.220  12.281  1.1686  1.6515 -1.0474
  175DOPC  H13C21320   3.426   4.372  12.302 -1.7124  0.2393  1.4534
  175DOPC   C1421321   3.263   4.276  12.460  0.9472 -0.3375 -0.1718
  175DOPC  H14A21322   3.187   4.214  12.506 -0.5352  0.9915 -0.7538
  175DOPC  H14B21323   3.289   4.356  12.528  2.0617 -1.1613  0.4048
  175DOPC  H14C21324   3.209   4.318  12.377 -1.4056 -2.4088  0.1788
  175DOPC   C1521325   3.349   4.087  12.328 -0.1944  0.1979  0.2248
  175DOPC  H15A21326   3.439   4.046  12.284  0.7045 -0.1646  2.2945
  175DOPC  H15B21327   3.275   4.124  12.258  1.8446  0.6791 -1.8074
  175DOPC  H15C21328   3.295   4.009  12.379 -2.1707  0.9174 -0.6640
  175DOPC   C1121329   3.494   4.242  12.656  0.1538  0.0482  0.0624
  175DOPC  H11A21330   3.403   4.290  12.697  0.3774  0.2853  0.2897
  175DOPC  H11B21331   3.539   4.181  12.738  0.8479 -1.5462 -1.4476
  175DOPC     P21332   3.717   4.401  12.651  0.3914  0.3509  0.3447
  175DOPC   O1321333   3.769   4.478  12.536 -0.2199  1.2956  0.5597
  175DOPC   O1421334   3.798   4.283  12.696 -0.1767 -0.2892  0.2480
  175DOPC   O1221335   3.576   4.347  12.611  0.5710  0.0549 -0.0660
  175DOPC   O1121336   3.691   4.498  12.771 -0.5320  0.3964  0.2278
  175DOPC    C121337   3.569   4.567  12.779  0.4324  0.4413 -0.7297
  175DOPC    HA21338   3.485   4.505  12.740  1.0347 -0.5561 -0.4730
  175DOPC    HB21339   3.579   4.663  12.723 -0.2917  0.6446 -0.5215
  175DOPC    C221340   3.525   4.595  12.926 -0.2350  0.3448 -0.4938
  175DOPC    HS21341   3.419   4.628  12.924 -0.7615 -0.5151  3.6230
  175DOPC   O2121342   3.619   4.694  12.977  0.4292 -0.2203  0.3728
  175DOPC   C2121343   3.574   4.822  12.952  1.1258 -0.1726  0.4144
  175DOPC   O2221344   3.470   4.842  12.890 -0.2045 -0.4884  0.0594
  175DOPC   C2221345   3.673   4.930  13.005 -0.3267  0.6936 -0.3719
  175DOPC   H2R21346   3.628   5.027  12.975  1.1049  1.0529 -1.4815
  175DOPC   H2S21347   3.770   4.905  12.957 -1.2914 -0.0769 -1.9956
  175DOPC    C321348   3.521   4.471  13.027 -0.3516  0.2367 -0.1007
  175DOPC    HX21349   3.620   4.423  13.037 -1.0834 -1.1949  0.6218
  175DOPC    HY21350   3.459   4.393  12.978  1.4145 -1.4099  0.2043
  175DOPC   O3121351   3.462   4.513  13.157  0.3732 -0.6972 -0.0675
  175DOPC   C3121352   3.555   4.546  13.250  0.5247 -0.3301 -0.1688
  175DOPC   O3221353   3.676   4.535  13.234  0.5968 -0.3621 -0.0085
  175DOPC   C3221354   3.491   4.615  13.373 -0.2224  0.5110 -0.3899
  175DOPC   H2X21355   3.447   4.702  13.321  1.4994  0.6751 -1.6555
  175DOPC   H2Y21356   3.409   4.553  13.417  1.2023  0.1002  1.8397
  175DOPC   C2321357   3.703   4.910  13.160 -0.2281 -0.4046  0.5023
  175DOPC   H3R21358   3.710   4.805  13.195 -0.3619  0.0433  1.9541
  175DOPC   H3S21359   3.621   4.955  13.221 -1.0872 -0.0037 -0.8987
  175DOPC   C2421360   3.828   4.988  13.209 -0.0077  0.0492  0.3702
  175DOPC   H4R21361   3.812   5.098  13.201 -1.1841 -0.1336 -0.0106
  175DOPC   H4S21362   3.912   4.961  13.141  1.4182  1.6174  1.4107
  175DOPC   C2521363   3.873   4.948  13.350  0.1083  0.1695  0.3377
  175DOPC   H5R21364   3.970   4.999  13.370  0.3288 -0.3628  0.6345
  175DOPC   H5S21365   3.887   4.838  13.355 -0.0184  0.1883  1.3989
  175DOPC   C2621366   3.781   4.985  13.469  0.1883 -0.4820 -0.4339
  175DOPC   H6R21367   3.691   4.922  13.459  0.9603 -1.3927 -2.0565
  175DOPC   H6S21368   3.763   5.094  13.457  3.1338  0.2158  0.5130
  175DOPC   C2721369   3.830   4.960  13.610  0.1364  0.1580 -0.3750
  175DOPC   H7R21370   3.937   4.988  13.611 -0.1436  1.3719  1.4939
  175DOPC   H7S21371   3.835   4.854  13.643  0.5394  0.5070  0.7448
  175DOPC   C2821372   3.763   5.049  13.719 -0.3280  0.6317  0.0250
  175DOPC   H8R21373   3.791   5.154  13.696  0.7015  0.3589 -0.0467
  175DOPC   H8S21374   3.823   5.025  13.810 -1.6792 -2.2760  0.2689
  175DOPC   C2921375   3.621   5.034  13.735  0.0543 -0.6860  0.0528
  175DOPC   H9R21376   3.583   4.933  13.715 -1.2541 -0.6483  2.0914
  175DOPC  C21021377   3.532   5.136  13.725 -0.2762  0.5488  0.5393
  175DOPC  H10R21378   3.428   5.105  13.711  0.2132 -0.0686 -2.7017
  175DOPC  C21121379   3.551   5.285  13.723  0.5418  0.0952 -0.4982
  175DOPC  H11R21380   3.657   5.318  13.730  0.4334  0.3420  0.0481
  175DOPC  H11S21381   3.509   5.335  13.813  1.3255  1.3541 -0.8079
  175DOPC  C21221382   3.487   5.369  13.608  0.3524  0.1814 -0.1547
  175DOPC  H12R21383   3.485   5.471  13.653 -0.2823 -0.6608  1.8512
  175DOPC  H12S21384   3.383   5.342  13.581  0.0782 -0.0294  1.0559
  175DOPC  C21321385   3.565   5.362  13.483 -0.9319  0.7531 -0.4382
  175DOPC  H13R21386   3.560   5.268  13.424 -1.0044  0.6089 -0.1988
  175DOPC  H13S21387   3.670   5.368  13.519 -1.6487  0.6356  1.8044
  175DOPC  C21421388   3.534   5.472  13.385 -0.0835 -0.0328  0.4142
  175DOPC  H14R21389   3.544   5.571  13.436 -1.2287  1.1523 -1.5274
  175DOPC  H14S21390   3.428   5.460  13.352  0.3234 -1.0810 -0.5912
  175DOPC  C21521391   3.620   5.467  13.255  0.2759  0.1070  0.5647
  175DOPC  H15R21392   3.586   5.377  13.200 -2.4964 -0.5506  3.0710
  175DOPC  H15S21393   3.730   5.472  13.272  0.2496 -1.4130  1.3680
  175DOPC  C21621394   3.586   5.582  13.150 -0.2641 -0.4513 -0.3681
  175DOPC  H16R21395   3.611   5.676  13.202  0.4278 -0.1118 -1.2987
  175DOPC  H16S21396   3.478   5.580  13.122 -0.9262 -0.2566  1.9590
  175DOPC  C21721397   3.676   5.566  13.025 -0.3858 -0.8066 -0.6292
  175DOPC  H17R21398   3.782   5.562  13.060 -0.8243 -2.5234  0.5957
  175DOPC  H17S21399   3.657   5.653  12.958 -0.6620 -1.2377 -1.1160
  175DOPC  C21821400   3.662   5.436  12.943  0.1503 -0.4667 -0.1829
  175DOPC  H18R21401   3.687   5.460  12.837 -0.5029  1.2946  0.0328
  175DOPC  H18S21402   3.558   5.398  12.933 -0.4321  1.1567 -0.7468
  175DOPC  H18T21403   3.740   5.362  12.972 -0.7593 -1.8690 -1.1794
  175DOPC   C3321404   3.594   4.643  13.486 -0.3100 -0.3788  1.0072
  175DOPC   H3X21405   3.539   4.704  13.561 -0.4422 -0.5074  1.0175
  175DOPC   H3Y21406   3.680   4.703  13.450  1.7585 -2.4697  2.1856
  175DOPC   C3421407   3.640   4.518  13.562 -0.2202 -0.4230  0.5927
  175DOPC   H4X21408   3.685   4.453  13.484 -0.7410  0.4657 -0.4753
  175DOPC   H4Y21409   3.555   4.458  13.600 -0.2848 -1.7813 -1.5461
  175DOPC   C3521410   3.753   4.550  13.665  0.8532  0.0765  0.3484
  175DOPC   H5X21411   3.822   4.622  13.614  0.1376  0.1385 -0.5715
  175DOPC   H5Y21412   3.807   4.458  13.696  1.2710  0.2751  0.2255
  175DOPC   C3621413   3.700   4.610  13.801 -0.0515 -0.6078 -0.2224
  175DOPC   H6X21414   3.656   4.712  13.791  0.1678 -0.5807 -0.9820
  175DOPC   H6Y21415   3.616   4.549  13.842 -0.2574 -0.4875 -0.4590
  175DOPC   C3721416   3.810   4.631  13.906  0.5227  0.3867 -0.1097
  175DOPC   H7X21417   3.856   4.536  13.939 -1.1534 -0.1924  0.6756
  175DOPC   H7Y21418   3.888   4.696  13.861 -0.4424  1.1533 -0.7279
  175DOPC   C3821419   3.749   4.711  14.025 -0.2595 -0.0252 -0.1697
  175DOPC   H8X21420   3.705   4.809  13.997  1.6349  1.1258  0.6502
  175DOPC   H8Y21421   3.827   4.726  14.103 -0.6267 -0.0033  0.2019
  175DOPC   C3921422   3.630   4.642  14.090 -0.5364 -0.9408  0.3039
  175DOPC   H9X21423   3.543   4.638  14.024 -0.2233 -1.5548 -0.0780
  175DOPC  C31021424   3.604   4.615  14.215 -0.7606  0.0263 -0.2548
  175DOPC  H10X21425   3.505   4.574  14.238  0.0189 -1.7776  0.0621
  175DOPC  C31121426   3.693   4.607  14.339  0.1809 -0.1000 -1.0260
  175DOPC  H11X21427   3.780   4.675  14.337 -0.6539  1.0406 -0.1371
  175DOPC  H11Y21428   3.714   4.499  14.355 -0.8210 -0.3900 -1.5280
  175DOPC  C31221429   3.615   4.640  14.472  0.1227  0.2590  0.7339
  175DOPC  H12X21430   3.563   4.738  14.459 -0.8083 -0.1925  0.9779
  175DOPC  H12Y21431   3.689   4.637  14.555  1.6963 -1.2671 -0.6532
  175DOPC  C31321432   3.514   4.534  14.502 -0.2713 -0.7338 -0.4380
  175DOPC  H13X21433   3.446   4.489  14.427 -1.9146  0.2009  0.4196
  175DOPC  H13Y21434   3.565   4.447  14.549 -1.0755 -2.5012 -2.6745
  175DOPC  C31421435   3.418   4.578  14.610  0.7518 -0.3302  0.1478
  175DOPC  H14X21436   3.467   4.620  14.701  1.8180  0.3546 -0.7249
  175DOPC  H14Y21437   3.358   4.657  14.560  1.6850 -0.0080 -0.4694
  175DOPC  C31521438   3.334   4.458  14.659 -0.0713 -0.2066  0.1047
  175DOPC  H15X21439   3.287   4.409  14.572 -0.8018 -0.7143  0.7748
  175DOPC  H15Y21440   3.260   4.507  14.725  1.8672  2.3731  0.5296
  175DOPC  C31621441   3.398   4.360  14.758 -0.6515  0.1240 -0.0656
  175DOPC  H16X21442   3.318   4.284  14.774 -0.5977  0.4267  1.9813
  175DOPC  H16Y21443   3.488   4.309  14.720  0.6680  2.5408 -0.3923
  175DOPC  C31721444   3.434   4.427  14.892 -0.6360 -0.1176  0.1083
  175DOPC  H17X21445   3.508   4.509  14.878  2.1692 -2.1753  1.6891
  175DOPC  H17Y21446   3.336   4.452  14.938 -1.0561 -2.0867  0.3899
  175DOPC  C31821447   3.486   4.321  14.991 -0.1788 -0.4981  0.1717
  175DOPC  H18X21448   3.492   4.360  15.095 -1.2116 -0.8148  0.3546
  175DOPC  H18Y21449   3.419   4.233  14.990 -0.7335 -0.1109 -1.8140
  175DOPC  H18Z21450   3.588   4.292  14.958 -0.0354  0.0046  0.1636
  176DOPC     N21451   2.423   1.307  12.524  0.3454 -0.1675 -0.4003
  176DOPC   C1221452   2.498   1.191  12.591  0.1144 -0.0085  0.4864
  176DOPC  H12A21453   2.508   1.113  12.517 -1.8096 -0.9402  1.1355
  176DOPC  H12B21454   2.432   1.150  12.666  0.1978  0.2258  0.6875
  176DOPC   C1321455   2.396   1.425  12.610 -0.5158  0.6102  0.9684
  176DOPC  H13A21456   2.485   1.472  12.652 -0.6232 -0.5753  2.6027
  176DOPC  H13B21457   2.333   1.500  12.563 -0.2488  0.1632 -0.1315
  176DOPC  H13C21458   2.332   1.388  12.689  0.7987 -3.5326  0.3226
  176DOPC   C1421459   2.294   1.256  12.474 -0.5625  0.0148 -0.2052
  176DOPC  H14A21460   2.234   1.334  12.430  0.5189  0.7040 -0.5034
  176DOPC  H14B21461   2.299   1.171  12.408  3.6555  0.0441 -0.1821
  176DOPC  H14C21462   2.243   1.209  12.557 -0.7746 -1.7605 -1.3109
  176DOPC   C1521463   2.500   1.353  12.403  0.0110 -0.0728  0.6962
  176DOPC  H15A21464   2.470   1.282  12.327 -0.3741 -1.4014  2.0451
  176DOPC  H15B21465   2.606   1.345  12.427  0.0567  1.3312  1.0098
  176DOPC  H15C21466   2.471   1.452  12.373  0.2329 -0.4195 -0.7414
  176DOPC   C1121467   2.638   1.222  12.649  0.4434  0.3641  0.4690
  176DOPC  H11A21468   2.637   1.320  12.702 -1.0456 -0.0016  1.1725
  176DOPC  H11B21469   2.651   1.132  12.713 -0.2828 -0.3114 -0.3077
  176DOPC     P21470   2.880   1.250  12.553  0.3795 -0.0032  0.0951
  176DOPC   O1321471   2.917   1.379  12.483 -0.0224 -0.3705  0.1575
  176DOPC   O1421472   2.951   1.129  12.514  0.3699  0.4206  1.0586
  176DOPC   O1221473   2.724   1.225  12.536 -0.0721 -0.2548  0.2102
  176DOPC   O1121474   2.890   1.273  12.712  0.4584  0.4373  0.1331
  176DOPC    C121475   2.995   1.214  12.781  0.2944 -0.8437  0.4019
  176DOPC    HA21476   3.029   1.294  12.852 -0.5728 -0.5297  0.4792
  176DOPC    HB21477   3.082   1.196  12.715 -1.6950 -0.3881 -2.4981
  176DOPC    C221478   2.949   1.114  12.882 -0.9952 -0.2764 -0.2117
  176DOPC    HS21479   2.915   1.020  12.834 -0.4175 -0.6685  0.1322
  176DOPC   O2121480   2.845   1.175  12.963 -0.4171 -0.3117  0.1861
  176DOPC   C2121481   2.765   1.090  13.021 -0.3280  0.6082  0.4076
  176DOPC   O2221482   2.766   0.966  13.012 -0.4050  0.8708  0.2269
  176DOPC   C2221483   2.642   1.167  13.084 -0.0901 -0.4763  0.2345
  176DOPC   H2R21484   2.581   1.088  13.132  0.1823  0.4647  2.2288
  176DOPC   H2S21485   2.592   1.232  13.009  0.3017 -0.6487 -0.1765
  176DOPC    C321486   3.068   1.070  12.974 -0.4153 -0.2854  0.8887
  176DOPC    HX21487   3.148   1.058  12.898 -0.7334  1.5033  0.2023
  176DOPC    HY21488   3.035   0.974  13.019 -3.1941  0.2315  0.1399
  176DOPC   O3121489   3.106   1.165  13.078 -0.1000  0.2672  0.5050
  176DOPC   C3121490   3.195   1.110  13.162  0.3934 -0.5337  0.1445
  176DOPC   O3221491   3.227   0.989  13.158  0.0265 -0.1891  0.2957
  176DOPC   C3221492   3.272   1.224  13.240 -0.8742  0.3725 -0.6934
  176DOPC   H2X21493   3.339   1.259  13.158  0.7791 -3.1828 -1.0506
  176DOPC   H2Y21494   3.191   1.293  13.272 -1.0947  0.5302 -1.5584
  176DOPC   C2321495   2.700   1.253  13.206 -0.2999  0.5027  0.4594
  176DOPC   H3R21496   2.629   1.338  13.206 -1.2552 -0.2773  0.3624
  176DOPC   H3S21497   2.794   1.299  13.168  0.1454 -1.5671 -1.1210
  176DOPC   C2421498   2.705   1.185  13.342  0.1802 -0.1083 -0.8421
  176DOPC   H4R21499   2.613   1.127  13.365  1.6255 -2.3221 -0.3521
  176DOPC   H4S21500   2.717   1.262  13.422  0.1460 -1.1634  0.2095
  176DOPC   C2521501   2.822   1.086  13.352  0.0770  0.0417  0.3809
  176DOPC   H5R21502   2.901   1.144  13.299 -1.0226 -1.4503 -3.1735
  176DOPC   H5S21503   2.804   0.995  13.292  1.2935 -0.3934  0.6414
  176DOPC   C2621504   2.855   1.061  13.497 -0.1930 -0.3496 -0.4484
  176DOPC   H6R21505   2.863   1.164  13.540 -2.3499 -0.5892  0.6633
  176DOPC   H6S21506   2.955   1.013  13.499 -0.0394 -0.0698 -1.0351
  176DOPC   C2721507   2.741   0.992  13.572 -0.6661 -0.4945 -0.2190
  176DOPC   H7R21508   2.732   0.886  13.541 -1.1622 -1.1933  2.1383
  176DOPC   H7S21509   2.640   1.028  13.543  0.5404  2.7713 -0.8745
  176DOPC   C2821510   2.758   1.012  13.727 -0.5196 -0.8355 -0.9822
  176DOPC   H8R21511   2.680   0.951  13.777  0.1016  0.7501  2.2222
  176DOPC   H8S21512   2.728   1.118  13.738 -0.8288 -1.0740  0.7359
  176DOPC   C2921513   2.886   0.985  13.800  0.0149  0.5450 -0.0687
  176DOPC   H9R21514   2.978   1.026  13.755  1.0520  1.0584  2.3890
  176DOPC  C21021515   2.899   0.920  13.918 -0.0908  0.2837  0.0563
  176DOPC  H10R21516   2.999   0.908  13.961 -0.4294 -0.3554  0.6939
  176DOPC  C21121517   2.791   0.860  14.005  0.4233  0.0995 -0.4696
  176DOPC  H11R21518   2.828   0.776  14.068  0.6199  0.7061  0.2473
  176DOPC  H11S21519   2.717   0.819  13.934 -0.8704  0.6163  0.5267
  176DOPC  C21221520   2.710   0.966  14.086 -0.1194  1.2601  0.0376
  176DOPC  H12R21521   2.651   1.023  14.011 -0.5963  2.4240  1.2688
  176DOPC  H12S21522   2.779   1.036  14.138  0.3318  1.2102 -0.4793
  176DOPC  C21321523   2.616   0.893  14.184 -0.0155 -0.5045 -0.5926
  176DOPC  H13R21524   2.664   0.820  14.252 -2.0499 -1.4283 -0.0712
  176DOPC  H13S21525   2.557   0.826  14.118  0.3989 -0.5503 -0.9191
  176DOPC  C21421526   2.535   0.995  14.273  0.3597 -0.4519  0.4118
  176DOPC  H14R21527   2.471   1.059  14.209  1.0828 -0.8233 -0.7107
  176DOPC  H14S21528   2.605   1.060  14.330 -1.9808  1.7312  0.9557
  176DOPC  C21521529   2.438   0.935  14.380 -0.6304 -0.2925 -0.0331
  176DOPC  H15R21530   2.497   0.866  14.444  1.4438  0.4434 -1.0334
  176DOPC  H15S21531   2.360   0.878  14.325 -0.3618 -2.8470  2.0407
  176DOPC  C21621532   2.368   1.036  14.468  0.2437 -0.7201  0.1387
  176DOPC  H16R21533   2.342   1.125  14.408  0.4886 -2.4030 -2.6600
  176DOPC  H16S21534   2.439   1.072  14.546  0.2705  1.4464 -0.8355
  176DOPC  C21721535   2.238   0.971  14.525  0.1257 -0.6722  0.9683
  176DOPC  H17R21536   2.270   0.869  14.555  1.7425  0.0357  1.7851
  176DOPC  H17S21537   2.168   0.949  14.442  0.7487  0.5906  0.0798
  176DOPC  C21821538   2.181   1.051  14.636  0.4553 -0.0743 -0.5293
  176DOPC  H18R21539   2.113   1.129  14.596  2.8455  1.9701 -0.8490
  176DOPC  H18S21540   2.250   1.091  14.713 -0.9213 -0.4281  0.9412
  176DOPC  H18T21541   2.119   0.994  14.708 -1.2224  1.3502 -0.7932
  176DOPC   C3321542   3.366   1.167  13.356  0.1364  0.0686 -0.4589
  176DOPC   H3X21543   3.429   1.247  13.403  0.7973  0.0960 -1.3587
  176DOPC   H3Y21544   3.437   1.091  13.317  2.7223  2.8832 -1.6560
  176DOPC   C3421545   3.278   1.108  13.474 -0.7710 -0.0642  0.0812
  176DOPC   H4X21546   3.182   1.066  13.438 -0.3087 -0.9989 -0.1013
  176DOPC   H4Y21547   3.260   1.200  13.533  1.1486  0.2985  0.1797
  176DOPC   C3521548   3.359   1.020  13.557 -0.2177  0.5237 -0.2472
  176DOPC   H5X21549   3.460   1.061  13.575 -0.4760  1.1501 -0.2238
  176DOPC   H5Y21550   3.371   0.926  13.498  0.3810 -0.8137  1.8865
  176DOPC   C3621551   3.292   0.966  13.682 -0.1190 -0.3765 -0.7326
  176DOPC   H6X21552   3.245   1.053  13.734 -5.1844 -1.5888 -2.7216
  176DOPC   H6Y21553   3.202   0.904  13.664 -0.4681  0.4855 -2.0825
  176DOPC   C3721554   3.393   0.894  13.772 -0.6929  0.2609  0.6458
  176DOPC   H7X21555   3.387   0.784  13.758  0.0116  0.1470  1.1944
  176DOPC   H7Y21556   3.493   0.937  13.751  0.6962 -3.2277 -0.5414
  176DOPC   C3821557   3.349   0.928  13.913  0.2212  0.2505  0.8793
  176DOPC   H8X21558   3.239   0.915  13.917 -0.1823  0.4249 -3.8004
  176DOPC   H8Y21559   3.364   1.037  13.930 -1.5541  0.7876 -0.6554
  176DOPC   C3921560   3.427   0.841  14.005 -0.3709 -0.8085  0.0858
  176DOPC   H9X21561   3.531   0.870  14.026 -1.1154  2.6167 -0.2727
  176DOPC  C31021562   3.385   0.730  14.061  0.1550 -0.7667  0.3589
  176DOPC  H10X21563   3.465   0.678  14.116  1.0920  0.6368  0.3754
  176DOPC  C31121564   3.250   0.666  14.053 -0.0443 -0.4202  0.1069
  176DOPC  H11X21565   3.259   0.556  14.036 -1.7951 -0.4893 -0.6347
  176DOPC  H11Y21566   3.187   0.717  13.977 -0.9753 -0.8945  0.5512
  176DOPC  C31221567   3.171   0.696  14.186 -0.1338 -0.2600 -0.1913
  176DOPC  H12X21568   3.234   0.645  14.262 -1.1146 -0.2131  0.6712
  176DOPC  H12Y21569   3.076   0.638  14.183 -0.6902  0.5729  0.6993
  176DOPC  C31321570   3.152   0.847  14.222  0.6221  0.1311  0.7036
  176DOPC  H13X21571   3.251   0.896  14.217  0.5556  0.1956 -3.4740
  176DOPC  H13Y21572   3.085   0.883  14.141  1.8798 -0.3984 -0.6111
  176DOPC  C31421573   3.092   0.888  14.355  0.4323 -0.5382 -0.1589
  176DOPC  H14X21574   3.153   0.845  14.437 -0.7824  1.1075  1.6859
  176DOPC  H14Y21575   3.095   0.998  14.371 -1.1341 -0.7691  2.3091
  176DOPC  C31521576   2.937   0.861  14.378  0.1218 -0.6803  0.5447
  176DOPC  H15X21577   2.933   0.753  14.355  0.8566 -0.4700 -0.6716
  176DOPC  H15Y21578   2.885   0.922  14.301  1.3859 -0.1700  0.0696
  176DOPC  C31621579   2.892   0.910  14.517  0.0794  0.3313  0.3059
  176DOPC  H16X21580   2.983   0.902  14.581 -0.9366  0.0762  1.7857
  176DOPC  H16Y21581   2.859   1.016  14.511  2.0191  0.9041 -1.3045
  176DOPC  C31721582   2.768   0.830  14.560 -0.0554  0.8635  0.1861
  176DOPC  H17X21583   2.697   0.825  14.474  1.0276  1.2246 -0.7516
  176DOPC  H17Y21584   2.811   0.729  14.578  0.0435  0.7690 -0.5675
  176DOPC  C31821585   2.714   0.880  14.693  0.2223 -0.0123  0.1894
  176DOPC  H18X21586   2.666   0.977  14.665  0.2538  0.0537  0.3644
  176DOPC  H18Y21587   2.638   0.814  14.739  2.7338 -3.2389  0.0568
  176DOPC  H18Z21588   2.794   0.901  14.767 -0.7551  1.1322  0.9715
  177DOPC     N21589   5.471   5.924  12.887 -0.3452  0.3408 -0.3928
  177DOPC   C1221590   5.420   5.824  12.994  0.4285 -0.4237  0.2052
  177DOPC  H12A21591   5.360   5.753  12.939 -0.6100  2.9997 -3.5314
  177DOPC  H12B21592   5.347   5.875  13.055  0.7835 -0.6792  0.8613
  177DOPC   C1321593   5.546   5.853  12.784  0.4793 -0.1063  0.3215
  177DOPC  H13A21594   5.626   5.800  12.833 -0.1143  1.3506  3.0449
  177DOPC  H13B21595   5.483   5.786  12.726 -1.3056  1.1619  0.7107
  177DOPC  H13C21596   5.588   5.921  12.711  1.1094 -0.8831 -0.0531
  177DOPC   C1421597   5.560   6.025  12.968 -0.0417  0.2539  0.0963
  177DOPC  H14A21598   5.589   6.110  12.908  2.9178 -1.5531 -1.2447
  177DOPC  H14B21599   5.503   6.052  13.056 -2.7710 -0.4194 -1.3498
  177DOPC  H14C21600   5.649   5.981  13.009  1.2806  2.7989  0.1400
  177DOPC   C1521601   5.356   5.998  12.823  0.4519 -0.1767 -0.7686
  177DOPC  H15A21602   5.392   6.081  12.765  1.2959 -1.5777 -2.3382
  177DOPC  H15B21603   5.293   6.038  12.901  0.0926 -0.8051 -0.7274
  177DOPC  H15C21604   5.301   5.935  12.755  0.7366 -0.3870 -0.8091
  177DOPC   C1121605   5.518   5.756  13.088  1.0370 -0.1275 -0.0173
  177DOPC  H11A21606   5.570   5.833  13.149 -1.2220  0.1387  1.6935
  177DOPC  H11B21607   5.461   5.703  13.168  0.7039  0.2337 -0.0148
  177DOPC     P21608   5.768   5.680  13.045  0.6240 -0.2387  0.0427
  177DOPC   O1321609   5.786   5.828  13.053 -0.0217  0.8085  0.4561
  177DOPC   O1421610   5.840   5.622  12.935  0.1044  0.1771 -0.1264
  177DOPC   O1221611   5.616   5.667  13.016 -0.0915 -0.3759 -0.1081
  177DOPC   O1121612   5.805   5.614  13.180  0.1759  0.0461 -0.2011
  177DOPC    C121613   5.774   5.489  13.220  0.1164 -0.0823  0.0655
  177DOPC    HA21614   5.858   5.441  13.275 -2.0590 -3.4962  0.7173
  177DOPC    HB21615   5.749   5.423  13.134  0.5629 -1.3214  0.8495
  177DOPC    C221616   5.655   5.483  13.319  0.5867  0.7543 -0.1049
  177DOPC    HS21617   5.565   5.524  13.269  0.4636  0.0209 -0.4933
  177DOPC   O2121618   5.693   5.556  13.429  0.0886 -0.3994  0.3937
  177DOPC   C2121619   5.630   5.669  13.469  0.0892  0.0691 -0.1814
  177DOPC   O2221620   5.533   5.720  13.427 -0.1519 -0.5110 -0.2157
  177DOPC   C2221621   5.703   5.720  13.592 -0.0221 -0.0552  0.4529
  177DOPC   H2R21622   5.730   5.825  13.567  0.1777 -0.3735 -0.7584
  177DOPC   H2S21623   5.803   5.672  13.598 -0.4669 -1.3890 -1.5102
  177DOPC    C321624   5.614   5.334  13.360  0.5189 -0.3885  0.2079
  177DOPC    HX21625   5.702   5.285  13.405 -0.1402 -1.6257  0.1969
  177DOPC    HY21626   5.591   5.265  13.276  1.0501 -2.8680  1.9882
  177DOPC   O3121627   5.513   5.334  13.459  0.2119 -0.0997  0.0286
  177DOPC   C3121628   5.423   5.234  13.457 -0.5265 -0.4891  0.4986
  177DOPC   O3221629   5.423   5.141  13.377  0.3253  0.0993 -0.2352
  177DOPC   C3221630   5.319   5.251  13.566 -0.2679 -0.1298  0.1518
  177DOPC   H2X21631   5.360   5.289  13.662 -1.7102  1.3672  0.2272
  177DOPC   H2Y21632   5.247   5.328  13.530  1.9094  2.1691  0.4127
  177DOPC   C2321633   5.613   5.720  13.714  0.6224 -0.2450 -0.7812
  177DOPC   H3R21634   5.516   5.771  13.697 -1.1496 -2.2797  2.1841
  177DOPC   H3S21635   5.665   5.774  13.796 -3.0284  2.6177 -0.0602
  177DOPC   C2421636   5.573   5.583  13.763  0.5375  0.3831  0.0330
  177DOPC   H4R21637   5.666   5.524  13.764  0.4121  0.1925  1.1635
  177DOPC   H4S21638   5.504   5.546  13.684  0.4817  1.0177 -0.2228
  177DOPC   C2521639   5.495   5.583  13.899 -0.5547  0.0972  0.0136
  177DOPC   H5R21640   5.431   5.674  13.897  1.8344  1.8890  0.9380
  177DOPC   H5S21641   5.569   5.607  13.978 -1.7039  0.8494  0.9067
  177DOPC   C2621642   5.414   5.461  13.943 -0.1814 -0.4314 -0.2507
  177DOPC   H6R21643   5.476   5.369  13.952 -1.0520 -0.9437  0.7570
  177DOPC   H6S21644   5.337   5.433  13.868 -1.2743  0.0599  0.6678
  177DOPC   C2721645   5.343   5.494  14.080 -0.1884 -0.5019  0.1020
  177DOPC   H7R21646   5.274   5.579  14.065  1.0896  0.7864  1.1544
  177DOPC   H7S21647   5.417   5.531  14.154 -1.1175 -0.5876  1.1003
  177DOPC   C2821648   5.273   5.364  14.125 -0.2139 -0.4063  0.9865
  177DOPC   H8R21649   5.347   5.283  14.132  0.9023  0.3564 -1.0737
  177DOPC   H8S21650   5.200   5.338  14.045  0.3116 -0.1982  0.4290
  177DOPC   C2921651   5.209   5.397  14.257  0.3522  0.1337 -0.6616
  177DOPC   H9R21652   5.128   5.472  14.252  0.9271  0.9187  0.9562
  177DOPC  C21021653   5.249   5.347  14.381  0.1525  0.0995 -0.0410
  177DOPC  H10R21654   5.202   5.393  14.469  1.2988  2.5562 -0.6312
  177DOPC  C21121655   5.372   5.260  14.402  0.3585  0.0010 -0.6522
  177DOPC  H11R21656   5.467   5.313  14.381  0.0032  0.7261 -0.4774
  177DOPC  H11S21657   5.364   5.168  14.341 -0.3686 -0.8634  0.6809
  177DOPC  C21221658   5.394   5.214  14.548  0.2005 -0.2666  0.7614
  177DOPC  H12R21659   5.299   5.166  14.581  0.7635 -1.4836  0.6559
  177DOPC  H12S21660   5.408   5.305  14.610  0.7234 -0.6734  1.2531
  177DOPC  C21321661   5.519   5.123  14.571 -0.8322  0.0879  0.0792
  177DOPC  H13R21662   5.609   5.188  14.580  0.1194 -1.1483 -0.2712
  177DOPC  H13S21663   5.545   5.059  14.485  0.8679 -1.2946  1.5374
  177DOPC  C21421664   5.500   5.032  14.693 -0.6708 -0.2049  0.2537
  177DOPC  H14R21665   5.579   4.954  14.694  0.1855  0.6470  1.6869
  177DOPC  H14S21666   5.408   4.976  14.667 -0.5269  0.2189 -1.2554
  177DOPC  C21521667   5.479   5.109  14.821  0.1138 -0.2851  0.2670
  177DOPC  H15R21668   5.377   5.152  14.835  0.5575  0.8147  0.1912
  177DOPC  H15S21669   5.553   5.191  14.832 -1.6829  1.5423 -0.4923
  177DOPC  C21621670   5.512   5.001  14.933  0.4147  0.0179  0.3834
  177DOPC  H16R21671   5.518   5.050  15.033 -2.2066 -0.8810  1.0514
  177DOPC  H16S21672   5.610   4.955  14.908 -0.1929 -0.9241 -0.3102
  177DOPC  C21721673   5.414   4.891  14.936  0.1120  0.6055  0.2364
  177DOPC  H17R21674   5.434   4.833  15.029 -1.0830 -0.9549 -0.4298
  177DOPC  H17S21675   5.425   4.813  14.858  2.8011 -0.2872  1.3932
  177DOPC  C21821676   5.267   4.935  14.953  0.2303  0.1232 -0.0929
  177DOPC  H18R21677   5.193   4.855  14.970 -0.7871  1.4307  2.0315
  177DOPC  H18S21678   5.239   4.988  14.859 -1.3727  0.9151  0.7945
  177DOPC  H18T21679   5.273   4.996  15.046 -0.5647 -1.9401  1.3857
  177DOPC   C3321680   5.258   5.115  13.608  0.4293  0.2543  0.8589
  177DOPC   H3X21681   5.326   5.052  13.669  0.9089  3.3319  3.8331
  177DOPC   H3Y21682   5.209   5.067  13.521  2.3001  0.9094 -0.6402
  177DOPC   C3421683   5.150   5.129  13.712  0.3815 -0.4111  0.1341
  177DOPC   H4X21684   5.201   5.178  13.798  0.0718 -0.2711  0.2387
  177DOPC   H4Y21685   5.107   5.030  13.737  0.6462 -0.2068  1.4511
  177DOPC   C3521686   5.037   5.221  13.681 -0.2881  0.0139 -0.2036
  177DOPC   H5X21687   4.999   5.179  13.585 -0.6510 -0.6419  0.2199
  177DOPC   H5Y21688   5.072   5.324  13.659  0.0059 -0.0471 -0.0196
  177DOPC   C3621689   4.916   5.213  13.777 -0.1437 -0.1469  0.6389
  177DOPC   H6X21690   4.827   5.259  13.729  0.9584  3.1988  1.5708
  177DOPC   H6Y21691   4.908   5.103  13.792  0.7078 -0.4225 -0.6772
  177DOPC   C3721692   4.944   5.283  13.912  0.0417 -0.2660 -0.5890
  177DOPC   H7X21693   5.029   5.235  13.965  0.4984  1.2980  0.1487
  177DOPC   H7Y21694   4.970   5.382  13.869 -0.4382 -0.9449 -2.5664
  177DOPC   C3821695   4.831   5.285  14.018 -0.0004 -0.5088  0.3528
  177DOPC   H8X21696   4.816   5.187  14.068  0.5860 -0.2277  1.0888
  177DOPC   H8Y21697   4.737   5.305  13.962 -0.5850  0.2139  1.5595
  177DOPC   C3921698   4.855   5.389  14.120 -0.3663 -0.0169 -0.2126
  177DOPC   H9X21699   4.899   5.476  14.071  1.0582 -0.3284  0.4708
  177DOPC  C31021700   4.840   5.403  14.252  0.2599 -0.2267  0.0072
  177DOPC  H10X21701   4.856   5.496  14.309 -4.1243  1.5007 -1.1545
  177DOPC  C31121702   4.761   5.298  14.332 -0.0347  0.7861  0.1619
  177DOPC  H11X21703   4.716   5.221  14.265 -1.2568  1.4675  0.1885
  177DOPC  H11Y21704   4.673   5.331  14.391 -0.6966 -0.6368  0.0235
  177DOPC  C31221705   4.850   5.224  14.436  0.5584 -0.8992 -0.4808
  177DOPC  H12X21706   4.933   5.161  14.398  0.3940 -0.5216 -1.5104
  177DOPC  H12Y21707   4.771   5.155  14.474 -1.0808  0.5381 -1.1279
  177DOPC  C31321708   4.904   5.318  14.550  0.3590 -0.6967 -0.0331
  177DOPC  H13X21709   4.970   5.395  14.504 -0.2382 -0.7467 -0.9934
  177DOPC  H13Y21710   4.814   5.370  14.587  0.2831 -1.0886  0.3421
  177DOPC  C31421711   4.966   5.241  14.662 -0.1817  0.1360 -0.7308
  177DOPC  H14X21712   4.898   5.162  14.703 -1.2727  1.0939 -0.6502
  177DOPC  H14Y21713   5.048   5.199  14.600 -1.3973 -0.4198 -2.0292
  177DOPC  C31521714   5.027   5.324  14.780  0.2462  0.3128  0.2221
  177DOPC  H15X21715   4.949   5.390  14.824 -0.5305 -0.4300 -0.0155
  177DOPC  H15Y21716   5.110   5.387  14.742  0.2192  0.9195  1.1261
  177DOPC  C31621717   5.079   5.232  14.886 -0.0334 -0.1946  0.1805
  177DOPC  H16X21718   4.988   5.180  14.922 -1.0324  2.1625  1.2757
  177DOPC  H16Y21719   5.143   5.155  14.838  1.1051  0.9864 -0.2559
  177DOPC  C31721720   5.130   5.281  15.021 -0.2430 -0.3213 -0.0808
  177DOPC  H17X21721   5.066   5.359  15.066  3.1232  1.6508  1.6805
  177DOPC  H17Y21722   5.119   5.203  15.099 -0.8437  0.2974  0.4648
  177DOPC  C31821723   5.281   5.309  15.032  0.0620 -0.3952  0.0041
  177DOPC  H18X21724   5.317   5.345  15.131 -0.1429 -0.9316  0.2724
  177DOPC  H18Y21725   5.332   5.214  15.008 -0.5957 -0.5407 -0.8322
  177DOPC  H18Z21726   5.303   5.382  14.951  0.5019 -0.1260  0.3584
  178DOPC     N21727   3.056   5.207  12.143  0.1774  0.2395  0.0522
  178DOPC   C1221728   3.177   5.136  12.198 -0.2806  0.2813 -0.6178
  178DOPC  H12A21729   3.262   5.172  12.143 -0.0374 -0.2082 -0.5590
  178DOPC  H12B21730   3.155   5.031  12.185 -1.5031  0.4513 -0.1193
  178DOPC   C1321731   3.060   5.232  11.998 -0.3892  0.2044  0.0472
  178DOPC  H13A21732   3.074   5.139  11.947  1.3273  0.2903  0.3048
  178DOPC  H13B21733   2.966   5.277  11.970 -0.2723  0.8222  0.5914
  178DOPC  H13C21734   3.140   5.300  11.970  0.4168 -1.6624 -2.4693
  178DOPC   C1421735   3.040   5.345  12.201  0.2558 -0.1849  0.2063
  178DOPC  H14A21736   3.132   5.402  12.197  0.5004 -0.3817  2.0075
  178DOPC  H14B21737   2.971   5.406  12.145 -0.0551  0.2236  1.0292
  178DOPC  H14C21738   2.997   5.336  12.300 -2.9773 -0.1294 -1.0917
  178DOPC   C1521739   2.940   5.124  12.180  0.3204  0.3165 -0.0447
  178DOPC  H15A21740   2.932   5.111  12.287 -3.0487 -0.6048 -0.2744
  178DOPC  H15B21741   2.934   5.030  12.127 -1.6633 -0.6913  1.7892
  178DOPC  H15C21742   2.845   5.171  12.157 -0.6633 -2.3698 -1.9618
  178DOPC   C1121743   3.211   5.158  12.348 -1.2602  0.1554  0.2747
  178DOPC  H11A21744   3.311   5.111  12.356 -0.3182  1.7735 -1.3602
  178DOPC  H11B21745   3.234   5.265  12.364 -0.1219  0.2971 -1.9273
  178DOPC     P21746   3.128   4.965  12.501 -0.6403 -0.2708 -0.1892
  178DOPC   O1321747   3.232   4.964  12.611  0.2069 -0.1151  0.9575
  178DOPC   O1421748   3.144   4.868  12.388 -0.7686  0.1460  0.3924
  178DOPC   O1221749   3.112   5.111  12.439  0.3619 -0.0204  0.7095
  178DOPC   O1121750   2.991   4.945  12.572  0.6008 -0.6529 -0.2081
  178DOPC    C121751   2.915   5.065  12.602 -0.1837  0.3956  0.0765
  178DOPC    HA21752   2.826   5.022  12.654  1.7326 -3.0413  0.7736
  178DOPC    HB21753   2.885   5.120  12.510 -0.7727 -0.2189 -0.1097
  178DOPC    C221754   2.970   5.167  12.707 -0.2188 -0.0721  0.2997
  178DOPC    HS21755   3.054   5.224  12.662 -1.1081  0.3414 -0.8888
  178DOPC   O2121756   3.001   5.093  12.831 -0.0071 -0.0961 -0.4109
  178DOPC   C2121757   3.109   5.137  12.887  0.5939  0.0101 -0.1197
  178DOPC   O2221758   3.190   5.218  12.853 -0.3411 -0.0194  0.5748
  178DOPC   C2221759   3.111   5.068  13.030 -0.3010 -0.0769  0.4160
  178DOPC   H2R21760   3.089   4.962  13.008 -2.3674  0.6996 -1.7213
  178DOPC   H2S21761   3.027   5.110  13.089 -0.7388 -0.0244 -0.2316
  178DOPC    C321762   2.864   5.277  12.735  0.2528  0.0414  0.4381
  178DOPC    HX21763   2.778   5.221  12.776 -1.3776  0.0126 -2.7212
  178DOPC    HY21764   2.838   5.331  12.642 -0.2220  1.5090  1.3878
  178DOPC   O3121765   2.914   5.368  12.840  0.1954 -0.3036 -0.0015
  178DOPC   C3121766   3.000   5.462  12.793 -0.9365  0.0036  0.1924
  178DOPC   O3221767   3.027   5.484  12.676  0.0216 -1.0089 -0.5276
  178DOPC   C3221768   3.074   5.534  12.900 -0.1473  0.1457  0.1603
  178DOPC   H2X21769   3.181   5.507  12.889 -0.5091 -0.2384 -3.9668
  178DOPC   H2Y21770   3.064   5.643  12.882 -1.2284  0.2358  1.1767
  178DOPC   C2321771   3.235   5.094  13.111 -0.3773  0.3310  0.3291
  178DOPC   H3R21772   3.250   5.204  13.108 -0.2131  0.2822 -1.4693
  178DOPC   H3S21773   3.317   5.044  13.055 -0.6991 -0.0492  0.1966
  178DOPC   C2421774   3.233   5.052  13.260 -0.2563 -0.3560  0.4508
  178DOPC   H4R21775   3.333   5.017  13.294 -1.4446 -2.1371  2.3331
  178DOPC   H4S21776   3.165   4.965  13.254 -0.6430  0.0546 -1.9819
  178DOPC   C2521777   3.175   5.160  13.353  0.8902 -0.0987  0.4780
  178DOPC   H5R21778   3.150   5.257  13.305 -1.9434  0.2343  2.3585
  178DOPC   H5S21779   3.254   5.181  13.428  0.9693  0.2978  0.2859
  178DOPC   C2621780   3.055   5.104  13.429  0.3801 -0.2358  0.1020
  178DOPC   H6R21781   3.087   5.016  13.488 -1.0275 -1.3651 -0.7245
  178DOPC   H6S21782   2.977   5.068  13.358  1.9199 -0.5591 -1.4966
  178DOPC   C2721783   3.000   5.208  13.524 -0.2134 -0.2181 -0.1691
  178DOPC   H7R21784   2.968   5.301  13.472  0.9567  0.1121 -0.3239
  178DOPC   H7S21785   3.084   5.251  13.582 -1.9193  2.7201  0.3726
  178DOPC   C2821786   2.883   5.163  13.611 -0.1077  0.1136  0.6029
  178DOPC   H8R21787   2.899   5.056  13.637 -2.5856  0.0528  2.1391
  178DOPC   H8S21788   2.793   5.156  13.547  0.6864 -0.2435 -0.5126
  178DOPC   C2921789   2.870   5.247  13.732  0.2392 -0.2208 -0.0055
  178DOPC   H9R21790   2.797   5.329  13.726  0.1062 -0.1620  1.8211
  178DOPC  C21021791   2.960   5.268  13.830 -0.8479  0.5962  0.2174
  178DOPC  H10R21792   2.941   5.339  13.911  2.9438  2.3938 -0.2449
  178DOPC  C21121793   3.081   5.185  13.854 -0.1072  0.1397  0.2990
  178DOPC  H11R21794   3.175   5.227  13.812  0.9093 -1.4266  0.9280
  178DOPC  H11S21795   3.065   5.086  13.806 -0.3607 -0.7254  2.1142
  178DOPC  C21221796   3.116   5.156  14.002  0.4948  0.6810  0.1889
  178DOPC  H12R21797   3.035   5.086  14.034  0.9627  0.7366  1.5604
  178DOPC  H12S21798   3.118   5.246  14.067 -3.3797  1.2161 -0.1933
  178DOPC  C21321799   3.258   5.096  14.027 -0.0470  0.3412 -0.7844
  178DOPC  H13R21800   3.332   5.177  14.007 -1.4289  2.2911  1.3827
  178DOPC  H13S21801   3.277   5.015  13.954  0.8996 -0.2621  0.0901
  178DOPC  C21421802   3.276   5.039  14.167  0.2957  0.3232 -0.1948
  178DOPC  H14R21803   3.194   4.967  14.189 -1.0214  2.0091  0.6772
  178DOPC  H14S21804   3.265   5.117  14.245 -1.0979 -0.5836  0.5641
  178DOPC  C21521805   3.419   4.980  14.185 -0.8383 -0.1549  0.7302
  178DOPC  H15R21806   3.440   4.905  14.106  0.7820 -0.1461  1.1138
  178DOPC  H15S21807   3.412   4.923  14.280 -3.4044  1.2918  1.5308
  178DOPC  C21621808   3.538   5.078  14.183  0.2102 -0.2699  0.2808
  178DOPC  H16R21809   3.563   5.125  14.085 -0.7435  0.0459  0.1836
  178DOPC  H16S21810   3.629   5.022  14.213 -0.9318 -2.1102  0.4375
  178DOPC  C21721811   3.522   5.199  14.278  0.0017  0.4204  0.0848
  178DOPC  H17R21812   3.544   5.162  14.380 -0.2726 -3.0091 -0.9967
  178DOPC  H17S21813   3.425   5.250  14.261 -0.3785 -0.2228  0.2977
  178DOPC  C21821814   3.627   5.313  14.258  0.6267 -0.3402  0.1037
  178DOPC  H18R21815   3.608   5.363  14.160 -0.5207 -0.7283  0.1093
  178DOPC  H18S21816   3.726   5.264  14.249  0.0610 -1.4423 -0.3306
  178DOPC  H18T21817   3.617   5.392  14.336  0.0887  0.3687 -0.6633
  178DOPC   C3321818   3.018   5.524  13.050 -0.3557  0.5542 -0.0644
  178DOPC   H3X21819   3.024   5.418  13.084 -0.5735  0.3714 -0.5920
  178DOPC   H3Y21820   2.911   5.555  13.047 -1.6584 -3.4150 -1.9787
  178DOPC   C3421821   3.096   5.609  13.153 -0.6524 -0.3114 -0.3624
  178DOPC   H4X21822   3.078   5.717  13.134 -0.1559  0.0244  0.9788
  178DOPC   H4Y21823   3.204   5.582  13.148  0.0335  2.3164 -2.3058
  178DOPC   C3521824   3.036   5.576  13.289 -0.1091 -0.4554  0.1841
  178DOPC   H5X21825   3.038   5.466  13.299  1.5678 -0.6235 -1.4499
  178DOPC   H5Y21826   2.928   5.600  13.281  0.3734  1.5279 -1.3500
  178DOPC   C3621827   3.108   5.642  13.404  0.0869  0.3337  0.4576
  178DOPC   H6X21828   3.217   5.625  13.389 -0.2739 -2.1241  0.2529
  178DOPC   H6Y21829   3.092   5.751  13.398 -0.4202  0.3535  1.8570
  178DOPC   C3721830   3.059   5.579  13.535  0.1089 -0.0557  0.4925
  178DOPC   H7X21831   2.952   5.556  13.517  0.2099 -0.9298  0.9071
  178DOPC   H7Y21832   3.106   5.483  13.567  1.2199  0.2298 -0.2489
  178DOPC   C3821833   3.083   5.672  13.652 -0.3125  0.6682 -0.4684
  178DOPC   H8X21834   3.032   5.626  13.740  1.2903 -1.5006 -0.5893
  178DOPC   H8Y21835   3.030   5.764  13.621  0.1923  0.8696 -0.7292
  178DOPC   C3921836   3.233   5.680  13.676  0.6080  0.3603 -0.3371
  178DOPC   H9X21837   3.277   5.723  13.585 -0.1287 -1.0698 -1.3965
  178DOPC  C31021838   3.312   5.630  13.776  0.1154  0.4515  1.3422
  178DOPC  H10X21839   3.420   5.650  13.783  0.6166 -0.7011 -1.4536
  178DOPC  C31121840   3.277   5.543  13.896  0.0908 -0.3342 -0.3281
  178DOPC  H11X21841   3.368   5.506  13.947  0.4839  2.1912  0.9843
  178DOPC  H11Y21842   3.217   5.451  13.882  0.9277 -1.0559  0.7510
  178DOPC  C31221843   3.210   5.631  14.007  0.0846 -0.0420  0.0096
  178DOPC  H12X21844   3.123   5.686  13.966  0.5665  2.1093  1.7240
  178DOPC  H12Y21845   3.283   5.701  14.053 -0.7731  0.3290  0.8418
  178DOPC  C31321846   3.152   5.541  14.117  0.1420 -0.1902 -0.9301
  178DOPC  H13X21847   3.095   5.603  14.189 -0.2457 -1.4958 -0.0790
  178DOPC  H13Y21848   3.088   5.466  14.067 -0.7215  0.1368 -0.3327
  178DOPC  C31421849   3.251   5.474  14.209  0.5866  0.1975  0.1918
  178DOPC  H14X21850   3.308   5.400  14.150  0.2747  1.4556 -1.7633
  178DOPC  H14Y21851   3.328   5.551  14.231 -0.2673  1.0613  0.2280
  178DOPC  C31521852   3.197   5.416  14.338 -0.0078  0.0432  0.6964
  178DOPC  H15X21853   3.274   5.366  14.401  0.8887 -1.3386 -1.4059
  178DOPC  H15Y21854   3.129   5.328  14.328 -2.0985  1.4618  1.6080
  178DOPC  C31621855   3.141   5.520  14.441  0.2917  0.2720 -0.1287
  178DOPC  H16X21856   3.218   5.596  14.462  2.0278 -1.4491  0.0283
  178DOPC  H16Y21857   3.048   5.565  14.399 -1.4123 -1.4523  1.5567
  178DOPC  C31721858   3.104   5.454  14.575 -0.0647  0.2230  0.0818
  178DOPC  H17X21859   3.019   5.506  14.625 -0.4570 -0.3767  0.0541
  178DOPC  H17Y21860   3.080   5.346  14.564  2.4333 -0.5478  1.3588
  178DOPC  C31821861   3.212   5.455  14.683  0.4532 -0.4127  0.5301
  178DOPC  H18X21862   3.228   5.559  14.720  0.5299 -0.3039  0.1943
  178DOPC  H18Y21863   3.174   5.405  14.775  1.6635 -0.2482  1.1543
  178DOPC  H18Z21864   3.311   5.420  14.647 -0.9741 -2.8027 -1.3097
  179DOPC     N21865   5.770   5.140  12.782 -0.4616 -0.4746  0.0393
  179DOPC   C1221866   5.865   5.144  12.900 -0.0009 -0.2537  0.1361
  179DOPC  H12A21867   5.883   5.242  12.940  1.3128  0.5275 -2.1812
  179DOPC  H12B21868   5.959   5.111  12.858 -0.3468 -0.0841 -0.8094
  179DOPC   C1321869   5.769   4.998  12.720  0.5790 -0.0727 -0.9059
  179DOPC  H13A21870   5.716   5.002  12.626 -0.2949  0.0415 -0.4195
  179DOPC  H13B21871   5.869   4.961  12.705  0.2754 -2.6208  2.2913
  179DOPC  H13C21872   5.715   4.927  12.782 -0.7951  2.2633  0.7452
  179DOPC   C1421873   5.816   5.230  12.673  0.3415 -0.1726  0.0424
  179DOPC  H14A21874   5.752   5.232  12.585  0.6840  1.3649 -0.1992
  179DOPC  H14B21875   5.812   5.334  12.701 -1.2913 -0.0990 -0.3596
  179DOPC  H14C21876   5.913   5.195  12.641  0.8630  1.0533  0.2311
  179DOPC   C1521877   5.627   5.179  12.815 -0.7172 -0.1509 -0.7597
  179DOPC  H15A21878   5.560   5.154  12.735 -1.4487 -2.3039  0.4545
  179DOPC  H15B21879   5.618   5.282  12.846 -2.2757 -0.3689 -0.4359
  179DOPC  H15C21880   5.602   5.120  12.902  0.8881  1.4965  0.9278
  179DOPC   C1121881   5.826   5.038  13.015 -0.0554 -0.0084 -0.8270
  179DOPC  H11A21882   5.891   5.068  13.100 -0.1955  0.9672 -1.0580
  179DOPC  H11B21883   5.722   5.061  13.045  0.2033  0.0596  0.0442
  179DOPC     P21884   5.976   4.816  13.020  0.3904 -0.2105  0.1408
  179DOPC   O1321885   6.071   4.811  12.906  0.0979  0.4149  0.1433
  179DOPC   O1421886   5.946   4.691  13.090 -0.6161 -0.5779 -0.2001
  179DOPC   O1221887   5.849   4.896  12.984 -0.0800 -0.4709  0.7109
  179DOPC   O1121888   6.047   4.912  13.125  0.2435  0.2030 -0.4905
  179DOPC    C121889   6.182   4.876  13.163 -0.1580  0.3087  0.0650
  179DOPC    HA21890   6.252   4.889  13.077  0.8161  0.3081  0.8342
  179DOPC    HB21891   6.192   4.775  13.206 -0.8737  0.1126 -0.2184
  179DOPC    C221892   6.231   4.984  13.269 -0.1493  0.1139  0.7575
  179DOPC    HS21893   6.339   4.963  13.285  0.3465 -0.3074 -2.4085
  179DOPC   O2121894   6.152   4.977  13.390 -0.0362 -0.3420 -0.0266
  179DOPC   C2121895   6.200   4.878  13.469  0.4187  0.6146  0.2276
  179DOPC   O2221896   6.298   4.815  13.445 -0.5215 -0.2014  0.8022
  179DOPC   C2221897   6.111   4.872  13.600 -0.4685 -0.5770  0.1330
  179DOPC   H2R21898   6.118   4.773  13.650 -0.2671 -0.2698  0.7205
  179DOPC   H2S21899   6.007   4.893  13.567 -0.0687  2.1473  0.3619
  179DOPC    C321900   6.209   5.123  13.201  0.7890  0.4702 -0.5012
  179DOPC    HX21901   6.103   5.137  13.170  0.2971  0.4625  1.0861
  179DOPC    HY21902   6.271   5.131  13.110  2.6855  0.2031  0.7121
  179DOPC   O3121903   6.251   5.227  13.294  0.3042 -0.2511  0.4509
  179DOPC   C3121904   6.163   5.256  13.381 -0.0975  0.3424  1.1558
  179DOPC   O3221905   6.051   5.215  13.387 -0.3105 -0.2201  0.6471
  179DOPC   C3221906   6.218   5.348  13.489 -0.2928  0.3274 -0.2613
  179DOPC   H2X21907   6.235   5.448  13.445 -2.0821  0.3241 -1.0459
  179DOPC   H2Y21908   6.131   5.349  13.558  1.2933  0.0796  1.8356
  179DOPC   C2321909   6.144   4.989  13.695 -0.3685  0.2563  0.1961
  179DOPC   H3R21910   6.124   5.083  13.639  2.5128  0.2362 -1.0620
  179DOPC   H3S21911   6.250   4.998  13.726 -1.0562  2.3684  2.2100
  179DOPC   C2421912   6.077   4.985  13.837  0.3228 -0.5408  0.8329
  179DOPC   H4R21913   6.106   4.889  13.886  1.2949 -1.4393 -1.3479
  179DOPC   H4S21914   5.966   4.994  13.831  0.1758 -1.8688  1.1596
  179DOPC   C2521915   6.131   5.102  13.912 -0.5170 -0.4601  0.3234
  179DOPC   H5R21916   6.104   5.195  13.858  0.1811  0.9536  2.2829
  179DOPC   H5S21917   6.241   5.107  13.897 -0.8166 -0.7554 -2.3432
  179DOPC   C2621918   6.099   5.101  14.065 -0.1341 -0.6165  0.2609
  179DOPC   H6R21919   6.135   5.001  14.097  0.4005  0.2376  2.6044
  179DOPC   H6S21920   5.988   5.100  14.062 -0.1737  1.4415 -0.8009
  179DOPC   C2721921   6.154   5.215  14.152  0.2791  0.1731 -0.2398
  179DOPC   H7R21922   6.147   5.311  14.095  0.8130 -0.0556 -0.6924
  179DOPC   H7S21923   6.263   5.194  14.155  0.3669  0.5964 -0.3707
  179DOPC   C2821924   6.094   5.227  14.295  0.0644  0.4780 -0.0432
  179DOPC   H8R21925   6.106   5.135  14.356  0.5182  0.3096 -0.3850
  179DOPC   H8S21926   5.984   5.238  14.284  0.0208 -0.3860 -0.5347
  179DOPC   C2921927   6.167   5.342  14.354  0.0098 -0.3155  0.9394
  179DOPC   H9R21928   6.137   5.431  14.297  4.4017  0.9930  0.2898
  179DOPC  C21021929   6.248   5.351  14.460 -0.2920 -0.2254 -0.6411
  179DOPC  H10R21930   6.298   5.448  14.476  1.2978 -1.3854  2.2870
  179DOPC  C21121931   6.297   5.246  14.561  0.0945 -0.3214 -0.1666
  179DOPC  H11R21932   6.406   5.225  14.555 -0.1420 -1.2350 -2.3844
  179DOPC  H11S21933   6.261   5.150  14.518 -0.0508 -0.7439  0.8775
  179DOPC  C21221934   6.249   5.275  14.702  0.2099  0.0961  0.5247
  179DOPC  H12R21935   6.269   5.186  14.764 -0.2104 -1.1761 -1.0820
  179DOPC  H12S21936   6.139   5.288  14.702  0.2366  0.4099 -0.2688
  179DOPC  C21321937   6.326   5.399  14.748 -0.5655 -0.1179  0.1069
  179DOPC  H13R21938   6.273   5.483  14.697  1.6871 -0.6104 -3.3556
  179DOPC  H13S21939   6.430   5.402  14.710 -0.8682 -2.4725 -1.0870
  179DOPC  C21421940   6.337   5.396  14.904  0.5164  0.1791  0.9758
  179DOPC  H14R21941   6.399   5.308  14.934  0.0124 -0.4227  0.2798
  179DOPC  H14S21942   6.233   5.387  14.942 -0.5282  2.0473 -1.2258
  179DOPC  C21521943   6.416   5.515  14.955 -0.2301  0.6143 -0.0981
  179DOPC  H15R21944   6.364   5.607  14.921  0.1668  1.0569  0.4783
  179DOPC  H15S21945   6.521   5.512  14.918 -0.4050  3.4135 -0.9982
  179DOPC  C21621946   6.409   5.516  15.109  0.6362 -0.1652 -0.1493
  179DOPC  H16R21947   6.473   5.602  15.141 -0.9285  1.2198 -0.5924
  179DOPC  H16S21948   6.442   5.417  15.147  0.1232 -0.9671 -1.7026
  179DOPC  C21721949   6.274   5.541  15.175  0.5444 -0.1651 -0.0749
  179DOPC  H17R21950   6.257   5.474  15.262 -0.1349  0.6727  0.4495
  179DOPC  H17S21951   6.197   5.503  15.105 -0.2279  1.3067 -0.0588
  179DOPC  C21821952   6.233   5.687  15.203  0.1550 -0.2777  0.3884
  179DOPC  H18R21953   6.240   5.743  15.108 -0.9247  1.1658  1.1222
  179DOPC  H18S21954   6.302   5.728  15.279  0.3330 -1.1609  0.7223
  179DOPC  H18T21955   6.127   5.690  15.235 -0.2025  0.2604 -0.8077
  179DOPC   C3321956   6.339   5.283  13.560  0.6231 -0.3237 -0.1079
  179DOPC   H3X21957   6.433   5.294  13.501  0.5531 -1.9478 -0.5646
  179DOPC   H3Y21958   6.321   5.176  13.582 -0.2461 -0.3524 -0.8827
  179DOPC   C3421959   6.345   5.347  13.702 -0.2805  0.2608 -0.3142
  179DOPC   H4X21960   6.246   5.334  13.750 -0.4501  0.8326 -0.4973
  179DOPC   H4Y21961   6.361   5.457  13.708 -0.7112  0.3022  0.0959
  179DOPC   C3521962   6.468   5.287  13.790 -0.0568  0.4195 -0.0852
  179DOPC   H5X21963   6.567   5.310  13.746  1.0574 -0.8783  1.6245
  179DOPC   H5Y21964   6.464   5.176  13.793  0.6097  0.3999  0.3953
  179DOPC   C3621965   6.473   5.333  13.939  0.1481  0.6570 -0.5064
  179DOPC   H6X21966   6.414   5.259  13.996  1.2291 -1.5752 -2.1177
  179DOPC   H6Y21967   6.580   5.323  13.967  0.0092 -0.2814 -0.2875
  179DOPC   C3721968   6.443   5.481  13.969 -0.3060 -0.1170  0.2068
  179DOPC   H7X21969   6.496   5.549  13.899  1.0320  0.3192  1.5770
  179DOPC   H7Y21970   6.334   5.502  13.960 -0.7266 -0.9065  2.5653
  179DOPC   C3821971   6.487   5.530  14.112  0.1062  0.6688  0.5525
  179DOPC   H8X21972   6.585   5.479  14.128 -0.2049 -0.4016 -0.8004
  179DOPC   H8Y21973   6.421   5.484  14.188  0.1335 -0.8395 -0.3004
  179DOPC   C3921974   6.495   5.677  14.140  0.2655 -0.6542 -1.0577
  179DOPC   H9X21975   6.576   5.727  14.084 -1.3316 -0.6500 -3.5183
  179DOPC  C31021976   6.400   5.753  14.203  0.0182  0.4404 -0.4893
  179DOPC  H10X21977   6.418   5.861  14.216  2.4277  0.2154 -1.3564
  179DOPC  C31121978   6.281   5.698  14.281  0.4824  0.3565  0.1801
  179DOPC  H11X21979   6.241   5.604  14.238 -1.1000  0.9549  0.2736
  179DOPC  H11Y21980   6.200   5.774  14.282  1.5903  1.6499  2.9358
  179DOPC  C31221981   6.303   5.681  14.423 -0.0853  0.0038 -0.6024
  179DOPC  H12X21982   6.398   5.627  14.444 -0.1136 -0.0067 -0.5001
  179DOPC  H12Y21983   6.212   5.623  14.452 -0.2862  0.1236 -0.9872
  179DOPC  C31321984   6.309   5.809  14.501  0.1717 -0.0851  0.4649
  179DOPC  H13X21985   6.387   5.880  14.466  0.4718 -1.0112 -0.8038
  179DOPC  H13Y21986   6.217   5.868  14.481  2.4191  3.2831 -0.7004
  179DOPC  C31421987   6.301   5.793  14.654  0.0340 -0.0048  0.3523
  179DOPC  H14X21988   6.207   5.736  14.670 -0.8792  0.6317 -2.2708
  179DOPC  H14Y21989   6.384   5.727  14.685  0.3125  0.0262 -0.3073
  179DOPC  C31521990   6.287   5.923  14.726 -0.7583  0.1548  0.4243
  179DOPC  H15X21991   6.207   5.978  14.672 -0.7840 -0.9169 -0.6678
  179DOPC  H15Y21992   6.382   5.981  14.716 -0.7315 -0.2277 -2.3439
  179DOPC  C31621993   6.241   5.919  14.875 -0.4508  0.1833 -0.0682
  179DOPC  H16X21994   6.147   5.859  14.880 -0.0633 -0.3754  0.7565
  179DOPC  H16Y21995   6.320   5.873  14.937  1.3093  2.6827 -0.3039
  179DOPC  C31721996   6.218   6.056  14.932 -0.0341 -0.7892 -0.3468
  179DOPC  H17X21997   6.313   6.113  14.921 -2.1319  2.7349 -1.4602
  179DOPC  H17Y21998   6.144   6.116  14.875  0.6861  1.3325  0.8363
  179DOPC  C31821999   6.163   6.048  15.078  0.1350  0.3965  0.4289
  179DOPC  H18X22000   6.147   6.153  15.109  1.2225  1.3293 -1.9010
  179DOPC  H18Y22001   6.069   5.989  15.086  1.3352 -1.8229 -0.8242
  179DOPC  H18Z22002   6.237   6.000  15.145  2.2433 -0.0287 -2.0292
  180DOPC     N22003   5.094   2.486  13.339 -0.1513  0.1204 -1.1529
  180DOPC   C1222004   5.111   2.577  13.461  0.3252  0.4288  0.4264
  180DOPC  H12A22005   5.123   2.524  13.554  0.9230 -1.1363 -0.5099
  180DOPC  H12B22006   5.021   2.635  13.478 -1.0268 -1.2273 -0.7643
  180DOPC   C1322007   5.104   2.566  13.220 -0.1475 -0.6382 -0.0620
  180DOPC  H13A22008   5.190   2.632  13.220  0.0740 -0.8857  1.6563
  180DOPC  H13B22009   5.107   2.496  13.138  0.5361 -0.8861  0.1677
  180DOPC  H13C22010   5.019   2.631  13.210  0.0809 -0.2041  0.7343
  180DOPC   C1422011   4.958   2.421  13.344  0.1912 -0.1223 -0.4436
  180DOPC  H14A22012   4.886   2.499  13.363  1.2639  0.5389  1.0865
  180DOPC  H14B22013   4.950   2.362  13.253 -0.5490 -0.4044 -0.2024
  180DOPC  H14C22014   4.952   2.348  13.423  0.5007 -0.4934 -0.7545
  180DOPC   C1522015   5.195   2.377  13.339  0.4719 -0.4588  0.2231
  180DOPC  H15A22016   5.194   2.313  13.425 -2.7335 -0.6185  0.2110
  180DOPC  H15B22017   5.291   2.426  13.342  0.5900 -0.4907 -1.6832
  180DOPC  H15C22018   5.188   2.326  13.243 -0.0104  0.6160 -0.3359
  180DOPC   C1122019   5.228   2.685  13.482 -0.2095 -0.1686  0.1808
  180DOPC  H11A22020   5.223   2.759  13.400 -0.8865  0.2350  0.5807
  180DOPC  H11B22021   5.194   2.741  13.572 -0.6509  2.1315 -1.3594
  180DOPC     P22022   5.420   2.583  13.622  0.5927  0.3095 -0.0184
  180DOPC   O1322023   5.434   2.698  13.721 -0.0831 -0.5656 -0.2398
  180DOPC   O1422024   5.549   2.517  13.580  0.7051 -0.3041 -0.3948
  180DOPC   O1222025   5.359   2.639  13.491 -0.0426  0.3588 -0.2124
  180DOPC   O1122026   5.310   2.480  13.672 -0.4630 -0.6445  0.0182
  180DOPC    C122027   5.310   2.414  13.794  0.9772  0.1602  0.3322
  180DOPC    HA22028   5.388   2.440  13.869  0.3471 -0.6024  1.2888
  180DOPC    HB22029   5.327   2.306  13.775 -0.2725 -0.2592  1.4388
  180DOPC    C222030   5.170   2.439  13.866  0.6567 -0.4133  0.5599
  180DOPC    HS22031   5.092   2.448  13.788  0.1177  1.2680  1.2620
  180DOPC   O2122032   5.179   2.557  13.943  0.0968 -0.0158  0.3353
  180DOPC   C2122033   5.128   2.671  13.885 -0.1286 -0.0410 -0.4524
  180DOPC   O2222034   5.071   2.674  13.779  0.3287 -0.0261 -0.4918
  180DOPC   C2222035   5.156   2.783  13.991  0.4649  0.5983  0.9667
  180DOPC   H2R22036   5.266   2.772  14.001  0.7120  0.3726 -1.5275
  180DOPC   H2S22037   5.119   2.747  14.090  1.9245 -2.7998  0.4032
  180DOPC    C322038   5.129   2.318  13.955  0.4458  0.3617  0.3072
  180DOPC    HX22039   5.031   2.342  14.002 -0.1504 -0.9048 -0.2289
  180DOPC    HY22040   5.205   2.294  14.032  2.7217  1.3843 -1.4815
  180DOPC   O3122041   5.106   2.208  13.858 -0.6111  0.0774  0.5537
  180DOPC   C3122042   5.064   2.106  13.922 -0.7148  0.5824  0.0646
  180DOPC   O3222043   5.059   2.097  14.042 -0.0842 -0.1148  0.0422
  180DOPC   C3222044   5.009   1.995  13.828  0.2331 -1.3868 -0.3464
  180DOPC   H2X22045   4.926   2.036  13.767  0.1759  0.3223  0.8038
  180DOPC   H2Y22046   5.094   1.967  13.761  1.0350  0.8865 -0.3808
  180DOPC   C2322047   5.112   2.920  13.934 -0.8759 -0.1914 -0.2437
  180DOPC   H3R22048   5.013   2.918  13.883 -0.9768  1.5879 -0.1904
  180DOPC   H3S22049   5.181   2.965  13.860 -0.0023  0.7550  1.0971
  180DOPC   C2422050   5.104   3.018  14.047 -0.4657  0.1978 -0.1063
  180DOPC   H4R22051   5.112   3.115  13.994  0.8619 -0.4323 -1.1529
  180DOPC   H4S22052   5.194   2.991  14.108  0.1159 -0.9748 -1.4347
  180DOPC   C2522053   4.980   3.004  14.138 -0.0818 -0.0076  0.0011
  180DOPC   H5R22054   4.976   2.897  14.170  1.1215 -0.8529 -2.4066
  180DOPC   H5S22055   4.898   3.018  14.065 -0.3414  3.7658  0.8350
  180DOPC   C2622056   4.975   3.102  14.252  0.4560  0.0335 -0.3517
  180DOPC   H6R22057   4.873   3.111  14.294 -0.3829 -0.9994 -2.0528
  180DOPC   H6S22058   5.005   3.204  14.220  4.4478 -0.5761  0.8674
  180DOPC   C2722059   5.073   3.055  14.367  0.7383 -0.0169  0.4186
  180DOPC   H7R22060   5.175   3.065  14.324 -0.4126  1.4545 -2.2572
  180DOPC   H7S22061   5.056   2.946  14.382  0.4089  0.0784  0.7621
  180DOPC   C2822062   5.066   3.144  14.494  0.4213  0.0722  0.3175
  180DOPC   H8R22063   5.127   3.103  14.577 -0.8427 -0.7803  0.8557
  180DOPC   H8S22064   4.970   3.152  14.549  0.7580 -0.5740  1.0172
  180DOPC   C2922065   5.121   3.276  14.461 -0.4153 -0.1419 -0.9999
  180DOPC   H9R22066   5.224   3.284  14.424 -0.4821  3.3538 -0.7755
  180DOPC  C21022067   5.052   3.387  14.482 -0.0387  0.0740  0.0902
  180DOPC  H10R22068   5.106   3.478  14.454  1.0210 -0.1405  1.3263
  180DOPC  C21122069   4.913   3.412  14.534 -0.2536 -0.3854 -0.3345
  180DOPC  H11R22070   4.837   3.345  14.489 -0.6813 -0.3055  0.2643
  180DOPC  H11S22071   4.881   3.516  14.513  2.9068  0.6319 -0.6507
  180DOPC  C21222072   4.895   3.392  14.687  0.0162 -0.9193  0.3311
  180DOPC  H12R22073   4.976   3.442  14.744  0.2408 -0.5145 -0.3303
  180DOPC  H12S22074   4.901   3.282  14.699  0.2639 -1.1178 -1.3080
  180DOPC  C21322075   4.762   3.454  14.733 -1.1619 -0.0490 -0.5746
  180DOPC  H13R22076   4.762   3.558  14.693 -3.4717  0.6241  0.9817
  180DOPC  H13S22077   4.754   3.456  14.843 -1.6970 -0.7637 -0.5905
  180DOPC  C21422078   4.641   3.374  14.687  0.0847  0.8551 -1.1172
  180DOPC  H14R22079   4.640   3.280  14.745  0.6467  1.6186  0.1654
  180DOPC  H14S22080   4.650   3.354  14.578  1.6252 -3.1873 -0.4154
  180DOPC  C21522081   4.512   3.456  14.727  0.6010  0.4880  0.2895
  180DOPC  H15R22082   4.511   3.556  14.679  0.1684 -0.8762 -2.7531
  180DOPC  H15S22083   4.507   3.468  14.838 -0.3638  2.6945  0.0406
  180DOPC  C21622084   4.388   3.392  14.673 -0.2539 -0.0262  0.4082
  180DOPC  H16R22085   4.400   3.403  14.563 -1.6986 -0.4009  0.1960
  180DOPC  H16S22086   4.306   3.461  14.701 -0.4100 -0.3207  0.6883
  180DOPC  C21722087   4.371   3.241  14.704 -0.6978 -0.5350 -0.4121
  180DOPC  H17R22088   4.469   3.195  14.678 -0.6928 -2.1806  2.0699
  180DOPC  H17S22089   4.295   3.197  14.636  0.0777  0.0448 -1.6735
  180DOPC  C21822090   4.329   3.202  14.846 -0.0663 -0.5278 -0.2628
  180DOPC  H18R22091   4.395   3.237  14.928  0.4654 -1.5415 -0.2352
  180DOPC  H18S22092   4.319   3.092  14.861 -2.5611 -0.4410 -0.8893
  180DOPC  H18T22093   4.229   3.249  14.857 -0.4349 -0.6506 -2.6175
  180DOPC   C3322094   4.959   1.872  13.904 -0.2687 -0.8209  0.1238
  180DOPC   H3X22095   4.889   1.890  13.988  1.4811 -0.5376  1.5994
  180DOPC   H3Y22096   5.047   1.831  13.958 -0.2908  0.0582  0.8519
  180DOPC   C3422097   4.910   1.770  13.808 -0.0419 -0.3606 -0.0149
  180DOPC   H4X22098   5.002   1.732  13.760  0.5179 -2.0326  2.1858
  180DOPC   H4Y22099   4.835   1.806  13.734 -0.5835 -0.3155  0.5426
  180DOPC   C3522100   4.838   1.646  13.874 -0.3341  0.5358  0.1128
  180DOPC   H5X22101   4.903   1.591  13.945 -0.0866 -1.5780 -1.6221
  180DOPC   H5Y22102   4.817   1.580  13.787  1.7962  2.2949 -1.8712
  180DOPC   C3622103   4.706   1.690  13.940  0.0250  0.9698  0.0986
  180DOPC   H6X22104   4.733   1.763  14.020  2.7576  0.6014 -0.3932
  180DOPC   H6Y22105   4.646   1.743  13.863 -0.5218  0.0568 -0.1066
  180DOPC   C3722106   4.624   1.569  13.995  0.4757 -0.1727 -0.4177
  180DOPC   H7X22107   4.520   1.602  14.015 -0.1411 -0.9499 -2.1155
  180DOPC   H7Y22108   4.618   1.502  13.906 -0.0681 -1.1750  0.3570
  180DOPC   C3822109   4.677   1.505  14.125  0.2806  0.1180  0.2441
  180DOPC   H8X22110   4.690   1.598  14.184  1.0321  1.4718 -1.9254
  180DOPC   H8Y22111   4.778   1.464  14.104 -0.0605  0.4916 -2.5367
  180DOPC   C3922112   4.587   1.407  14.192  0.9318  0.2291 -0.5930
  180DOPC   H9X22113   4.521   1.357  14.119  1.7043  0.2495 -1.3272
  180DOPC  C31022114   4.574   1.384  14.321  0.2405  0.7603  0.7903
  180DOPC  H10X22115   4.506   1.303  14.351 -3.3930  2.7142 -1.3975
  180DOPC  C31122116   4.658   1.447  14.429 -0.2870 -0.2441 -0.4044
  180DOPC  H11X22117   4.757   1.487  14.400  0.0273  1.3969  2.4886
  180DOPC  H11Y22118   4.684   1.360  14.493  0.0527  0.6841  0.7585
  180DOPC  C31222119   4.587   1.553  14.519 -0.1773  0.3469  0.4256
  180DOPC  H12X22120   4.582   1.642  14.452 -0.9719  0.5507  0.7446
  180DOPC  H12Y22121   4.658   1.581  14.599  0.6090  1.2920 -0.5632
  180DOPC  C31322122   4.458   1.491  14.570 -0.2652 -0.1350  0.2645
  180DOPC  H13X22123   4.399   1.450  14.485 -0.5703 -0.8978  0.8273
  180DOPC  H13Y22124   4.482   1.408  14.640 -0.3757 -1.0064 -0.7041
  180DOPC  C31422125   4.372   1.591  14.654  0.0220 -0.0159  0.3871
  180DOPC  H14X22126   4.423   1.599  14.752  0.7876  1.9935 -0.1218
  180DOPC  H14Y22127   4.381   1.687  14.598  0.9521 -1.2595 -1.7010
  180DOPC  C31522128   4.216   1.556  14.653  0.1841  0.3949  0.0481
  180DOPC  H15X22129   4.211   1.447  14.672 -3.5224  0.6059  1.1450
  180DOPC  H15Y22130   4.165   1.570  14.555 -2.3518 -3.7886  0.5060
  180DOPC  C31622131   4.147   1.633  14.768  0.5915  0.2165  0.3200
  180DOPC  H16X22132   4.047   1.585  14.778  1.0612 -0.5456  1.6012
  180DOPC  H16Y22133   4.199   1.605  14.862 -0.6360 -0.1647  0.9097
  180DOPC  C31722134   4.138   1.778  14.750  0.2801 -0.5895 -0.4467
  180DOPC  H17X22135   4.235   1.818  14.785 -0.8457  0.8858  1.1955
  180DOPC  H17Y22136   4.117   1.801  14.644 -0.5523  1.0987  0.0462
  180DOPC  C31822137   4.032   1.843  14.841  1.0260  0.1811  0.6742
  180DOPC  H18X22138   4.071   1.855  14.945  2.3932  0.3475  0.1618
  180DOPC  H18Y22139   3.994   1.944  14.813 -0.5020 -0.1840  1.3587
  180DOPC  H18Z22140   3.940   1.782  14.845  0.3209  1.1966  0.4367
  181DOPC     N22141   0.518   4.607  13.065  0.1867  0.1059 -0.1943
  181DOPC   C1222142   0.578   4.534  13.185  0.2253  0.3951  0.0122
  181DOPC  H12A22143   0.651   4.599  13.231  0.3660 -1.2646  2.3669
  181DOPC  H12B22144   0.650   4.460  13.156 -1.1713 -1.0354  0.0416
  181DOPC   C1322145   0.622   4.685  12.997  0.0292  0.2197 -0.6747
  181DOPC  H13A22146   0.607   4.785  13.034 -2.6915 -0.0140 -0.9677
  181DOPC  H13B22147   0.722   4.645  13.011  0.3115  1.1384 -0.0348
  181DOPC  H13C22148   0.604   4.700  12.891 -0.7957  0.3949 -0.5157
  181DOPC   C1422149   0.410   4.699  13.107 -0.3229 -0.1274 -0.0392
  181DOPC  H14A22150   0.337   4.646  13.167 -0.4112  1.3900  1.2638
  181DOPC  H14B22151   0.455   4.776  13.169  0.9296 -0.8145 -0.0705
  181DOPC  H14C22152   0.358   4.745  13.024  0.1823 -0.7969 -0.7318
  181DOPC   C1522153   0.447   4.515  12.966  0.2016  0.0684  0.0474
  181DOPC  H15A22154   0.516   4.452  12.912  1.2970  1.0046  0.2995
  181DOPC  H15B22155   0.393   4.576  12.895 -0.3646 -0.6006 -0.1043
  181DOPC  H15C22156   0.376   4.455  13.020 -0.9261  0.3605 -1.0540
  181DOPC   C1122157   0.477   4.475  13.282 -0.8242  1.0279 -0.2640
  181DOPC  H11A22158   0.524   4.451  13.380 -0.9052 -4.0399 -1.2115
  181DOPC  H11B22159   0.400   4.553  13.300  0.6619  3.0734 -2.0919
  181DOPC     P22160   0.478   4.212  13.246 -0.7329 -0.2778  0.3162
  181DOPC   O1322161   0.604   4.224  13.162  0.0611 -0.2621  0.0918
  181DOPC   O1422162   0.373   4.113  13.194 -0.0303  0.4620 -0.0792
  181DOPC   O1222163   0.413   4.352  13.242  0.0888  0.1110  0.9413
  181DOPC   O1122164   0.524   4.196  13.392 -0.0740  0.1790  0.3815
  181DOPC    C122165   0.444   4.126  13.486  0.0270  0.1807 -0.1859
  181DOPC    HA22166   0.508   4.069  13.557 -1.8220 -0.2910  1.1823
  181DOPC    HB22167   0.372   4.048  13.453 -0.9582  1.0733 -0.2188
  181DOPC    C222168   0.357   4.226  13.567 -0.1118  0.2684 -0.4392
  181DOPC    HS22169   0.317   4.297  13.491  2.0728  1.8944 -0.1537
  181DOPC   O2122170   0.433   4.288  13.675 -0.2386  0.0931 -0.5846
  181DOPC   C2122171   0.428   4.419  13.684 -0.8008  0.0257  0.1094
  181DOPC   O2222172   0.370   4.491  13.606  0.5476  0.0930  0.1253
  181DOPC   C2222173   0.517   4.467  13.795  0.1662 -0.4879 -0.2424
  181DOPC   H2R22174   0.499   4.576  13.804 -3.0086 -1.0857  2.6826
  181DOPC   H2S22175   0.626   4.449  13.784  0.8045  2.3203  0.6306
  181DOPC    C322176   0.236   4.146  13.639  0.0167  0.1683  0.7693
  181DOPC    HX22177   0.283   4.071  13.706 -0.4189 -0.5443  0.2922
  181DOPC    HY22178   0.168   4.096  13.567  1.1049 -2.2045  1.3055
  181DOPC   O3122179   0.159   4.224  13.731  0.1292  0.7439 -0.2731
  181DOPC   C3122180   0.058   4.294  13.678  0.2792  0.5020  0.0852
  181DOPC   O3222181   0.032   4.300  13.561  0.3612 -0.4324 -0.9106
  181DOPC   C3222182  -0.027   4.354  13.789 -0.5669  0.4319 -0.1907
  181DOPC   H2X22183  -0.017   4.465  13.783  2.5087  0.2629 -0.0393
  181DOPC   H2Y22184  -0.132   4.327  13.765  0.4943 -2.9546 -1.7018
  181DOPC   C2322185   0.472   4.396  13.922  0.2995 -0.0527  0.3208
  181DOPC   H3R22186   0.487   4.287  13.909  0.8545  0.1051 -0.4089
  181DOPC   H3S22187   0.364   4.417  13.940 -0.1229 -1.5359 -0.3473
  181DOPC   C2422188   0.553   4.432  14.047  0.0599 -0.6358  0.1362
  181DOPC   H4R22189   0.518   4.533  14.078  1.5692  0.4946 -1.5881
  181DOPC   H4S22190   0.659   4.439  14.017  0.0681 -3.3613 -0.7474
  181DOPC   C2522191   0.537   4.331  14.159  0.5771  0.2930  0.4537
  181DOPC   H5R22192   0.619   4.341  14.233  2.1948 -3.8774 -0.4785
  181DOPC   H5S22193   0.557   4.231  14.114 -2.7308 -0.9634  1.4251
  181DOPC   C2622194   0.403   4.327  14.238 -0.0070  0.0651  0.5059
  181DOPC   H6R22195   0.317   4.324  14.167 -1.2553  0.8524  1.9532
  181DOPC   H6S22196   0.372   4.417  14.294  0.2550 -0.1912  1.0650
  181DOPC   C2722197   0.401   4.216  14.346 -0.2023 -0.1209 -0.7888
  181DOPC   H7R22198   0.483   4.248  14.414  0.7695 -1.5358 -1.2372
  181DOPC   H7S22199   0.442   4.121  14.306 -1.0545 -1.6573  1.6985
  181DOPC   C2822200   0.264   4.187  14.410 -0.1697  0.3663  0.3581
  181DOPC   H8R22201   0.181   4.157  14.342 -0.9037  0.4608  1.1798
  181DOPC   H8S22202   0.221   4.278  14.457 -0.7534  1.5308 -2.2595
  181DOPC   C2922203   0.280   4.064  14.502  0.1226  0.7433  0.1466
  181DOPC   H9R22204   0.375   4.009  14.494  0.0942  0.9220 -2.0906
  181DOPC  C21022205   0.185   4.025  14.584 -0.0006  0.0459 -0.5722
  181DOPC  H10R22206   0.205   3.941  14.653 -0.8606  0.7690  0.6105
  181DOPC  C21122207   0.048   4.096  14.590 -0.0425  0.0304  0.3828
  181DOPC  H11R22208  -0.012   4.010  14.627  0.4410 -0.4443  0.0742
  181DOPC  H11S22209   0.007   4.123  14.490 -0.6429 -1.7340  0.1305
  181DOPC  C21222210   0.033   4.223  14.677  0.4089  0.1445 -0.3099
  181DOPC  H12R22211   0.100   4.306  14.646  0.6156 -0.8120 -2.6308
  181DOPC  H12S22212   0.056   4.198  14.783 -1.8479 -2.8818 -0.4127
  181DOPC  C21322213  -0.106   4.288  14.692 -0.3037  0.1782 -0.7670
  181DOPC  H13R22214  -0.089   4.394  14.717  3.9441 -0.4027 -0.4028
  181DOPC  H13S22215  -0.172   4.238  14.766 -1.7817  0.5759 -1.7706
  181DOPC  C21422216  -0.191   4.294  14.565 -0.7374 -0.3253  0.0159
  181DOPC  H14R22217  -0.212   4.191  14.527 -2.1333 -0.8936  2.1974
  181DOPC  H14S22218  -0.134   4.354  14.490  0.2262  1.6456  2.2234
  181DOPC  C21522219  -0.324   4.359  14.573  0.6006  0.4107  0.3415
  181DOPC  H15R22220  -0.332   4.461  14.616  0.0521  0.2526  0.6299
  181DOPC  H15S22221  -0.388   4.299  14.641  0.0025 -0.3846 -0.8921
  181DOPC  C21622222  -0.401   4.364  14.439 -1.3130  0.3681  0.5536
  181DOPC  H16R22223  -0.429   4.265  14.397  1.1799 -0.3996  0.5164
  181DOPC  H16S22224  -0.329   4.404  14.364 -2.2076  0.4345 -0.2843
  181DOPC  C21722225  -0.531   4.437  14.447  0.1905 -0.1686  0.3745
  181DOPC  H17R22226  -0.565   4.444  14.341  0.4200 -0.3554  0.2875
  181DOPC  H17S22227  -0.506   4.540  14.479  0.6114  0.7326 -2.5025
  181DOPC  C21822228  -0.647   4.373  14.533 -0.1642 -0.0062  0.2829
  181DOPC  H18R22229  -0.669   4.267  14.511 -2.8540  0.6807 -0.7291
  181DOPC  H18S22230  -0.741   4.433  14.534 -1.1018 -1.3873 -1.0156
  181DOPC  H18T22231  -0.607   4.377  14.637  2.0605  2.6507 -0.5323
  181DOPC   C3322232   0.014   4.299  13.936 -0.2791 -0.4104 -0.6793
  181DOPC   H3X22233   0.123   4.305  13.953 -0.4968 -0.4400  0.8870
  181DOPC   H3Y22234   0.001   4.189  13.938 -0.7546 -0.5672  5.1452
  181DOPC   C3422235  -0.063   4.354  14.060  0.2021  0.4062  0.7851
  181DOPC   H4X22236  -0.030   4.298  14.149 -0.5559 -1.5345 -0.1103
  181DOPC   H4Y22237  -0.170   4.338  14.036  0.6425  0.9213 -1.9024
  181DOPC   C3522238  -0.038   4.499  14.092 -0.4930  0.4259 -0.6371
  181DOPC   H5X22239  -0.075   4.564  14.009 -0.5900  1.0350 -0.1245
  181DOPC   H5Y22240   0.068   4.522  14.114  0.1652 -3.1407  0.6064
  181DOPC   C3622241  -0.117   4.546  14.211  0.0852  0.4746 -0.1746
  181DOPC   H6X22242  -0.223   4.520  14.190  0.1756  1.6351 -2.2833
  181DOPC   H6Y22243  -0.079   4.482  14.294  1.1039 -0.4915 -1.3519
  181DOPC   C3722244  -0.106   4.692  14.253  0.0664  0.4559 -0.1588
  181DOPC   H7X22245   0.003   4.714  14.257  0.2797 -0.5662 -0.2034
  181DOPC   H7Y22246  -0.152   4.748  14.169 -0.2364 -1.5421 -1.3853
  181DOPC   C3822247  -0.181   4.724  14.385  0.7522  0.0788 -0.7386
  181DOPC   H8X22248  -0.157   4.652  14.467  1.8435 -0.0139 -1.1324
  181DOPC   H8Y22249  -0.289   4.704  14.367  0.2542  1.9202  0.0107
  181DOPC   C3922250  -0.167   4.860  14.433  0.4178 -0.4221  0.3278
  181DOPC   H9X22251  -0.154   4.934  14.353 -0.6233 -0.4937  0.0752
  181DOPC  C31022252  -0.169   4.893  14.562 -0.2353 -0.4377  0.1449
  181DOPC  H10X22253  -0.165   5.001  14.583 -2.6792 -0.0701 -0.9619
  181DOPC  C31122254  -0.181   4.807  14.684 -0.4517  0.3324 -0.5591
  181DOPC  H11X22255  -0.146   4.863  14.774  0.4108  0.0825 -0.7297
  181DOPC  H11Y22256  -0.112   4.721  14.672  1.1038  1.7221 -2.3014
  181DOPC  C31222257  -0.326   4.757  14.702  0.2975 -0.0246  0.1896
  181DOPC  H12X22258  -0.353   4.686  14.621  0.3042  0.2868 -0.0879
  181DOPC  H12Y22259  -0.400   4.840  14.699 -1.9354 -1.9465 -0.3147
  181DOPC  C31322260  -0.348   4.686  14.829 -0.1482  0.1362 -0.2453
  181DOPC  H13X22261  -0.276   4.602  14.825  0.7083  0.9003 -3.1543
  181DOPC  H13Y22262  -0.312   4.744  14.918 -0.2887 -1.2689  0.7556
  181DOPC  C31422263  -0.493   4.625  14.825 -0.1079 -0.2040 -0.2971
  181DOPC  H14X22264  -0.564   4.709  14.839  2.1330  1.4173  2.4818
  181DOPC  H14Y22265  -0.501   4.582  14.723 -1.2380 -1.7883  0.4173
  181DOPC  C31522266  -0.511   4.505  14.915  0.6243  0.3116 -0.2396
  181DOPC  H15X22267  -0.427   4.432  14.911  1.0745  0.7751  0.5346
  181DOPC  H15Y22268  -0.597   4.445  14.878  1.0177 -0.3646 -0.0732
  181DOPC  C31622269  -0.555   4.536  15.060  0.0256  0.2851 -0.1930
  181DOPC  H16X22270  -0.642   4.605  15.071 -1.0871 -0.8558 -1.4019
  181DOPC  H16Y22271  -0.578   4.437  15.105 -1.4804  0.5934 -0.2309
  181DOPC  C31722272  -0.440   4.587  15.144 -0.3605  0.6138 -0.2076
  181DOPC  H17X22273  -0.354   4.519  15.129  1.1505  1.3373  3.7805
  181DOPC  H17Y22274  -0.418   4.685  15.096 -0.4465  0.9418  0.4130
  181DOPC  C31822275  -0.447   4.592  15.294  0.3449 -0.1148 -0.5334
  181DOPC  H18X22276  -0.380   4.668  15.339 -0.0284 -0.2092  0.1961
  181DOPC  H18Y22277  -0.552   4.609  15.327  0.3726  1.2920 -1.0804
  181DOPC  H18Z22278  -0.423   4.488  15.327  1.4301 -0.2360 -1.6325
  182DOPC     N22279   2.004   0.246  12.406  0.6318 -0.3697  0.2207
  182DOPC   C1222280   2.070   0.201  12.537 -0.7823  0.0217  0.1367
  182DOPC  H12A22281   2.177   0.193  12.523 -0.6351  0.7937  0.7716
  182DOPC  H12B22282   2.035   0.101  12.557  1.9824 -0.8805  0.9160
  182DOPC   C1322283   2.029   0.387  12.372 -0.2506  0.3495 -0.1138
  182DOPC  H13A22284   1.961   0.420  12.295 -0.7374 -1.5230 -0.5154
  182DOPC  H13B22285   2.023   0.451  12.459  0.0190 -0.4144  0.4732
  182DOPC  H13C22286   2.133   0.398  12.343  0.1514  1.3363  1.5269
  182DOPC   C1422287   1.855   0.226  12.426  0.2073  0.3115 -0.8294
  182DOPC  H14A22288   1.827   0.154  12.502  2.8109 -1.1996 -1.1986
  182DOPC  H14B22289   1.806   0.319  12.451 -0.3693  0.1938 -1.4844
  182DOPC  H14C22290   1.805   0.193  12.336 -1.9850 -3.9473  1.5777
  182DOPC   C1522291   2.038   0.168  12.285  0.2561 -0.4029  0.7820
  182DOPC  H15A22292   2.142   0.162  12.257  0.2661  0.7410  0.5240
  182DOPC  H15B22293   1.989   0.202  12.195  0.8366  0.4664  0.7836
  182DOPC  H15C22294   2.012   0.065  12.303  0.0158 -0.8335 -1.7048
  182DOPC   C1122295   2.035   0.281  12.668 -0.6183  0.3162  0.4505
  182DOPC  H11A22296   1.926   0.292  12.682 -0.6353 -0.9486  1.5283
  182DOPC  H11B22297   2.078   0.228  12.756  1.6715  0.8916 -0.2513
  182DOPC     P22298   2.228   0.451  12.713 -0.1212 -0.1518  0.0527
  182DOPC   O1322299   2.270   0.588  12.669 -0.1143 -0.1451  0.2262
  182DOPC   O1422300   2.320   0.335  12.692  0.0043 -0.1455  0.7308
  182DOPC   O1222301   2.087   0.413  12.651 -0.1133  0.2339  0.0760
  182DOPC   O1122302   2.183   0.446  12.866  0.6970 -0.5290  0.0235
  182DOPC    C122303   2.074   0.526  12.923 -0.6281 -0.3948 -0.0580
  182DOPC    HA22304   1.974   0.489  12.892 -0.9328  0.4454 -0.1048
  182DOPC    HB22305   2.098   0.625  12.878  0.3941 -0.8636 -0.5927
  182DOPC    C222306   2.083   0.533  13.077  0.1108  0.2884 -0.3387
  182DOPC    HS22307   2.010   0.610  13.112 -0.8594 -0.5938 -0.3501
  182DOPC   O2122308   2.220   0.542  13.125 -0.4336  0.3280  0.0926
  182DOPC   C2122309   2.279   0.654  13.091 -0.4499  0.0322  0.4571
  182DOPC   O2222310   2.227   0.753  13.043 -0.1617 -0.2539  0.1842
  182DOPC   C2222311   2.423   0.621  13.088 -0.1618 -0.6328  0.4891
  182DOPC   H2R22312   2.484   0.705  13.047  1.2119 -1.4158  0.8505
  182DOPC   H2S22313   2.438   0.525  13.032 -2.6228 -1.4000  1.0126
  182DOPC    C322314   2.042   0.394  13.145  0.7566 -0.0944  0.0905
  182DOPC    HX22315   2.101   0.313  13.097 -0.0757 -0.3087 -0.5811
  182DOPC    HY22316   1.940   0.364  13.112  1.2309 -1.3932 -0.2680
  182DOPC   O3122317   2.050   0.400  13.291  0.0086 -0.1096  0.2529
  182DOPC   C3122318   2.127   0.313  13.355  0.6517  0.8084  0.0748
  182DOPC   O3222319   2.188   0.220  13.301  0.0516  0.5723  0.2146
  182DOPC   C3222320   2.131   0.342  13.510  0.3340 -0.3120 -0.1048
  182DOPC   H2X22321   2.104   0.449  13.524  1.4949 -0.0560  0.2546
  182DOPC   H2Y22322   2.064   0.261  13.547 -0.7018 -0.1831 -1.6162
  182DOPC   C2322323   2.470   0.592  13.231 -0.3390 -0.0177 -0.5156
  182DOPC   H3R22324   2.579   0.574  13.224 -0.4985 -0.6786 -1.4458
  182DOPC   H3S22325   2.432   0.496  13.271 -0.6912  0.4745  0.3602
  182DOPC   C2422326   2.447   0.706  13.333 -0.2938 -0.5375 -0.5890
  182DOPC   H4R22327   2.344   0.748  13.338  0.6502  1.7191  1.6253
  182DOPC   H4S22328   2.513   0.787  13.297  0.3338 -0.8598 -0.1713
  182DOPC   C2522329   2.483   0.659  13.482 -0.6609  0.0146  0.6924
  182DOPC   H5R22330   2.592   0.644  13.499 -0.4222  0.1505 -0.5904
  182DOPC   H5S22331   2.442   0.560  13.512 -0.8366 -0.3519 -0.6571
  182DOPC   C2622332   2.419   0.755  13.584  0.3070  0.0511 -0.1240
  182DOPC   H6R22333   2.311   0.769  13.564  0.2858 -0.5614 -0.4909
  182DOPC   H6S22334   2.473   0.851  13.568  3.0090 -1.0574  1.5537
  182DOPC   C2722335   2.439   0.719  13.731  0.2348  0.4451  0.0918
  182DOPC   H7R22336   2.543   0.689  13.754  0.4171  1.6199  0.8927
  182DOPC   H7S22337   2.373   0.633  13.758 -0.7551  1.5281  1.2975
  182DOPC   C2822338   2.403   0.834  13.829 -0.8077  0.1512 -0.1732
  182DOPC   H8R22339   2.451   0.926  13.789 -1.2140 -0.0653 -1.2119
  182DOPC   H8S22340   2.435   0.810  13.932  1.6148  0.9737 -0.6655
  182DOPC   C2922341   2.257   0.849  13.814  0.4582  0.5005  0.0954
  182DOPC   H9R22342   2.223   0.885  13.716 -0.1141 -1.7969 -0.6143
  182DOPC  C21022343   2.167   0.803  13.900 -0.6188  0.2338 -0.0711
  182DOPC  H10R22344   2.058   0.820  13.890 -0.5026  0.4399 -1.1041
  182DOPC  C21122345   2.206   0.733  14.031  0.1612 -0.4387  0.5506
  182DOPC  H11R22346   2.300   0.764  14.082  0.8202 -3.7278  1.6096
  182DOPC  H11S22347   2.220   0.624  14.017  1.0093 -0.0742 -2.0276
  182DOPC  C21222348   2.094   0.754  14.142  0.1008  0.1682  0.0508
  182DOPC  H12R22349   1.996   0.728  14.097  0.3690 -0.0307 -0.4252
  182DOPC  H12S22350   2.094   0.861  14.174  1.3179 -0.1936  1.3241
  182DOPC  C21322351   2.129   0.674  14.265 -0.6075  0.6014 -0.0605
  182DOPC  H13R22352   2.221   0.721  14.306  0.3270 -0.5047 -0.8381
  182DOPC  H13S22353   2.152   0.573  14.224 -2.4335  0.5223 -0.9625
  182DOPC  C21422354   2.016   0.656  14.371  0.0300 -0.1690  0.7555
  182DOPC  H14R22355   1.921   0.622  14.324 -0.2042  1.2127  0.2015
  182DOPC  H14S22356   2.002   0.755  14.418  1.1559  0.6222 -0.4851
  182DOPC  C21522357   2.047   0.560  14.475 -0.2192  0.1616 -0.2546
  182DOPC  H15R22358   2.153   0.568  14.509 -0.4529  1.2826  0.2316
  182DOPC  H15S22359   2.024   0.456  14.441 -1.5090 -0.2737  1.7885
  182DOPC  C21622360   1.965   0.567  14.612 -0.1720 -0.5765 -0.3465
  182DOPC  H16R22361   1.861   0.536  14.588 -1.7817  3.1165  1.0833
  182DOPC  H16S22362   1.974   0.669  14.653  0.9838 -1.3353  1.4152
  182DOPC  C21722363   2.014   0.473  14.723  0.3800  0.0785 -0.1643
  182DOPC  H17R22364   2.123   0.493  14.734 -0.2251  2.7268  2.3566
  182DOPC  H17S22365   2.006   0.369  14.684  0.2159  0.2811 -0.6686
  182DOPC  C21822366   1.943   0.488  14.862 -0.3036 -0.0162 -0.6590
  182DOPC  H18R22367   1.833   0.482  14.871 -0.0580 -1.8283  3.0339
  182DOPC  H18S22368   1.965   0.588  14.905  1.4542 -0.3437 -0.7245
  182DOPC  H18T22369   1.995   0.413  14.926  1.9564  0.6087 -1.6546
  182DOPC   C3322370   2.265   0.316  13.591  0.3258 -0.5850  0.7086
  182DOPC   H3X22371   2.342   0.366  13.529  0.5866  0.8471  2.1232
  182DOPC   H3Y22372   2.277   0.207  13.611  3.0528 -0.0522  2.3651
  182DOPC   C3422373   2.256   0.384  13.729  0.0363  0.1309  0.0683
  182DOPC   H4X22374   2.205   0.482  13.718 -0.1151  0.2572  1.7024
  182DOPC   H4Y22375   2.365   0.401  13.746  0.4825 -1.4389 -0.9409
  182DOPC   C3522376   2.183   0.291  13.826  0.8998 -0.0916 -0.7673
  182DOPC   H5X22377   2.244   0.206  13.864 -2.0707 -2.9909 -1.9676
  182DOPC   H5Y22378   2.093   0.252  13.773 -0.5931  0.7706  1.0309
  182DOPC   C3622379   2.132   0.383  13.939  0.2953  0.4809 -0.9078
  182DOPC   H6X22380   2.211   0.418  14.008 -0.4432 -2.1083  1.4415
  182DOPC   H6Y22381   2.082   0.470  13.890 -0.9452 -0.1992 -0.8785
  182DOPC   C3722382   2.022   0.315  14.026  0.0823 -0.7778 -0.3167
  182DOPC   H7X22383   1.979   0.380  14.106  0.1209 -2.6724  1.3416
  182DOPC   H7Y22384   1.938   0.292  13.958  0.4840  2.2314 -2.0086
  182DOPC   C3822385   2.076   0.197  14.101 -0.6338  0.2981 -0.5245
  182DOPC   H8X22386   2.118   0.120  14.034  2.4802 -0.3744  1.9314
  182DOPC   H8Y22387   1.992   0.152  14.158 -0.0018 -0.2589 -0.0145
  182DOPC   C3922388   2.191   0.239  14.189  0.2427 -0.5212  0.5219
  182DOPC   H9X22389   2.183   0.343  14.226 -1.5487 -0.3603 -0.2139
  182DOPC  C31022390   2.302   0.173  14.216  0.0128 -0.2592  0.4177
  182DOPC  H10X22391   2.380   0.208  14.285  1.1223  0.1535 -0.9958
  182DOPC  C31122392   2.328   0.032  14.165 -0.6480  0.1962  0.2379
  182DOPC  H11X22393   2.373   0.048  14.064 -1.9087  0.0655 -0.3592
  182DOPC  H11Y22394   2.234  -0.026  14.153  0.1008 -1.0889  0.4200
  182DOPC  C31222395   2.425  -0.036  14.255  0.0424  0.3948  0.1089
  182DOPC  H12X22396   2.440  -0.145  14.236  0.5842  0.4772  0.0695
  182DOPC  H12Y22397   2.393  -0.036  14.362 -1.9576  1.4194 -0.4338
  182DOPC  C31322398   2.565   0.025  14.257  0.1522 -0.2994 -0.3506
  182DOPC  H13X22399   2.608   0.020  14.155  0.0028  3.8595 -0.7875
  182DOPC  H13Y22400   2.557   0.131  14.290  0.5320 -0.7054  1.1214
  182DOPC  C31422401   2.663  -0.039  14.350  0.0058 -0.5661 -1.0863
  182DOPC  H14X22402   2.657  -0.150  14.350  1.7047 -0.7634  1.8949
  182DOPC  H14Y22403   2.766  -0.014  14.316 -1.2722  2.4371 -3.1314
  182DOPC  C31522404   2.644  -0.000  14.495  0.2106 -0.9349  0.1395
  182DOPC  H15X22405   2.547  -0.038  14.533 -0.2662 -0.2294 -0.3408
  182DOPC  H15Y22406   2.640   0.111  14.501 -0.7573 -0.9107 -0.5950
  182DOPC  C31622407   2.768  -0.043  14.574 -0.1684  0.0713  0.6715
  182DOPC  H16X22408   2.795  -0.150  14.562 -0.2967 -0.0768  1.5752
  182DOPC  H16Y22409   2.855   0.021  14.548  1.1267 -1.7585  0.3165
  182DOPC  C31722410   2.758  -0.025  14.730  0.1679  0.6948  0.2224
  182DOPC  H17X22411   2.692  -0.105  14.771 -0.4014  1.8493  1.6327
  182DOPC  H17Y22412   2.863  -0.044  14.762 -0.2639 -3.6444 -0.2980
  182DOPC  C31822413   2.718   0.113  14.783  0.3663  0.0065  0.4102
  182DOPC  H18X22414   2.778   0.193  14.735  0.4699  0.7304  1.7026
  182DOPC  H18Y22415   2.612   0.140  14.762  0.5250 -0.3786 -0.9451
  182DOPC  H18Z22416   2.741   0.124  14.891  1.2032  1.5528  0.1022
  183DOPC     N22417   6.845   5.598  13.106  0.9092  0.1126  0.0087
  183DOPC   C1222418   6.927   5.559  13.234 -0.5038 -0.7648 -0.2250
  183DOPC  H12A22419   7.000   5.634  13.260 -0.0984 -1.2266  0.0018
  183DOPC  H12B22420   6.978   5.466  13.214  0.3628 -0.0132 -1.7209
  183DOPC   C1322421   6.754   5.708  13.149 -0.0400  0.0906 -0.0860
  183DOPC  H13A22422   6.686   5.666  13.221  0.2624 -2.8695 -1.3870
  183DOPC  H13B22423   6.800   5.791  13.199  0.7378 -0.5798  0.3295
  183DOPC  H13C22424   6.699   5.762  13.074  1.1950  0.2282 -0.9168
  183DOPC   C1422425   6.766   5.475  13.054 -0.0280  0.4117  0.7005
  183DOPC  H14A22426   6.708   5.508  12.969  2.0110  1.7643 -0.2512
  183DOPC  H14B22427   6.829   5.392  13.023  0.0570  0.6119  0.3246
  183DOPC  H14C22428   6.707   5.431  13.133  0.2787 -3.2352 -0.9060
  183DOPC   C1522429   6.939   5.636  12.993  0.8773 -0.0184  0.1798
  183DOPC  H15A22430   7.013   5.703  13.033 -1.1841  1.8199  1.1347
  183DOPC  H15B22431   6.880   5.682  12.916 -1.2733  0.3624  1.9324
  183DOPC  H15C22432   6.977   5.543  12.954  1.9910  0.9749 -1.1880
  183DOPC   C1122433   6.838   5.544  13.362 -0.2437 -0.3583  0.2425
  183DOPC  H11A22434   6.908   5.540  13.448  0.7572 -0.1430 -0.5384
  183DOPC  H11B22435   6.774   5.627  13.397 -2.6004 -2.7135  1.8905
  183DOPC     P22436   6.849   5.286  13.378  0.0442 -0.1542 -0.0085
  183DOPC   O1322437   6.953   5.272  13.271  0.0976  0.2840 -0.3346
  183DOPC   O1422438   6.755   5.170  13.396 -0.9275  0.1985  0.0612
  183DOPC   O1222439   6.761   5.421  13.353  0.2558 -0.6667 -0.2644
  183DOPC   O1122440   6.931   5.304  13.509 -0.0076 -0.1246  0.0665
  183DOPC    C122441   6.876   5.336  13.634 -0.8152  0.7185  0.4088
  183DOPC    HA22442   6.783   5.395  13.624 -0.2847  1.6171  0.6049
  183DOPC    HB22443   6.945   5.408  13.683  0.9403  0.8074 -1.9760
  183DOPC    C222444   6.866   5.205  13.708 -0.9899 -0.4834 -0.5650
  183DOPC    HS22445   6.955   5.144  13.682 -0.3883  0.9881 -2.1533
  183DOPC   O2122446   6.737   5.142  13.688 -0.0395 -0.1574  0.4358
  183DOPC   C2122447   6.739   5.010  13.686 -0.3110 -0.7839 -0.0668
  183DOPC   O2222448   6.835   4.940  13.722  0.4656  0.2382  0.3047
  183DOPC   C2222449   6.612   4.966  13.636  0.1318  0.7250 -0.1995
  183DOPC   H2R22450   6.610   4.993  13.528 -1.7408  0.7972 -0.1795
  183DOPC   H2S22451   6.524   5.019  13.678 -0.1139  0.6784 -0.6582
  183DOPC    C322452   6.876   5.230  13.859 -0.3194 -0.6025  0.1998
  183DOPC    HX22453   6.774   5.270  13.877 -1.6379 -2.4789 -2.4601
  183DOPC    HY22454   6.955   5.304  13.886 -0.3893 -0.7238  0.7370
  183DOPC   O3122455   6.882   5.116  13.948  0.1096 -0.2279  1.1288
  183DOPC   C3122456   7.005   5.055  13.949  0.1033 -0.0781 -0.1745
  183DOPC   O3222457   7.106   5.096  13.893 -0.0200 -0.3104  0.0628
  183DOPC   C3222458   6.994   4.927  14.035  0.5449 -0.1676  0.1324
  183DOPC   H2X22459   6.925   4.951  14.118 -1.5427  2.7015 -2.1996
  183DOPC   H2Y22460   6.951   4.845  13.973  4.5858 -1.2246 -1.5942
  183DOPC   C2322461   6.591   4.813  13.658  0.3453  0.3384 -1.2461
  183DOPC   H3R22462   6.683   4.754  13.636  0.7772  1.0512 -1.4203
  183DOPC   H3S22463   6.519   4.781  13.580 -1.9650 -0.4175  1.0596
  183DOPC   C2422464   6.525   4.774  13.797 -0.6376 -0.3114  0.0092
  183DOPC   H4R22465   6.448   4.854  13.805 -1.1323 -0.6465 -1.1213
  183DOPC   H4S22466   6.605   4.777  13.874 -1.0548 -2.2760  0.5911
  183DOPC   C2522467   6.481   4.627  13.799 -0.3632  0.0435  0.1460
  183DOPC   H5R22468   6.559   4.554  13.771 -0.8071 -1.1318  1.8193
  183DOPC   H5S22469   6.392   4.634  13.732 -0.5319  4.2675  0.5488
  183DOPC   C2622470   6.412   4.581  13.930 -0.7086  0.1136  0.0872
  183DOPC   H6R22471   6.323   4.646  13.943 -0.9862 -0.6025  2.1421
  183DOPC   H6S22472   6.478   4.595  14.019 -4.2979 -1.8906  3.3730
  183DOPC   C2722473   6.367   4.436  13.927 -0.0399  0.0806  0.1974
  183DOPC   H7R22474   6.452   4.366  13.913 -0.0872  0.1643 -0.5906
  183DOPC   H7S22475   6.303   4.414  13.838  1.6412 -3.2839 -0.3336
  183DOPC   C2822476   6.291   4.398  14.053 -0.0031 -0.0855 -0.0609
  183DOPC   H8R22477   6.201   4.462  14.055 -0.3711 -0.4912  3.3985
  183DOPC   H8S22478   6.340   4.428  14.148 -0.1911 -1.3053  0.4393
  183DOPC   C2922479   6.260   4.248  14.058 -0.4067  0.3419  0.2871
  183DOPC   H9R22480   6.335   4.172  14.031 -2.8164 -1.6142 -1.2975
  183DOPC  C21022481   6.143   4.193  14.087  0.4069 -0.5332 -0.3275
  183DOPC  H10R22482   6.134   4.084  14.091 -2.1461 -0.3850 -0.2189
  183DOPC  C21122483   6.021   4.269  14.140 -0.9098  0.1653  0.4736
  183DOPC  H11R22484   5.934   4.202  14.156 -2.1321  2.0620  2.5133
  183DOPC  H11S22485   5.989   4.338  14.059  0.2317 -0.5320 -0.5908
  183DOPC  C21222486   6.038   4.353  14.271 -0.3184  0.2757  0.4528
  183DOPC  H12R22487   6.079   4.454  14.256  1.3630 -0.5577 -0.8533
  183DOPC  H12S22488   6.107   4.293  14.334  0.6937 -2.4979 -2.9303
  183DOPC  C21322489   5.905   4.363  14.342  0.0714  0.3471  0.1134
  183DOPC  H13R22490   5.868   4.265  14.378 -1.6229 -0.4130 -3.2730
  183DOPC  H13S22491   5.821   4.401  14.279  0.7025 -0.5364 -1.3075
  183DOPC  C21422492   5.914   4.445  14.469  0.5181  0.0514 -0.0526
  183DOPC  H14R22493   5.972   4.535  14.442  1.0586  0.3711  2.0465
  183DOPC  H14S22494   5.984   4.397  14.540  0.0581 -0.7164 -0.0976
  183DOPC  C21522495   5.790   4.502  14.530  0.7347  0.1777 -0.1082
  183DOPC  H15R22496   5.712   4.430  14.498 -0.3322  1.0254  0.5537
  183DOPC  H15S22497   5.769   4.607  14.502  2.3238  1.8583  4.0718
  183DOPC  C21622498   5.795   4.504  14.681 -0.5019 -0.0814  0.7310
  183DOPC  H16R22499   5.895   4.538  14.715 -0.1575 -1.7389  1.4962
  183DOPC  H16S22500   5.789   4.400  14.720  0.1745  0.8549  3.5172
  183DOPC  C21722501   5.680   4.567  14.747  0.2644 -0.5686 -0.5504
  183DOPC  H17R22502   5.592   4.544  14.683  0.8057 -1.6545 -0.9144
  183DOPC  H17S22503   5.694   4.677  14.754 -1.1517 -0.2451 -2.1769
  183DOPC  C21822504   5.654   4.521  14.891 -0.4065  0.0935  1.3241
  183DOPC  H18R22505   5.715   4.570  14.970 -3.4374  2.4064  2.4098
  183DOPC  H18S22506   5.665   4.410  14.887 -1.5985 -0.0694 -3.1893
  183DOPC  H18T22507   5.548   4.548  14.912 -0.9914  0.5362 -1.7422
  183DOPC   C3322508   7.134   4.879  14.093 -0.3633  0.1348  0.4854
  183DOPC   H3X22509   7.208   4.952  14.054 -0.0985 -0.1962  0.3632
  183DOPC   H3Y22510   7.164   4.781  14.049  0.4265  0.4216  0.3749
  183DOPC   C3422511   7.142   4.880  14.243 -0.3076  0.6173  0.6266
  183DOPC   H4X22512   7.123   4.985  14.273 -0.2588  0.4662  1.2080
  183DOPC   H4Y22513   7.247   4.855  14.267 -0.1078  1.2038  0.3566
  183DOPC   C3522514   7.055   4.776  14.316  0.1960 -0.7574  0.1935
  183DOPC   H5X22515   7.086   4.670  14.302 -0.9060 -0.8214 -2.3496
  183DOPC   H5Y22516   6.954   4.785  14.271  0.9055  0.4101 -1.2955
  183DOPC   C3622517   7.038   4.816  14.465 -0.1087  0.5614 -0.7490
  183DOPC   H6X22518   7.133   4.786  14.515 -0.3278 -1.8808 -1.6828
  183DOPC   H6Y22519   7.028   4.927  14.469  0.5702  0.6359 -0.9888
  183DOPC   C3722520   6.917   4.746  14.536  0.0404  0.0433 -0.1480
  183DOPC   H7X22521   6.907   4.640  14.503  0.7956  0.4248 -1.7019
  183DOPC   H7Y22522   6.924   4.742  14.647 -2.0887 -1.0648 -0.0041
  183DOPC   C3822523   6.779   4.819  14.516 -0.7667  0.3304 -0.3529
  183DOPC   H8X22524   6.707   4.746  14.558 -0.8318  1.3780  1.4587
  183DOPC   H8Y22525   6.767   4.829  14.406  2.5684 -2.7136 -1.1752
  183DOPC   C3922526   6.779   4.947  14.602 -0.1967 -0.4322 -0.2454
  183DOPC   H9X22527   6.877   4.995  14.609 -1.1462  1.3035  3.3041
  183DOPC  C31022528   6.678   5.002  14.670 -0.5160 -0.0530  0.0214
  183DOPC  H10X22529   6.685   5.105  14.710 -0.2055  0.3715 -1.0871
  183DOPC  C31122530   6.538   4.948  14.668  0.4991  0.4913 -0.0329
  183DOPC  H11X22531   6.516   4.889  14.577  0.9982  0.8481 -0.3867
  183DOPC  H11Y22532   6.470   5.037  14.672  0.3067  0.3006  2.1489
  183DOPC  C31222533   6.498   4.859  14.798  0.4308 -0.3088  0.0785
  183DOPC  H12X22534   6.474   4.935  14.875 -1.7662 -1.4668  0.5924
  183DOPC  H12Y22535   6.581   4.789  14.823  0.1441 -0.2383  1.2613
  183DOPC  C31322536   6.368   4.783  14.769 -0.2698 -0.3074 -0.1616
  183DOPC  H13X22537   6.295   4.852  14.723  0.2714 -0.6249 -1.5324
  183DOPC  H13Y22538   6.404   4.706  14.698  1.8333 -0.7827  1.3269
  183DOPC  C31422539   6.306   4.710  14.896  0.3615  0.0279  0.2680
  183DOPC  H14X22540   6.391   4.666  14.954 -0.2435 -1.6899 -0.0915
  183DOPC  H14Y22541   6.253   4.781  14.963  0.4231  0.5113 -0.1975
  183DOPC  C31522542   6.203   4.604  14.867  0.1242 -0.1872  0.0261
  183DOPC  H15X22543   6.134   4.635  14.786  0.1984  1.8779  0.7134
  183DOPC  H15Y22544   6.137   4.581  14.953  0.6480  2.0645  1.0860
  183DOPC  C31622545   6.262   4.467  14.833  0.0735  0.6448  0.3217
  183DOPC  H16X22546   6.320   4.471  14.738 -0.0050 -0.9751  0.1824
  183DOPC  H16Y22547   6.318   4.431  14.922  0.1586  0.3920  0.1678
  183DOPC  C31722548   6.155   4.362  14.817  0.0574 -0.3859  0.9122
  183DOPC  H17X22549   6.072   4.399  14.754  1.0061  2.1055  1.0177
  183DOPC  H17Y22550   6.200   4.284  14.753 -0.0745  0.4453 -0.2195
  183DOPC  C31822551   6.097   4.311  14.951  0.2507  0.5298  0.1275
  183DOPC  H18X22552   6.123   4.208  14.983 -0.1328  0.9322  1.8606
  183DOPC  H18Y22553   6.132   4.374  15.036  1.4417 -0.4047  0.3502
  183DOPC  H18Z22554   5.986   4.312  14.956  0.2148 -0.4515 -0.3244
  184DOPC     N22555   4.521   6.528  12.465 -0.0312  0.3262 -0.3844
  184DOPC   C1222556   4.556   6.467  12.598  0.8088 -1.0076 -0.7079
  184DOPC  H12A22557   4.661   6.444  12.612  0.7777 -0.4483  0.5636
  184DOPC  H12B22558   4.512   6.369  12.604  0.5553 -0.8132  0.9640
  184DOPC   C1322559   4.562   6.425  12.361 -0.3460 -0.0417 -0.2027
  184DOPC  H13A22560   4.508   6.334  12.384 -1.2369  1.0792  2.5382
  184DOPC  H13B22561   4.540   6.454  12.259  0.6366 -1.4894 -0.8735
  184DOPC  H13C22562   4.667   6.400  12.369 -0.1535  1.2950  2.4152
  184DOPC   C1422563   4.583   6.663  12.444 -0.4765  0.3976 -0.3116
  184DOPC  H14A22564   4.556   6.732  12.523 -1.2209  1.5952 -1.5647
  184DOPC  H14B22565   4.688   6.650  12.462 -0.7445 -1.9025 -0.0201
  184DOPC  H14C22566   4.568   6.712  12.349  2.5653  0.4024 -0.8675
  184DOPC   C1522567   4.380   6.532  12.447  0.2679 -0.0936 -1.0035
  184DOPC  H15A22568   4.344   6.597  12.368 -3.2953 -0.8908 -0.2163
  184DOPC  H15B22569   4.334   6.555  12.542  0.7509 -0.1119 -0.7631
  184DOPC  H15C22570   4.340   6.435  12.421 -0.0436 -0.1670 -0.2763
  184DOPC   C1122571   4.511   6.553  12.725 -0.1928  0.0351 -0.3763
  184DOPC  H11A22572   4.408   6.591  12.711  1.0944  3.2830 -2.2104
  184DOPC  H11B22573   4.523   6.481  12.808  0.2971 -2.4050 -2.4375
  184DOPC     P22574   4.735   6.651  12.807  0.0156 -0.0187  0.7223
  184DOPC   O1322575   4.815   6.766  12.761  0.3716 -0.0214 -0.5830
  184DOPC   O1422576   4.785   6.509  12.777  0.4181  0.2339  0.3603
  184DOPC   O1222577   4.591   6.669  12.747  1.0381 -0.1279 -0.2716
  184DOPC   O1122578   4.710   6.654  12.961  0.6300  0.1489  0.1385
  184DOPC    C122579   4.604   6.724  13.026 -0.1888 -0.0243  0.2055
  184DOPC    HA22580   4.619   6.722  13.136  0.3339  1.3740  0.1862
  184DOPC    HB22581   4.509   6.676  12.995 -0.3710  0.3538  0.1712
  184DOPC    C222582   4.592   6.885  12.997 -0.6392  0.3426 -0.1087
  184DOPC    HS22583   4.570   6.904  12.890 -0.1105  1.8146  0.0218
  184DOPC   O2122584   4.712   6.949  13.039 -0.6950 -0.9244  0.3886
  184DOPC   C2122585   4.745   7.063  12.971 -0.1334 -0.1740  0.1736
  184DOPC   O2222586   4.690   7.099  12.868 -0.1793  0.0144 -0.0377
  184DOPC   C2222587   4.872   7.118  13.029  0.1253 -0.2493  0.1241
  184DOPC   H2R22588   4.911   7.193  12.957  0.4098 -0.1108  0.4229
  184DOPC   H2S22589   4.942   7.032  13.035  0.8116  0.3827  1.4973
  184DOPC    C322590   4.464   6.947  13.065 -0.2423  0.2119  0.0605
  184DOPC    HX22591   4.369   6.902  13.031  1.6802 -1.9234 -3.0604
  184DOPC    HY22592   4.463   7.054  13.036  0.1487  0.1719 -0.1130
  184DOPC   O3122593   4.459   6.924  13.207 -0.6811  0.0129  0.0677
  184DOPC   C3122594   4.456   7.033  13.287  0.0111 -0.1277  0.1599
  184DOPC   O3222595   4.460   7.147  13.248 -0.6588 -0.0842 -0.0645
  184DOPC   C3222596   4.444   6.990  13.432  0.4244  0.2329  0.1461
  184DOPC   H2X22597   4.363   7.050  13.479  1.1680 -0.0021  1.8254
  184DOPC   H2Y22598   4.406   6.886  13.431  0.4613  0.2240 -0.5620
  184DOPC   C2322599   4.854   7.188  13.163 -0.0880 -0.5958  0.1182
  184DOPC   H3R22600   4.811   7.118  13.238 -1.6401  1.1147  0.9024
  184DOPC   H3S22601   4.773   7.262  13.146 -1.0979 -1.2845  1.7063
  184DOPC   C2422602   4.985   7.249  13.216  0.2891 -0.2264 -0.0255
  184DOPC   H4R22603   4.966   7.299  13.313 -1.2232 -1.8431  0.5749
  184DOPC   H4S22604   5.024   7.325  13.144 -0.8877  1.3712  0.9531
  184DOPC   C2522605   5.099   7.151  13.233 -0.7318  0.1177 -0.2358
  184DOPC   H5R22606   5.126   7.100  13.139 -0.4769  1.7113 -1.0541
  184DOPC   H5S22607   5.063   7.068  13.299 -0.0743 -0.4704 -0.6049
  184DOPC   C2622608   5.220   7.222  13.289  0.0882  0.6705 -0.0166
  184DOPC   H6R22609   5.253   7.303  13.221 -0.7417 -0.3350 -1.6886
  184DOPC   H6S22610   5.302   7.147  13.277 -1.2049 -0.6912 -0.6242
  184DOPC   C2722611   5.207   7.270  13.436  0.3656 -0.4294 -0.5924
  184DOPC   H7R22612   5.197   7.173  13.490  1.1291  0.4831  1.2772
  184DOPC   H7S22613   5.113   7.328  13.453  0.4818 -0.5789  0.7097
  184DOPC   C2822614   5.327   7.354  13.487 -0.4128 -0.4896 -0.2096
  184DOPC   H8R22615   5.422   7.300  13.473 -0.1757  0.1265 -1.0673
  184DOPC   H8S22616   5.315   7.363  13.598 -1.1568 -0.3142 -0.2959
  184DOPC   C2922617   5.315   7.492  13.422 -0.4639  0.4102 -0.8137
  184DOPC   H9R22618   5.310   7.494  13.313 -1.6396  0.7947 -0.7674
  184DOPC  C21022619   5.313   7.612  13.488  0.2845  0.6123 -0.2723
  184DOPC  H10R22620   5.334   7.698  13.423  0.5836  0.8063  0.0789
  184DOPC  C21122621   5.321   7.642  13.634 -0.2534 -0.3024 -0.6153
  184DOPC  H11R22622   5.416   7.692  13.664 -0.7534  0.5917 -0.4762
  184DOPC  H11S22623   5.320   7.552  13.699  2.6531  0.5114  0.7158
  184DOPC  C21222624   5.199   7.732  13.680 -0.4834  0.1183  0.5169
  184DOPC  H12R22625   5.105   7.687  13.641 -1.8450  2.0561  1.4035
  184DOPC  H12S22626   5.208   7.831  13.629 -0.3265 -0.5046 -0.7127
  184DOPC  C21322627   5.190   7.739  13.831  0.2339 -0.1909 -0.2577
  184DOPC  H13R22628   5.283   7.792  13.862  0.8164 -1.5540  0.3700
  184DOPC  H13S22629   5.195   7.641  13.881  0.6552 -0.5431 -0.9676
  184DOPC  C21422630   5.062   7.823  13.883 -0.0804 -0.4390 -0.0888
  184DOPC  H14R22631   4.976   7.754  13.870 -0.1752 -0.3267 -0.0500
  184DOPC  H14S22632   5.054   7.908  13.811 -2.2742  0.8322  1.5275
  184DOPC  C21522633   5.074   7.884  14.027  0.0266  0.8349 -0.0515
  184DOPC  H15R22634   5.155   7.960  14.036 -0.1383  1.0947 -0.7474
  184DOPC  H15S22635   5.110   7.807  14.099 -0.5150 -0.8697 -1.5424
  184DOPC  C21622636   4.944   7.960  14.061 -0.2816  0.3820  0.2117
  184DOPC  H16R22637   4.863   7.885  14.071  0.6550 -0.6280  0.3691
  184DOPC  H16S22638   4.908   8.029  13.981  0.0522  1.9610  1.3680
  184DOPC  C21722639   4.955   8.043  14.188 -0.2112  0.2744 -0.1496
  184DOPC  H17R22640   5.039   8.116  14.181 -1.2768  1.6090  0.4480
  184DOPC  H17S22641   4.996   7.975  14.265  0.0497 -0.1660 -0.6695
  184DOPC  C21822642   4.820   8.099  14.238 -0.1924 -0.1594  0.2808
  184DOPC  H18R22643   4.768   8.157  14.159 -0.1104  0.8312  0.9300
  184DOPC  H18S22644   4.832   8.157  14.332  1.1491 -0.8240  0.5447
  184DOPC  H18T22645   4.751   8.019  14.271  1.9527 -1.6718  1.3393
  184DOPC   C3322646   4.570   7.013  13.517  0.0329  0.0290 -0.5067
  184DOPC   H3X22647   4.652   6.947  13.481  1.5837  1.9683 -0.7002
  184DOPC   H3Y22648   4.547   6.983  13.621 -0.5993  1.1829 -0.3024
  184DOPC   C3422649   4.622   7.152  13.513  0.0495 -0.4394 -0.4078
  184DOPC   H4X22650   4.553   7.232  13.547 -0.2899 -1.1728  0.6670
  184DOPC   H4Y22651   4.662   7.175  13.411 -0.0881  0.6298 -0.2361
  184DOPC   C3522652   4.762   7.152  13.593 -0.2231 -0.3182  0.2731
  184DOPC   H5X22653   4.827   7.093  13.525 -0.0943  0.4380 -0.2745
  184DOPC   H5Y22654   4.756   7.087  13.682  1.1024 -0.6236  0.1613
  184DOPC   C3622655   4.819   7.289  13.622 -1.2251  0.6283 -0.6350
  184DOPC   H6X22656   4.843   7.350  13.532 -1.0057  0.0549 -0.9780
  184DOPC   H6Y22657   4.742   7.347  13.677 -1.4582  0.0304 -0.3220
  184DOPC   C3722658   4.950   7.305  13.702 -0.0004 -0.5287  0.1777
  184DOPC   H7X22659   5.036   7.249  13.660  1.0249  0.1910  1.2519
  184DOPC   H7Y22660   4.975   7.413  13.689 -2.2997 -0.1359 -1.8828
  184DOPC   C3822661   4.945   7.249  13.848 -0.4605  0.0299  0.5492
  184DOPC   H8X22662   4.960   7.139  13.840 -2.2577 -0.1338 -1.7486
  184DOPC   H8Y22663   4.843   7.259  13.891 -1.2864 -2.7683 -0.5445
  184DOPC   C3922664   5.065   7.296  13.923 -0.1131  0.0344 -0.2858
  184DOPC   H9X22665   5.154   7.234  13.908  0.9794  1.5093 -0.1738
  184DOPC  C31022666   5.071   7.406  13.997 -0.8318  0.0283 -0.4473
  184DOPC  H10X22667   5.165   7.438  14.046 -0.3820  0.9355 -1.8155
  184DOPC  C31122668   4.957   7.496  14.032  0.0525 -0.1042 -0.8180
  184DOPC  H11X22669   4.860   7.465  13.988 -0.7832  0.9827  0.1690
  184DOPC  H11Y22670   4.974   7.602  14.003  0.5091  0.4573  1.3207
  184DOPC  C31222671   4.959   7.505  14.188  0.1382 -0.8070  0.5799
  184DOPC  H12X22672   5.048   7.568  14.208  0.6745 -1.0757 -0.7973
  184DOPC  H12Y22673   4.963   7.401  14.226 -0.7970 -1.4312 -0.9183
  184DOPC  C31322674   4.833   7.584  14.234  0.2851 -0.1483  0.3243
  184DOPC  H13X22675   4.821   7.659  14.152 -1.8758 -0.6973  0.0729
  184DOPC  H13Y22676   4.755   7.504  14.240 -0.6480  0.7898  1.1054
  184DOPC  C31422677   4.846   7.641  14.373  0.2228 -0.0247  0.9754
  184DOPC  H14X22678   4.951   7.677  14.375  1.1276 -2.2491 -1.1872
  184DOPC  H14Y22679   4.771   7.718  14.401  1.0878  0.5814  1.6730
  184DOPC  C31522680   4.831   7.535  14.480 -0.0643  0.5820  0.1478
  184DOPC  H15X22681   4.903   7.455  14.454 -0.4525  0.2422  0.1111
  184DOPC  H15Y22682   4.726   7.502  14.489 -0.2800  1.2857  0.2512
  184DOPC  C31622683   4.879   7.588  14.615 -0.3139  0.4804  0.1422
  184DOPC  H16X22684   4.910   7.498  14.672  1.1980 -0.7068 -2.3679
  184DOPC  H16Y22685   4.970   7.649  14.593 -1.9544  3.3666  0.8975
  184DOPC  C31722686   4.770   7.657  14.696 -0.6084  0.3715 -0.0723
  184DOPC  H17X22687   4.820   7.730  14.763  0.5498  1.0151 -1.5783
  184DOPC  H17Y22688   4.720   7.727  14.624 -1.1597 -0.6430 -0.7081
  184DOPC  C31822689   4.672   7.565  14.764  0.8622  0.5153 -0.5948
  184DOPC  H18X22690   4.595   7.629  14.813  0.6313  1.6566 -2.3238
  184DOPC  H18Y22691   4.625   7.501  14.687  0.8726  0.7489 -0.7981
  184DOPC  H18Z22692   4.723   7.503  14.840 -0.7341  1.0888  1.0379
  185DOPC     N22693   7.214   4.908  13.565 -0.2416  0.2269  0.2840
  185DOPC   C1222694   7.362   4.870  13.561  0.3847  0.1271  0.2112
  185DOPC  H12A22695   7.378   4.765  13.577 -0.1529  0.2477  1.6614
  185DOPC  H12B22696   7.393   4.907  13.657  0.3410  0.3698  0.1345
  185DOPC   C1322697   7.192   5.054  13.572  0.5731  0.6481 -0.0320
  185DOPC  H13A22698   7.088   5.080  13.588  1.3515  3.7917  0.5410
  185DOPC  H13B22699   7.242   5.095  13.659  3.0676 -0.2886 -0.9489
  185DOPC  H13C22700   7.224   5.112  13.487  0.0188 -0.5645 -1.1002
  185DOPC   C1422701   7.157   4.845  13.684  0.0841  0.6973  0.3044
  185DOPC  H14A22702   7.163   4.738  13.685 -1.1554  0.5511 -1.6084
  185DOPC  H14B22703   7.203   4.882  13.774 -0.0787 -1.2538  1.2281
  185DOPC  H14C22704   7.051   4.850  13.702 -0.1873 -2.5571  0.0775
  185DOPC   C1522705   7.143   4.859  13.440  0.5095  0.4976  0.1680
  185DOPC  H15A22706   7.037   4.866  13.453  0.3647 -0.3283 -0.4590
  185DOPC  H15B22707   7.174   4.760  13.409 -0.6136  0.2207 -0.1170
  185DOPC  H15C22708   7.168   4.932  13.364 -0.1635  0.1704 -0.3831
  185DOPC   C1122709   7.454   4.917  13.448 -0.4495  0.1456 -0.3298
  185DOPC  H11A22710   7.553   4.901  13.496  0.1210  2.3643 -0.6798
  185DOPC  H11B22711   7.439   4.860  13.353 -0.0890 -2.1285  0.9120
  185DOPC     P22712   7.579   5.139  13.384 -0.0723  0.0790 -0.5296
  185DOPC   O1322713   7.533   5.271  13.341  0.0939  0.2711 -0.0314
  185DOPC   O1422714   7.662   5.060  13.295  0.1490 -0.0034  0.3857
  185DOPC   O1222715   7.449   5.056  13.423  0.5506 -0.2406 -0.5118
  185DOPC   O1122716   7.653   5.148  13.529  0.7446  0.6351  0.3051
  185DOPC    C122717   7.586   5.135  13.655  0.2707 -0.1104 -1.0895
  185DOPC    HA22718   7.477   5.120  13.642 -0.1431  2.0379 -0.5519
  185DOPC    HB22719   7.601   5.239  13.694 -1.7559  0.4209 -1.6133
  185DOPC    C222720   7.649   5.027  13.744 -0.7514  1.0096 -0.1739
  185DOPC    HS22721   7.579   4.940  13.741  0.1930  0.2362 -2.5545
  185DOPC   O2122722   7.652   5.075  13.883  0.4898  0.4111 -0.2696
  185DOPC   C2122723   7.525   5.098  13.930  0.9062  0.4329 -0.5969
  185DOPC   O2222724   7.425   5.046  13.894  0.7401 -0.1634  0.4688
  185DOPC   C2222725   7.541   5.183  14.060 -0.6645  0.1243  0.0336
  185DOPC   H2R22726   7.583   5.283  14.035 -0.2662  0.5691  2.2615
  185DOPC   H2S22727   7.621   5.134  14.120 -0.4723 -0.0233 -0.3392
  185DOPC    C322728   7.797   4.981  13.695 -0.9014  0.1081 -0.4326
  185DOPC    HX22729   7.867   5.066  13.683  1.3210 -1.3721  1.4278
  185DOPC    HY22730   7.784   4.941  13.592  0.2261 -0.2151 -0.4515
  185DOPC   O3122731   7.847   4.885  13.788 -0.4146  0.0894 -0.0330
  185DOPC   C3122732   7.950   4.910  13.861 -0.0310 -0.1509 -0.4534
  185DOPC   O3222733   8.035   4.994  13.848  0.1493 -0.2059 -0.1044
  185DOPC   C3222734   7.960   4.795  13.956 -0.0154  0.6620  0.3055
  185DOPC   H2X22735   7.855   4.757  13.961 -0.2177  1.2188  0.3643
  185DOPC   H2Y22736   8.028   4.714  13.922 -0.8687 -0.7172  1.7767
  185DOPC   C2322737   7.410   5.192  14.143  0.2186 -0.2213 -0.0703
  185DOPC   H3R22738   7.373   5.087  14.151 -0.8122 -0.0195 -1.7088
  185DOPC   H3S22739   7.328   5.250  14.096  1.3076  0.5269 -1.1009
  185DOPC   C2422740   7.444   5.230  14.286 -0.3539  0.0638  0.0816
  185DOPC   H4R22741   7.500   5.325  14.294 -0.5057  0.2180 -0.6233
  185DOPC   H4S22742   7.489   5.138  14.328 -1.7875 -0.9201 -0.4669
  185DOPC   C2522743   7.321   5.247  14.369  0.0159  0.2506  0.2787
  185DOPC   H5R22744   7.344   5.279  14.473 -1.0993 -0.4991  0.7716
  185DOPC   H5S22745   7.262   5.153  14.371 -0.5474  0.5318 -1.6538
  185DOPC   C2622746   7.233   5.367  14.326  0.2848 -0.3230 -0.7641
  185DOPC   H6R22747   7.182   5.336  14.233  1.4971  2.7724 -2.5924
  185DOPC   H6S22748   7.302   5.449  14.299  0.5484 -1.2319 -3.0312
  185DOPC   C2722749   7.125   5.408  14.433  0.0355 -0.8706  0.4488
  185DOPC   H7R22750   7.173   5.417  14.533  1.1275  1.5316 -0.2174
  185DOPC   H7S22751   7.047   5.329  14.432  1.0694 -1.9323  1.4698
  185DOPC   C2822752   7.057   5.541  14.408 -0.0333 -0.1039  0.0954
  185DOPC   H8R22753   7.137   5.613  14.383 -2.1767  1.7240 -2.0497
  185DOPC   H8S22754   7.019   5.575  14.506  1.7884  1.5588  0.2889
  185DOPC   C2922755   6.954   5.545  14.300  0.1751  0.2749  0.3439
  185DOPC   H9R22756   7.004   5.527  14.203 -0.4238  0.4679 -0.0017
  185DOPC  C21022757   6.822   5.543  14.307  0.1298 -0.0151 -1.0212
  185DOPC  H10R22758   6.757   5.549  14.218 -0.0274  0.9721 -0.8615
  185DOPC  C21122759   6.740   5.556  14.433  0.1072 -0.3468  0.3724
  185DOPC  H11R22760   6.779   5.489  14.513  1.8741 -0.3731 -0.4535
  185DOPC  H11S22761   6.639   5.512  14.417  0.6144 -0.8823 -1.7550
  185DOPC  C21222762   6.722   5.705  14.471  0.2368 -0.1824  0.0856
  185DOPC  H12R22763   6.625   5.739  14.430  0.6965  0.4349 -0.4958
  185DOPC  H12S22764   6.810   5.767  14.448  0.6856 -0.3090  1.3498
  185DOPC  C21322765   6.705   5.720  14.626  0.1790 -0.1947  0.5344
  185DOPC  H13R22766   6.793   5.666  14.668 -0.3164 -1.9316 -0.5310
  185DOPC  H13S22767   6.624   5.655  14.666  1.4318 -2.2776 -0.1034
  185DOPC  C21422768   6.682   5.863  14.667 -0.0140 -0.2265  0.6701
  185DOPC  H14R22769   6.582   5.887  14.627 -0.2845  1.1522  2.0613
  185DOPC  H14S22770   6.758   5.927  14.616 -1.7449  0.1580 -1.5304
  185DOPC  C21522771   6.668   5.882  14.817 -0.0336 -0.6286  0.3555
  185DOPC  H15R22772   6.708   5.791  14.867  0.1157 -0.5585  0.3640
  185DOPC  H15S22773   6.561   5.905  14.831  0.2933 -0.7797  4.1315
  185DOPC  C21622774   6.748   6.005  14.868 -0.2165  0.0344  0.0504
  185DOPC  H16R22775   6.721   6.091  14.803 -0.3887 -0.1025 -0.0602
  185DOPC  H16S22776   6.854   5.988  14.839 -0.3809 -1.4788  0.2668
  185DOPC  C21722777   6.711   6.035  15.014 -1.2080 -0.3764  0.6400
  185DOPC  H17R22778   6.729   5.945  15.076  0.0405  0.5535  1.6736
  185DOPC  H17S22779   6.601   6.057  15.016 -1.1822 -0.1251 -0.2406
  185DOPC  C21822780   6.797   6.154  15.067  0.3338  0.4474 -1.1491
  185DOPC  H18R22781   6.777   6.175  15.174 -0.3779 -2.7404 -0.5313
  185DOPC  H18S22782   6.759   6.233  14.999  1.8200 -0.2208 -2.8528
  185DOPC  H18T22783   6.906   6.145  15.052  0.9060  1.1181  1.9576
  185DOPC   C3322784   7.989   4.847  14.101  0.3501  0.6359 -0.1599
  185DOPC   H3X22785   8.087   4.897  14.112 -0.2334  1.5434  1.1366
  185DOPC   H3Y22786   7.987   4.764  14.174 -0.4613  0.1117 -0.7628
  185DOPC   C3422787   7.893   4.952  14.158 -0.2167 -0.4630 -0.1494
  185DOPC   H4X22788   7.793   4.908  14.181  0.7616 -3.6388 -1.3401
  185DOPC   H4Y22789   7.886   5.032  14.082 -0.5600  2.2307  2.5461
  185DOPC   C3522790   7.939   5.016  14.288  0.5406 -0.2738 -0.1246
  185DOPC   H5X22791   8.043   5.053  14.276  0.0811  1.1626  0.1753
  185DOPC   H5Y22792   7.955   4.933  14.360 -0.0759  1.0694  1.6238
  185DOPC   C3622793   7.841   5.130  14.337 -0.6309 -0.0967  0.1082
  185DOPC   H6X22794   7.846   5.210  14.261  4.0641 -1.5670 -1.5343
  185DOPC   H6Y22795   7.746   5.073  14.337  0.1475 -1.4728  1.0908
  185DOPC   C3722796   7.866   5.194  14.479 -0.1639  0.1488  0.2557
  185DOPC   H7X22797   7.771   5.247  14.503  0.1460  1.0522 -0.4954
  185DOPC   H7Y22798   7.876   5.114  14.557  1.9216 -0.4578 -0.5830
  185DOPC   C3822799   7.989   5.283  14.495 -0.3293  0.9309  0.1391
  185DOPC   H8X22800   7.979   5.366  14.422  1.0942  1.0874  0.0928
  185DOPC   H8Y22801   8.081   5.227  14.466 -0.3749  1.5182 -1.1893
  185DOPC   C3922802   8.000   5.336  14.633  0.0521 -0.0035 -0.3377
  185DOPC   H9X22803   7.903   5.348  14.682  0.3109 -2.3868  0.9217
  185DOPC  C31022804   8.113   5.345  14.709  0.2036  0.3519 -0.4671
  185DOPC  H10X22805   8.112   5.409  14.798 -0.5914  0.2332 -0.3787
  185DOPC  C31122806   8.248   5.291  14.656  0.8223 -0.0061 -0.4731
  185DOPC  H11X22807   8.325   5.369  14.678  0.7131 -0.4192  1.5212
  185DOPC  H11Y22808   8.260   5.272  14.547  1.6765 -1.0193 -0.2095
  185DOPC  C31222809   8.308   5.165  14.720 -0.3457  0.4953 -0.0152
  185DOPC  H12X22810   8.311   5.194  14.827  0.5258  0.3204  0.0198
  185DOPC  H12Y22811   8.404   5.145  14.668  0.6161 -0.4409  2.0152
  185DOPC  C31322812   8.246   5.029  14.696 -0.3052  0.0668  0.3372
  185DOPC  H13X22813   8.164   5.025  14.772  0.5091  2.7273  1.4898
  185DOPC  H13Y22814   8.204   5.008  14.595 -0.1927 -1.9238  0.6643
  185DOPC  C31422815   8.339   4.912  14.722  0.0894  0.9002  0.6950
  185DOPC  H14X22816   8.297   4.814  14.690  2.4069 -0.3986  1.4371
  185DOPC  H14Y22817   8.430   4.915  14.659 -0.6611  0.6612 -0.4443
  185DOPC  C31522818   8.385   4.894  14.867 -0.6740  0.2241  0.4620
  185DOPC  H15X22819   8.293   4.896  14.928 -1.0499  0.3633 -0.0992
  185DOPC  H15Y22820   8.448   4.976  14.908  2.7912 -2.0361  0.0863
  185DOPC  C31622821   8.464   4.766  14.895  0.4070  0.1368  0.0087
  185DOPC  H16X22822   8.467   4.703  14.804 -4.0360 -0.5334  0.1008
  185DOPC  H16Y22823   8.572   4.787  14.909 -0.0913  1.1061  3.0343
  185DOPC  C31722824   8.410   4.689  15.015  0.2457 -0.3369 -0.5080
  185DOPC  H17X22825   8.491   4.620  15.047  0.3528  0.6060  1.4027
  185DOPC  H17Y22826   8.389   4.760  15.097 -1.0789 -0.8944 -0.3364
  185DOPC  C31822827   8.281   4.613  14.987 -0.1908 -0.3448 -0.4884
  185DOPC  H18X22828   8.304   4.528  14.920 -0.9430 -1.3146  0.4635
  185DOPC  H18Y22829   8.241   4.574  15.082  1.5717 -0.9723  0.0264
  185DOPC  H18Z22830   8.210   4.680  14.933  0.8063  0.2707 -1.0703
  186DOPC     N22831   7.237   2.917  13.059  0.1936 -0.6819 -0.2297
  186DOPC   C1222832   7.235   2.920  13.211 -0.1875  0.2947  0.1793
  186DOPC  H12A22833   7.335   2.895  13.243 -0.1441 -2.9086 -2.0684
  186DOPC  H12B22834   7.178   2.834  13.242  0.5283 -0.1098  0.3867
  186DOPC   C1322835   7.102   2.944  13.001  0.0756 -0.4055 -0.2456
  186DOPC  H13A22836   7.092   2.947  12.894 -0.8325  0.6327 -0.1437
  186DOPC  H13B22837   7.029   2.871  13.034 -0.1449  0.3980  1.0968
  186DOPC  H13C22838   7.069   3.044  13.026  0.2615 -0.1790 -0.8903
  186DOPC   C1422839   7.290   2.780  13.007  0.3284 -0.3580 -0.4100
  186DOPC  H14A22840   7.277   2.777  12.900 -2.4240  1.2916 -0.2193
  186DOPC  H14B22841   7.395   2.771  13.028  0.4646  1.8542  0.1373
  186DOPC  H14C22842   7.232   2.702  13.052  0.4288 -0.5470 -0.6068
  186DOPC   C1522843   7.332   3.035  13.018 -0.5513  0.4228 -0.1403
  186DOPC  H15A22844   7.315   3.135  13.055  0.2664 -0.2368  2.2095
  186DOPC  H15B22845   7.353   3.041  12.912  1.5513  1.3036  0.2586
  186DOPC  H15C22846   7.433   3.013  13.051 -1.4807 -2.1127  1.3053
  186DOPC   C1122847   7.197   3.041  13.307 -0.5477  0.9490  0.5528
  186DOPC  H11A22848   7.097   3.073  13.270 -0.2694  0.0958 -1.0467
  186DOPC  H11B22849   7.183   3.015  13.413 -1.9867 -0.3261  0.0821
  186DOPC     P22850   7.428   3.150  13.361 -0.3426  0.0289 -0.4656
  186DOPC   O1322851   7.504   3.269  13.319  0.2863  0.7196  0.1437
  186DOPC   O1422852   7.496   3.017  13.344 -0.9143  0.2674 -0.0897
  186DOPC   O1222853   7.285   3.151  13.285 -0.0063 -0.3886 -0.0445
  186DOPC   O1122854   7.402   3.167  13.512  0.7307  0.3374 -0.3650
  186DOPC    C122855   7.480   3.110  13.617 -0.8442  0.0472  0.2674
  186DOPC    HA22856   7.475   3.181  13.702  0.4570 -1.1893  1.4159
  186DOPC    HB22857   7.587   3.098  13.591 -0.7414 -0.0505  0.7220
  186DOPC    C222858   7.429   2.971  13.667  0.2867  0.0488  0.9318
  186DOPC    HS22859   7.407   2.907  13.579  1.4525 -1.3174  1.5908
  186DOPC   O2122860   7.307   2.986  13.736 -0.3136  0.1345 -0.2054
  186DOPC   C2122861   7.307   3.012  13.867  0.8595 -0.6957  0.2495
  186DOPC   O2222862   7.398   3.056  13.931  0.5760  0.0540 -0.3519
  186DOPC   C2222863   7.162   2.990  13.925 -0.7704  0.4518  0.1125
  186DOPC   H2R22864   7.131   2.886  13.901  2.1321  0.0026 -2.2152
  186DOPC   H2S22865   7.093   3.047  13.859 -1.7054 -2.9441 -2.1321
  186DOPC    C322866   7.548   2.902  13.745  0.1626 -0.5488  0.3583
  186DOPC    HX22867   7.604   2.975  13.807 -0.8009  1.0625 -0.5996
  186DOPC    HY22868   7.609   2.857  13.665 -0.5862 -0.7761 -0.0978
  186DOPC   O3122869   7.493   2.789  13.816 -0.1968  0.1438  0.1745
  186DOPC   C3122870   7.573   2.725  13.896 -0.3201  0.5236  0.3200
  186DOPC   O3222871   7.691   2.767  13.910  0.5531  0.0123 -0.2626
  186DOPC   C3222872   7.521   2.589  13.943  0.8143 -0.3211  0.4781
  186DOPC   H2X22873   7.415   2.603  13.974  0.4060 -0.9378 -0.5809
  186DOPC   H2Y22874   7.510   2.532  13.848  2.1569 -1.3671  0.9169
  186DOPC   C2322875   7.152   3.038  14.074  0.2047 -0.3862  0.5320
  186DOPC   H3R22876   7.169   3.148  14.079  4.1543 -0.8400  0.2692
  186DOPC   H3S22877   7.225   2.990  14.143 -1.3431 -0.2847  2.3444
  186DOPC   C2422878   7.016   3.007  14.128  0.5714 -0.1041  0.1281
  186DOPC   H4R22879   7.011   2.896  14.137 -2.1635 -0.0837 -0.0563
  186DOPC   H4S22880   6.937   3.044  14.060 -0.0856 -1.0964  0.3103
  186DOPC   C2522881   6.996   3.058  14.267 -0.2667 -0.5790  0.3172
  186DOPC   H5R22882   6.971   3.167  14.270 -1.3092 -0.7325 -1.1513
  186DOPC   H5S22883   7.084   3.037  14.330 -1.8014  1.5627  3.4537
  186DOPC   C2622884   6.882   2.993  14.347 -0.0922  0.1214 -0.3557
  186DOPC   H6R22885   6.910   2.891  14.381 -2.9215 -0.3600  0.7928
  186DOPC   H6S22886   6.797   2.994  14.275 -0.5003  2.8963  0.0643
  186DOPC   C2722887   6.835   3.070  14.473 -0.9453  0.8326  0.0267
  186DOPC   H7R22888   6.800   3.171  14.443  1.1954  0.7167 -3.5540
  186DOPC   H7S22889   6.921   3.082  14.542 -1.5367  3.6616  0.3897
  186DOPC   C2822890   6.715   3.002  14.549 -1.0001 -0.3682  0.2501
  186DOPC   H8R22891   6.756   2.906  14.587  0.1193 -0.8090 -1.9542
  186DOPC   H8S22892   6.639   2.972  14.473  0.3232 -0.2833 -1.1405
  186DOPC   C2922893   6.655   3.074  14.662 -0.3221 -0.1881 -0.2417
  186DOPC   H9R22894   6.669   3.035  14.764 -2.5731 -0.3277  0.0694
  186DOPC  C21022895   6.566   3.173  14.648  0.5616  0.4145  0.0116
  186DOPC  H10R22896   6.528   3.221  14.739  3.8503 -1.8225  2.8370
  186DOPC  C21122897   6.519   3.229  14.516 -0.2345 -0.5386 -0.6353
  186DOPC  H11R22898   6.432   3.170  14.481 -0.9398 -0.3933  0.7884
  186DOPC  H11S22899   6.602   3.205  14.446 -1.3787 -1.8259 -1.5920
  186DOPC  C21222900   6.494   3.375  14.521 -0.3043 -0.0969 -0.0766
  186DOPC  H12R22901   6.407   3.405  14.584  0.9931 -0.0915  1.7982
  186DOPC  H12S22902   6.488   3.416  14.418 -2.0392 -1.0314 -0.3730
  186DOPC  C21322903   6.600   3.460  14.586  0.3642  0.1056 -0.5769
  186DOPC  H13R22904   6.684   3.474  14.515  1.3643 -0.4140  0.4572
  186DOPC  H13S22905   6.659   3.402  14.661 -0.7382 -1.1711 -0.6520
  186DOPC  C21422906   6.550   3.598  14.639 -0.4132 -0.1996  0.3843
  186DOPC  H14R22907   6.489   3.650  14.563  2.8493  0.6433 -1.8582
  186DOPC  H14S22908   6.634   3.672  14.639 -1.3548  0.8951 -0.1407
  186DOPC  C21522909   6.480   3.583  14.775  0.2235 -0.8669 -0.3810
  186DOPC  H15R22910   6.407   3.501  14.763  0.9062 -1.2833 -1.8897
  186DOPC  H15S22911   6.424   3.676  14.799 -0.1877 -1.8634  3.0558
  186DOPC  C21622912   6.580   3.571  14.896 -0.0409  0.1031 -0.5275
  186DOPC  H16R22913   6.636   3.667  14.894  2.9528 -1.5267 -0.0054
  186DOPC  H16S22914   6.646   3.484  14.876 -1.4049 -1.1753  0.3392
  186DOPC  C21722915   6.518   3.564  15.036 -0.1593 -0.4253 -0.2385
  186DOPC  H17R22916   6.471   3.463  15.041  1.6769 -1.3780 -1.3938
  186DOPC  H17S22917   6.436   3.639  15.037 -0.0615 -0.2919  2.0240
  186DOPC  C21822918   6.612   3.583  15.155  0.4354 -0.2880 -0.4305
  186DOPC  H18R22919   6.660   3.682  15.144 -0.0861 -0.0158 -0.3197
  186DOPC  H18S22920   6.690   3.504  15.151 -1.9618 -2.8125 -1.2364
  186DOPC  H18T22921   6.573   3.581  15.260  3.4657 -1.5477  0.7869
  186DOPC   C3322922   7.613   2.510  14.037 -0.3384  0.3535  0.2345
  186DOPC   H3X22923   7.719   2.508  14.004  0.2204  1.6110  1.8461
  186DOPC   H3Y22924   7.583   2.402  14.041  0.9916 -0.0136  0.7610
  186DOPC   C3422925   7.601   2.566  14.179  0.3461  0.0838 -0.3338
  186DOPC   H4X22926   7.493   2.586  14.194  0.2008 -0.6937 -0.2912
  186DOPC   H4Y22927   7.653   2.663  14.191 -2.2316  1.2681  2.7964
  186DOPC   C3522928   7.670   2.470  14.286  0.5664 -0.3980 -0.5514
  186DOPC   H5X22929   7.779   2.455  14.272  0.5803 -2.3227  1.2027
  186DOPC   H5Y22930   7.622   2.370  14.276 -2.3340  0.6345  1.5447
  186DOPC   C3622931   7.648   2.515  14.430 -0.2845 -0.0072  0.1743
  186DOPC   H6X22932   7.723   2.453  14.484 -2.0125 -0.6118  2.0151
  186DOPC   H6Y22933   7.676   2.622  14.431  0.2260 -0.0879 -1.8351
  186DOPC   C3722934   7.504   2.477  14.479 -0.2048  0.3560  0.7383
  186DOPC   H7X22935   7.469   2.550  14.556 -3.1462 -0.4948  0.3159
  186DOPC   H7Y22936   7.439   2.486  14.389 -1.7559 -1.4166  1.6160
  186DOPC   C3822937   7.485   2.331  14.527  0.3502 -0.1168  0.8739
  186DOPC   H8X22938   7.570   2.320  14.599  0.5918 -0.1313  0.5889
  186DOPC   H8Y22939   7.509   2.274  14.435 -1.2322 -0.0234  0.3915
  186DOPC   C3922940   7.347   2.307  14.567  0.3433 -0.8982 -0.7613
  186DOPC   H9X22941   7.270   2.299  14.489 -1.4144 -1.2845  0.9293
  186DOPC  C31022942   7.305   2.296  14.695 -0.7355 -0.3654 -0.2539
  186DOPC  H10X22943   7.207   2.246  14.705 -1.0282  0.2228 -0.1428
  186DOPC  C31122944   7.390   2.310  14.818 -0.1698  0.6187  0.2065
  186DOPC  H11X22945   7.497   2.296  14.789  0.1013  1.0284  0.9923
  186DOPC  H11Y22946   7.371   2.220  14.879 -1.8465 -1.6031 -3.2527
  186DOPC  C31222947   7.377   2.433  14.905  0.2577 -0.2381 -0.0021
  186DOPC  H12X22948   7.274   2.465  14.930  0.2650  0.0601 -0.3425
  186DOPC  H12Y22949   7.418   2.512  14.838  2.0471 -0.3905  0.8464
  186DOPC  C31322950   7.462   2.429  15.031 -1.2096  0.7041 -0.6363
  186DOPC  H13X22951   7.426   2.340  15.088  0.6557  0.0723 -0.3770
  186DOPC  H13Y22952   7.571   2.416  15.012 -0.8985 -0.0129  1.4320
  186DOPC  C31422953   7.428   2.545  15.127  0.3560 -0.8913 -0.4690
  186DOPC  H14X22954   7.321   2.571  15.141 -0.2239 -1.2547 -3.5349
  186DOPC  H14Y22955   7.472   2.523  15.227 -0.1273 -0.4435 -0.1536
  186DOPC  C31522956   7.499   2.676  15.084  0.8900 -0.2607 -0.3478
  186DOPC  H15X22957   7.466   2.702  14.981 -0.0794 -0.7533 -0.1696
  186DOPC  H15Y22958   7.609   2.670  15.099  0.5754 -0.5872  2.2904
  186DOPC  C31622959   7.452   2.795  15.172  0.4680  1.3355  0.0225
  186DOPC  H16X22960   7.341   2.796  15.167  0.3398  1.0579  1.9985
  186DOPC  H16Y22961   7.483   2.782  15.278  0.5182 -2.0637 -0.2914
  186DOPC  C31722962   7.503   2.927  15.122 -0.1552  0.2303  0.2834
  186DOPC  H17X22963   7.501   2.919  15.011  0.7221  0.8332  0.2130
  186DOPC  H17Y22964   7.436   3.003  15.166 -0.6050  0.7553 -1.2399
  186DOPC  C31822965   7.644   2.960  15.163  0.0573  0.3045 -0.4221
  186DOPC  H18X22966   7.642   2.956  15.274 -0.6787 -1.3626 -0.4605
  186DOPC  H18Y22967   7.718   2.881  15.136  2.4792  2.5684 -0.9271
  186DOPC  H18Z22968   7.666   3.067  15.143 -1.1676  0.7409  0.4736
  187DOPC     N22969   6.507   1.460  12.831  0.0316 -0.5322  0.8233
  187DOPC   C1222970   6.497   1.369  12.954  0.2544 -0.2348 -0.5456
  187DOPC  H12A22971   6.525   1.423  13.043 -3.2609  0.9965 -0.0394
  187DOPC  H12B22972   6.566   1.286  12.947  2.0176  1.2458 -1.4426
  187DOPC   C1322973   6.393   1.552  12.829 -0.3895 -0.7365 -0.5586
  187DOPC  H13A22974   6.301   1.497  12.842 -0.4908 -0.1495  1.7284
  187DOPC  H13B22975   6.391   1.609  12.921 -2.8651 -2.2739  0.4424
  187DOPC  H13C22976   6.405   1.612  12.741  1.5366  2.7491  1.8292
  187DOPC   C1422977   6.500   1.384  12.696 -0.1636  0.2410 -0.1362
  187DOPC  H14A22978   6.583   1.319  12.672  1.2660  2.1848 -0.7271
  187DOPC  H14B22979   6.406   1.331  12.691 -0.0656  0.1203 -0.7055
  187DOPC  H14C22980   6.499   1.458  12.617  1.8461  0.8604  0.3542
  187DOPC   C1522981   6.635   1.540  12.823  0.3912  0.5370 -0.3070
  187DOPC  H15A22982   6.637   1.603  12.736 -1.1465  0.7768 -0.1983
  187DOPC  H15B22983   6.727   1.483  12.831  0.0714 -0.0482 -0.7267
  187DOPC  H15C22984   6.634   1.603  12.911 -1.2545 -0.1005  0.1625
  187DOPC   C1122985   6.362   1.303  12.995  0.4948  0.5023  0.2267
  187DOPC  H11A22986   6.356   1.242  13.089 -2.1542  0.3571  0.0626
  187DOPC  H11B22987   6.289   1.380  13.029 -1.5663 -1.3511  0.2326
  187DOPC     P22988   6.355   1.076  12.859  0.0738  0.6049  0.2022
  187DOPC   O1322989   6.491   1.083  12.803 -0.2561 -0.2153  0.1076
  187DOPC   O1422990   6.253   1.008  12.772  0.1132 -0.1594 -0.1936
  187DOPC   O1222991   6.303   1.220  12.889  0.5824 -0.1046  0.2143
  187DOPC   O1122992   6.356   1.019  13.007 -0.3141  0.3068 -0.0962
  187DOPC    C122993   6.252   0.941  13.066 -0.0641 -0.1476  0.2503
  187DOPC    HA22994   6.281   0.899  13.164 -0.0467 -1.5734 -0.3440
  187DOPC    HB22995   6.241   0.848  13.007 -2.8347 -0.8151  1.6519
  187DOPC    C222996   6.112   1.013  13.083  0.5065  0.0485 -0.4947
  187DOPC    HS22997   6.072   1.034  12.981  1.1942  1.3722 -0.5239
  187DOPC   O2122998   6.132   1.142  13.146  0.1576 -0.3123 -0.2006
  187DOPC   C2122999   6.025   1.225  13.168  0.1277  0.1963  0.8494
  187DOPC   O2223000   5.914   1.213  13.121  0.2398 -0.2690  0.6157
  187DOPC   C2223001   6.066   1.350  13.246 -0.1441 -0.4816 -0.0895
  187DOPC   H2R23002   5.971   1.403  13.269 -0.7437 -2.0044  1.1217
  187DOPC   H2S23003   6.121   1.414  13.174  0.6235 -0.1724  0.7662
  187DOPC    C323004   6.016   0.919  13.158  0.2071  0.0886 -0.6280
  187DOPC    HX23005   6.024   0.815  13.121  1.1450  0.1422 -0.5957
  187DOPC    HY23006   5.908   0.943  13.145  0.0096  0.2137  0.9989
  187DOPC   O3123007   6.048   0.920  13.303  0.1129 -0.1854  0.3772
  187DOPC   C3123008   5.951   0.907  13.387 -0.6347  0.0950  0.0595
  187DOPC   O3223009   5.831   0.888  13.375  0.2950 -0.6253  0.2357
  187DOPC   C3223010   6.016   0.920  13.526  0.4391  0.6595 -0.3055
  187DOPC   H2X23011   6.123   0.945  13.513  0.5415 -0.4928 -1.7974
  187DOPC   H2Y23012   5.962   1.010  13.565 -1.0724  0.1072 -1.0253
  187DOPC   C2323013   6.144   1.305  13.370  0.7193 -0.6136 -0.0964
  187DOPC   H3R23014   6.222   1.382  13.383 -1.4879  1.5227  1.4587
  187DOPC   H3S23015   6.202   1.210  13.372  0.8360 -0.5377  0.1705
  187DOPC   C2423016   6.050   1.317  13.494  0.1547 -0.5934 -0.8101
  187DOPC   H4R23017   5.966   1.251  13.462  1.1335 -1.4768 -1.6271
  187DOPC   H4S23018   6.009   1.416  13.525 -1.6335 -1.3652 -0.5907
  187DOPC   C2523019   6.113   1.268  13.621  0.8841  1.6547 -0.4477
  187DOPC   H5R23020   6.147   1.164  13.603 -3.0166 -0.1461  1.3988
  187DOPC   H5S23021   6.029   1.267  13.693  1.7736 -1.6945  0.7059
  187DOPC   C2623022   6.238   1.349  13.676 -0.3730  0.3920 -0.0890
  187DOPC   H6R23023   6.223   1.459  13.682  1.1888  0.6825 -1.0035
  187DOPC   H6S23024   6.313   1.332  13.596 -0.4015 -0.8325  0.1312
  187DOPC   C2723025   6.289   1.299  13.812 -0.3519  0.7653  0.9786
  187DOPC   H7R23026   6.376   1.365  13.832 -0.1200  1.2370 -1.3216
  187DOPC   H7S23027   6.333   1.198  13.803  1.0618  1.4414 -0.1722
  187DOPC   C2823028   6.188   1.298  13.925 -0.3947 -0.7104  0.0123
  187DOPC   H8R23029   6.088   1.265  13.889  0.2279  0.1048 -2.6970
  187DOPC   H8S23030   6.168   1.404  13.951  0.9250 -0.6771  1.0089
  187DOPC   C2923031   6.236   1.228  14.052  0.0831  0.1702 -0.1967
  187DOPC   H9R23032   6.342   1.254  14.070  0.2944  0.5985 -1.8487
  187DOPC  C21023033   6.181   1.128  14.121  0.1111 -0.0584  0.1943
  187DOPC  H10R23034   6.228   1.094  14.215  0.2929  0.2732  0.2242
  187DOPC  C21123035   6.049   1.064  14.094  0.4522 -0.0510 -0.0722
  187DOPC  H11R23036   6.057   0.961  14.052  0.1957  0.5373 -1.6262
  187DOPC  H11S23037   5.990   1.119  14.018  0.1441  0.1694  0.3251
  187DOPC  C21223038   5.963   1.048  14.222  0.0690 -0.0721 -0.3907
  187DOPC  H12R23039   5.865   1.011  14.186 -1.8756  1.8557  2.4329
  187DOPC  H12S23040   5.956   1.145  14.277  1.0410 -0.2095 -0.0096
  187DOPC  C21323041   6.009   0.937  14.316 -0.0348 -0.0858 -0.7502
  187DOPC  H13R23042   6.110   0.961  14.356 -0.2149  0.4443 -0.6018
  187DOPC  H13S23043   6.017   0.842  14.259 -0.9156  0.2494 -1.4517
  187DOPC  C21423044   5.926   0.928  14.448 -0.7813  0.2029  0.7638
  187DOPC  H14R23045   5.931   0.819  14.468  1.0941  0.0829 -0.1596
  187DOPC  H14S23046   5.821   0.960  14.430  0.2220  2.5150 -1.6149
  187DOPC  C21523047   5.992   0.993  14.566  0.0926 -0.3640  0.0910
  187DOPC  H15R23048   5.988   1.103  14.555  0.0999 -0.4715 -1.0531
  187DOPC  H15S23049   6.100   0.967  14.562 -0.2308 -1.9129  0.7711
  187DOPC  C21623050   5.944   0.936  14.695  0.5710  0.1962 -0.6111
  187DOPC  H16R23051   5.982   0.832  14.712 -0.1789  0.1421  0.9302
  187DOPC  H16S23052   5.833   0.927  14.695  0.7196 -3.0689 -0.8794
  187DOPC  C21723053   5.997   1.013  14.825 -0.2519  0.1723 -0.3419
  187DOPC  H17R23054   5.947   0.970  14.915  1.6337  3.0275  2.3160
  187DOPC  H17S23055   5.974   1.122  14.817 -3.0135 -0.3042  0.0758
  187DOPC  C21823056   6.151   0.996  14.844  0.6707  0.0008  0.0757
  187DOPC  H18R23057   6.181   0.889  14.846 -0.3393 -0.2899  2.5767
  187DOPC  H18S23058   6.171   1.049  14.939 -1.3825  1.9558 -0.4795
  187DOPC  H18T23059   6.202   1.051  14.762 -0.5574  0.8880 -0.1251
  187DOPC   C3323060   6.003   0.810  13.637  0.1987  0.1840 -0.2837
  187DOPC   H3X23061   5.896   0.790  13.657  0.1372  1.0637  0.3223
  187DOPC   H3Y23062   6.039   0.864  13.727  0.1734  0.1697 -0.2654
  187DOPC   C3423063   6.084   0.675  13.620 -0.7691 -0.4773  0.2785
  187DOPC   H4X23064   6.187   0.698  13.586 -0.2508 -0.4058  1.8186
  187DOPC   H4Y23065   6.033   0.611  13.544 -1.8457  0.0305  0.5628
  187DOPC   C3523066   6.105   0.600  13.745 -0.1794  0.4392  0.0888
  187DOPC   H5X23067   6.131   0.676  13.822  2.1427 -0.1683 -0.0519
  187DOPC   H5Y23068   6.191   0.532  13.727 -0.0465  0.6910 -0.2482
  187DOPC   C3623069   5.986   0.530  13.800 -0.2418  0.6276 -0.2521
  187DOPC   H6X23070   5.927   0.613  13.844 -0.4400  1.4278 -1.9682
  187DOPC   H6Y23071   5.924   0.476  13.725  0.9649 -0.2895 -0.6212
  187DOPC   C3723072   6.023   0.434  13.911  0.1597 -0.0299 -0.2484
  187DOPC   H7X23073   5.935   0.366  13.919 -1.0098  1.5832  1.2732
  187DOPC   H7Y23074   6.099   0.365  13.869 -1.7291 -2.1373 -0.4524
  187DOPC   C3823075   6.047   0.501  14.048 -0.2267  0.0132  0.6059
  187DOPC   H8X23076   5.967   0.576  14.071  0.5146  1.4707 -1.3117
  187DOPC   H8Y23077   6.135   0.565  14.027 -0.2543 -0.7471 -2.1563
  187DOPC   C3923078   6.095   0.403  14.153  0.2232  0.3991 -0.3595
  187DOPC   H9X23079   6.124   0.311  14.101 -0.9302  0.8174 -1.7913
  187DOPC  C31023080   6.119   0.421  14.283 -0.9156 -0.3536  0.0834
  187DOPC  H10X23081   6.151   0.332  14.338  4.1648  1.3225  0.4096
  187DOPC  C31123082   6.092   0.544  14.363 -0.1990  0.3517  0.3533
  187DOPC  H11X23083   6.019   0.602  14.304  0.7628  2.0834  0.8138
  187DOPC  H11Y23084   6.187   0.600  14.373  1.2778 -2.2420  2.4483
  187DOPC  C31223085   6.047   0.509  14.506  0.4913  0.4621 -0.1052
  187DOPC  H12X23086   5.943   0.471  14.501  0.2263  1.2954 -1.9292
  187DOPC  H12Y23087   6.056   0.601  14.567  1.3767  1.2509 -1.3733
  187DOPC  C31323088   6.130   0.400  14.569 -0.8735  0.4900 -0.3481
  187DOPC  H13X23089   6.114   0.304  14.516 -0.0316  0.7056 -1.0240
  187DOPC  H13Y23090   6.237   0.431  14.573 -0.0002 -2.3102  1.5929
  187DOPC  C31423091   6.088   0.383  14.718  0.4167  0.6304  0.7440
  187DOPC  H14X23092   6.118   0.473  14.776  1.1046 -0.0848  1.5255
  187DOPC  H14Y23093   5.978   0.384  14.728  0.2650  0.8595 -0.7000
  187DOPC  C31523094   6.151   0.259  14.767 -0.2795  0.0693 -0.5066
  187DOPC  H15X23095   6.261   0.245  14.755 -0.6790 -1.9621 -2.5011
  187DOPC  H15Y23096   6.115   0.182  14.696 -1.8474  0.3383 -0.0216
  187DOPC  C31623097   6.128   0.225  14.915 -0.2930 -0.4322 -0.7237
  187DOPC  H16X23098   6.018   0.236  14.931 -0.4019 -2.6425  0.5325
  187DOPC  H16Y23099   6.143   0.116  14.927 -0.1064 -0.2845  0.4712
  187DOPC  C31723100   6.221   0.305  15.005  0.2369 -0.0245 -0.5374
  187DOPC  H17X23101   6.327   0.284  14.977  0.8254  0.0775  1.4709
  187DOPC  H17Y23102   6.204   0.413  14.988 -0.4635 -0.2158 -1.1041
  187DOPC  C31823103   6.196   0.267  15.150 -0.0717  0.2844 -0.5539
  187DOPC  H18X23104   6.096   0.307  15.179 -0.0991  1.7543 -2.4734
  187DOPC  H18Y23105   6.187   0.160  15.178  0.2251  0.5359  0.5778
  187DOPC  H18Z23106   6.266   0.307  15.226  0.9318 -1.5821 -0.4567
  188DOPC     N23107   1.584   0.875  12.629 -0.1856 -0.4119 -0.0915
  188DOPC   C1223108   1.627   0.829  12.769 -0.0956  0.1495 -0.4900
  188DOPC  H12A23109   1.698   0.900  12.809 -3.2721  2.9500  0.7147
  188DOPC  H12B23110   1.665   0.729  12.760  0.6354  0.5457 -2.2988
  188DOPC   C1323111   1.554   1.023  12.631  0.1137 -0.5469 -1.1651
  188DOPC  H13A23112   1.642   1.083  12.652 -1.3526  0.7064  1.9387
  188DOPC  H13B23113   1.514   1.048  12.534  1.9638  0.7721 -1.6401
  188DOPC  H13C23114   1.483   1.052  12.707 -0.0242  3.5515 -2.6162
  188DOPC   C1423115   1.466   0.796  12.581 -0.8410 -0.5455 -0.3920
  188DOPC  H14A23116   1.456   0.809  12.474 -1.4789 -1.0951 -0.4070
  188DOPC  H14B23117   1.471   0.690  12.602  1.9681 -0.3566  0.2988
  188DOPC  H14C23118   1.382   0.835  12.636 -2.4855 -1.6093 -2.0423
  188DOPC   C1523119   1.692   0.845  12.526 -0.2310 -0.1708  0.1365
  188DOPC  H15A23120   1.645   0.866  12.431 -0.4745  1.4761  0.5841
  188DOPC  H15B23121   1.731   0.745  12.530  2.2568  0.7792  2.0227
  188DOPC  H15C23122   1.773   0.916  12.533  0.2051 -0.4517 -1.6050
  188DOPC   C1123123   1.514   0.832  12.879 -0.1184 -0.1127  0.5070
  188DOPC  H11A23124   1.427   0.764  12.865  0.3743 -1.2544  2.5270
  188DOPC  H11B23125   1.557   0.789  12.972 -1.0786 -0.1607  0.9433
  188DOPC     P23126   1.565   1.065  12.990  0.0871 -0.5225  0.1364
  188DOPC   O1323127   1.523   1.206  12.976 -0.4969 -0.1257 -0.0534
  188DOPC   O1423128   1.708   1.037  12.958 -0.3972  0.2638  0.2142
  188DOPC   O1223129   1.476   0.972  12.900  0.7290  0.1090 -0.1425
  188DOPC   O1123130   1.538   1.017  13.137 -0.1492 -0.3085  0.2168
  188DOPC    C123131   1.408   1.019  13.186  0.5625 -0.8725 -0.0935
  188DOPC    HA23132   1.333   0.978  13.115  0.8185  0.1353 -0.9756
  188DOPC    HB23133   1.375   1.121  13.215 -1.5949 -1.8343  0.9825
  188DOPC    C223134   1.407   0.930  13.314 -0.1841 -0.0587  0.1651
  188DOPC    HS23135   1.305   0.941  13.355 -0.6043  1.3617 -1.1807
  188DOPC   O2123136   1.503   0.967  13.416  0.0550 -0.5367  0.3896
  188DOPC   C2123137   1.504   1.098  13.446 -0.6483 -0.4185 -0.0445
  188DOPC   O2223138   1.416   1.177  13.422 -0.0983 -0.1759  0.3687
  188DOPC   C2223139   1.635   1.142  13.509 -1.3882  0.0806 -0.7620
  188DOPC   H2R23140   1.690   1.199  13.431  1.0617  2.4144  2.3768
  188DOPC   H2S23141   1.689   1.051  13.542  0.6318  1.7464  0.8485
  188DOPC    C323142   1.437   0.785  13.267 -0.2438 -0.2023  0.6764
  188DOPC    HX23143   1.540   0.784  13.226 -0.2965  0.8436  0.4994
  188DOPC    HY23144   1.370   0.774  13.179 -0.0130  0.0827  0.4679
  188DOPC   O3123145   1.409   0.690  13.371 -0.5139  0.1233 -0.1127
  188DOPC   C3123146   1.440   0.560  13.337 -0.2627  0.0826  0.3178
  188DOPC   O3223147   1.488   0.527  13.230 -0.1902  0.1722 -0.2561
  188DOPC   C3223148   1.403   0.460  13.453 -0.6797 -0.1905 -0.0393
  188DOPC   H2X23149   1.345   0.511  13.533 -2.3697  1.0970 -1.9880
  188DOPC   H2Y23150   1.333   0.382  13.416 -1.0599  0.1598 -0.0683
  188DOPC   C2323151   1.625   1.232  13.632  1.2511  0.6941  0.7679
  188DOPC   H3R23152   1.560   1.313  13.591  1.0390 -0.2745 -0.8805
  188DOPC   H3S23153   1.724   1.277  13.655  0.5490  2.1553  1.0866
  188DOPC   C2423154   1.551   1.173  13.759 -0.2842  0.5459  0.1633
  188DOPC   H4R23155   1.618   1.104  13.814 -1.7187 -0.3951  0.7919
  188DOPC   H4S23156   1.464   1.113  13.724  0.4413 -0.8834  0.7338
  188DOPC   C2523157   1.500   1.279  13.867 -0.1169  0.6820  0.0655
  188DOPC   H5R23158   1.423   1.333  13.807  0.7012  1.3057 -0.4347
  188DOPC   H5S23159   1.578   1.354  13.890  0.0870 -0.0251  1.8003
  188DOPC   C2623160   1.431   1.231  14.000 -0.2857 -0.0327  0.4679
  188DOPC   H6R23161   1.331   1.212  13.957  0.3267  0.2394 -1.1214
  188DOPC   H6S23162   1.414   1.315  14.070 -0.5600 -1.2005  1.8531
  188DOPC   C2723163   1.489   1.101  14.062  0.1977  0.1409 -0.6480
  188DOPC   H7R23164   1.588   1.121  14.107 -1.1238  0.7097  2.2728
  188DOPC   H7S23165   1.499   1.017  13.989 -1.4003 -0.7286  0.0661
  188DOPC   C2823166   1.417   1.047  14.190  0.2772 -0.2117  0.3138
  188DOPC   H8R23167   1.459   0.944  14.200  1.2055  0.2173  0.9484
  188DOPC   H8S23168   1.307   1.045  14.177  0.0427  2.1432  1.4089
  188DOPC   C2923169   1.445   1.127  14.317  0.0288  0.3153  0.3119
  188DOPC   H9R23170   1.382   1.217  14.327 -1.6781 -0.5619 -1.8190
  188DOPC  C21023171   1.518   1.084  14.416  0.1628  0.3283 -0.5356
  188DOPC  H10R23172   1.526   1.146  14.506  2.8558 -0.8008  0.1295
  188DOPC  C21123173   1.607   0.961  14.424 -0.1360  0.2761 -0.4277
  188DOPC  H11R23174   1.704   1.004  14.458  0.3286  1.8113 -3.3386
  188DOPC  H11S23175   1.626   0.914  14.325 -0.7122 -0.1025 -0.3624
  188DOPC  C21223176   1.568   0.847  14.522  0.6516 -0.6057  0.0608
  188DOPC  H12R23177   1.556   0.894  14.622  0.5694  0.8989 -0.6304
  188DOPC  H12S23178   1.654   0.776  14.521  0.1603 -1.3762  2.8508
  188DOPC  C21323179   1.446   0.774  14.472 -0.0813  0.4008  0.6222
  188DOPC  H13R23180   1.461   0.763  14.362 -1.0533 -2.1285  0.6761
  188DOPC  H13S23181   1.349   0.827  14.484  0.8737  2.0324  1.2954
  188DOPC  C21423182   1.424   0.629  14.535 -0.6358 -0.9783 -0.2522
  188DOPC  H14R23183   1.515   0.566  14.544 -0.3261 -0.3187  1.5463
  188DOPC  H14S23184   1.357   0.570  14.468  0.2553 -1.4662 -0.7446
  188DOPC  C21523185   1.363   0.640  14.675 -0.3017  0.3155 -0.2332
  188DOPC  H15R23186   1.427   0.704  14.739 -1.2008  1.5220 -0.5218
  188DOPC  H15S23187   1.351   0.539  14.720 -0.7399  0.1829 -0.6345
  188DOPC  C21623188   1.224   0.701  14.674  0.5149  0.9482  0.9402
  188DOPC  H16R23189   1.230   0.811  14.656  1.2250  0.6427 -1.0366
  188DOPC  H16S23190   1.179   0.702  14.775  1.1621 -0.1675  1.2562
  188DOPC  C21723191   1.128   0.642  14.568  0.6448 -0.0949 -0.0112
  188DOPC  H17R23192   1.123   0.531  14.578 -2.5254  0.0466  1.1355
  188DOPC  H17S23193   1.160   0.670  14.465  0.5794 -0.4819 -0.1379
  188DOPC  C21823194   0.986   0.694  14.579  0.4844 -0.5163  0.2258
  188DOPC  H18R23195   0.986   0.798  14.539  0.8346  0.2953  2.2115
  188DOPC  H18S23196   0.950   0.679  14.683 -2.8583  1.2613 -0.5583
  188DOPC  H18T23197   0.919   0.627  14.521 -0.0369 -0.5294  0.8409
  188DOPC   C3323198   1.532   0.393  13.506  0.3217  0.5260 -0.0454
  188DOPC   H3X23199   1.621   0.459  13.514 -0.2235  1.4181 -1.1204
  188DOPC   H3Y23200   1.574   0.320  13.434  0.2568 -0.1238  0.5588
  188DOPC   C3423201   1.482   0.325  13.641 -0.2667 -0.0959  0.4834
  188DOPC   H4X23202   1.409   0.241  13.643  0.7921 -1.0436  0.6563
  188DOPC   H4Y23203   1.444   0.412  13.698  3.8987  2.8291 -0.7718
  188DOPC   C3523204   1.592   0.279  13.728 -0.1243 -0.0188 -0.0890
  188DOPC   H5X23205   1.662   0.364  13.712 -1.2217  1.1181  0.9265
  188DOPC   H5Y23206   1.641   0.185  13.695 -1.6237 -0.7992 -0.1777
  188DOPC   C3623207   1.561   0.270  13.872  0.0753 -1.2933  0.0453
  188DOPC   H6X23208   1.507   0.364  13.895 -0.6802 -1.6109 -0.3969
  188DOPC   H6Y23209   1.500   0.181  13.898  1.4044 -1.9831  0.9432
  188DOPC   C3723210   1.685   0.250  13.960 -0.7258 -0.1729  0.4669
  188DOPC   H7X23211   1.745   0.164  13.923 -1.2461 -0.3524  0.0195
  188DOPC   H7Y23212   1.741   0.346  13.953  0.9242 -1.0562  1.1720
  188DOPC   C3823213   1.652   0.213  14.106 -0.0472 -0.9504 -1.0609
  188DOPC   H8X23214   1.747   0.193  14.160 -0.6507  2.5134  1.6304
  188DOPC   H8Y23215   1.581   0.127  14.107 -0.6747 -0.4957  1.5694
  188DOPC   C3923216   1.586   0.324  14.186  0.4314  0.6989  0.0614
  188DOPC   H9X23217   1.489   0.358  14.148 -0.2371 -1.1100  0.0704
  188DOPC  C31023218   1.642   0.372  14.303 -0.2336  0.0936  0.7964
  188DOPC  H10X23219   1.602   0.455  14.363  2.2344  0.7255  1.6674
  188DOPC  C31123220   1.776   0.327  14.361  0.0040 -0.5995  0.7096
  188DOPC  H11X23221   1.818   0.424  14.398  1.7004 -1.0710  0.0772
  188DOPC  H11Y23222   1.853   0.299  14.287  0.7823  0.3085  1.1442
  188DOPC  C31223223   1.766   0.240  14.481  0.1682  0.3432 -0.1885
  188DOPC  H12X23224   1.872   0.223  14.510 -0.3176 -0.2376  1.3637
  188DOPC  H12Y23225   1.720   0.143  14.455 -0.7444  0.3753  1.2197
  188DOPC  C31323226   1.678   0.307  14.596 -0.1678  0.3362 -0.1111
  188DOPC  H13X23227   1.717   0.409  14.616 -0.7079  0.1769  2.1127
  188DOPC  H13Y23228   1.572   0.316  14.562 -0.6931 -0.1903  1.2800
  188DOPC  C31423229   1.678   0.221  14.720  0.6940 -0.6485 -0.4966
  188DOPC  H14X23230   1.676   0.116  14.686 -2.9009 -0.9310  0.2230
  188DOPC  H14Y23231   1.761   0.242  14.791  0.6678 -2.0714 -0.0205
  188DOPC  C31523232   1.546   0.242  14.799 -0.7524  0.0462  0.7060
  188DOPC  H15X23233   1.454   0.222  14.740 -1.1943  1.6159  0.8051
  188DOPC  H15Y23234   1.544   0.348  14.831  0.5043  0.8473 -1.6401
  188DOPC  C31623235   1.540   0.137  14.910 -0.1245  0.1474 -0.2605
  188DOPC  H16X23236   1.567   0.040  14.863  0.4915  0.0067  0.3649
  188DOPC  H16Y23237   1.601   0.169  14.997 -1.3108  3.4723 -0.4941
  188DOPC  C31723238   1.402   0.111  14.973 -0.5536 -0.6450 -0.1430
  188DOPC  H17X23239   1.338   0.065  14.894 -0.6107  1.2293 -1.2783
  188DOPC  H17Y23240   1.435   0.038  15.050  1.3442  0.2852 -0.0018
  188DOPC  C31823241   1.315   0.229  15.028  0.1475 -0.0876  0.0490
  188DOPC  H18X23242   1.377   0.300  15.088  0.0344 -0.1329  0.2182
  188DOPC  H18Y23243   1.277   0.290  14.944 -0.0258  0.0704  0.2405
  188DOPC  H18Z23244   1.224   0.199  15.084 -0.5010 -0.3454 -1.1237
  189DOPC     N23245   3.819   6.487  12.304 -1.2704  0.2281  0.4428
  189DOPC   C1223246   3.757   6.353  12.349  0.3061 -0.3118 -0.6282
  189DOPC  H12A23247   3.822   6.283  12.401  0.0821  0.1269  0.2648
  189DOPC  H12B23248   3.720   6.303  12.261  0.4990  0.8645 -1.3933
  189DOPC   C1323249   3.715   6.577  12.231 -0.3007 -0.1516  0.3217
  189DOPC  H13A23250   3.745   6.677  12.205 -2.2717  1.4295  3.4636
  189DOPC  H13B23251   3.692   6.530  12.137  1.3358  0.7664 -0.5810
  189DOPC  H13C23252   3.627   6.589  12.293 -1.7878 -0.5513 -1.6297
  189DOPC   C1423253   3.931   6.464  12.210  0.6961  0.3594  0.4201
  189DOPC  H14A23254   3.997   6.385  12.240  1.2134 -0.5964 -2.8657
  189DOPC  H14B23255   3.887   6.452  12.112 -1.8690  0.4670  1.4706
  189DOPC  H14C23256   3.999   6.548  12.206  0.6771  0.4541  1.6752
  189DOPC   C1523257   3.874   6.563  12.411  0.5026 -0.1580  0.5072
  189DOPC  H15A23258   3.785   6.574  12.471 -1.0952  0.2120 -1.7989
  189DOPC  H15B23259   3.919   6.654  12.374 -0.2238 -0.3199 -0.8463
  189DOPC  H15C23260   3.949   6.507  12.465  1.6389  0.1971 -0.6704
  189DOPC   C1123261   3.632   6.353  12.442 -0.7330  0.2611  0.2418
  189DOPC  H11A23262   3.547   6.406  12.395  0.1776 -0.7630 -2.7621
  189DOPC  H11B23263   3.601   6.247  12.448 -2.0365  0.5684 -0.6332
  189DOPC     P23264   3.704   6.329  12.690  0.4592 -0.0067  0.1194
  189DOPC   O1323265   3.801   6.228  12.646 -0.0156 -0.0805  0.2510
  189DOPC   O1423266   3.585   6.274  12.761  0.0704  0.3350  0.5899
  189DOPC   O1223267   3.656   6.414  12.567 -0.3643  0.1368 -0.2280
  189DOPC   O1123268   3.774   6.432  12.792  0.6672  0.4630  0.2167
  189DOPC    C123269   3.728   6.573  12.790  0.3448  0.0184  0.4729
  189DOPC    HA23270   3.617   6.578  12.792  0.1721  0.4538 -3.0119
  189DOPC    HB23271   3.774   6.630  12.706 -0.7122 -0.2355 -0.2946
  189DOPC    C223272   3.777   6.648  12.913  0.5215  0.1450 -0.4084
  189DOPC    HS23273   3.705   6.728  12.944  2.3390  0.9497  2.1227
  189DOPC   O2123274   3.911   6.699  12.899  0.7333 -0.1800 -0.4472
  189DOPC   C2123275   3.913   6.835  12.871  0.4474 -0.4958  0.0607
  189DOPC   O2223276   3.812   6.895  12.838  0.0801  0.4155 -0.0358
  189DOPC   C2223277   4.055   6.888  12.900  0.1754 -0.0863  0.5510
  189DOPC   H2R23278   4.110   6.914  12.807 -3.2140 -1.5998 -2.1000
  189DOPC   H2S23279   4.119   6.811  12.949 -0.7380 -0.5937  0.9777
  189DOPC    C323280   3.782   6.546  13.033  0.9069  0.2421  0.1067
  189DOPC    HX23281   3.859   6.469  13.010 -0.6237 -1.2530 -0.2820
  189DOPC    HY23282   3.688   6.488  13.042  1.5700 -0.9582 -0.4068
  189DOPC   O3123283   3.806   6.627  13.149  0.0665  0.3641  0.1636
  189DOPC   C3123284   3.695   6.668  13.218  0.0048  0.4529  0.3408
  189DOPC   O3223285   3.579   6.641  13.189  0.2938 -0.6989  0.1292
  189DOPC   C3223286   3.744   6.751  13.335 -0.0530  0.2391 -0.8329
  189DOPC   H2X23287   3.828   6.704  13.389 -0.4664  0.2824 -0.1346
  189DOPC   H2Y23288   3.789   6.844  13.294  1.4610 -0.1877 -0.2129
  189DOPC   C2323289   4.053   7.015  12.996 -0.7714 -0.6060 -0.1773
  189DOPC   H3R23290   3.972   7.087  12.970 -0.9016 -0.6898 -0.0064
  189DOPC   H3S23291   4.146   7.071  12.973 -0.0680 -1.2550  1.0327
  189DOPC   C2423292   4.055   6.994  13.150 -0.1928  0.4839 -0.0501
  189DOPC   H4R23293   4.147   6.936  13.174 -1.6328 -1.3004  1.5158
  189DOPC   H4S23294   3.966   6.933  13.176  2.0214 -2.8197  0.3724
  189DOPC   C2523295   4.058   7.134  13.229  0.1372 -0.2648  0.0267
  189DOPC   H5R23296   3.971   7.200  13.206 -2.1478 -2.8977  0.4902
  189DOPC   H5S23297   4.149   7.186  13.194 -0.0152 -0.0137  0.0041
  189DOPC   C2623298   4.065   7.115  13.378 -0.6990  0.2969 -0.3275
  189DOPC   H6R23299   4.164   7.066  13.393 -0.6911 -0.0268 -1.3617
  189DOPC   H6S23300   3.979   7.051  13.408 -0.5500 -0.2357 -1.0058
  189DOPC   C2723301   4.060   7.251  13.437 -0.3270 -0.3749 -0.3922
  189DOPC   H7R23302   3.968   7.311  13.422 -0.6425 -0.3340  1.5289
  189DOPC   H7S23303   4.153   7.294  13.394  1.9788 -2.6412  2.0172
  189DOPC   C2823304   4.085   7.265  13.592 -0.6675 -0.0867  0.4233
  189DOPC   H8R23305   4.182   7.220  13.619 -1.3056 -0.4257  2.3151
  189DOPC   H8S23306   4.006   7.217  13.654 -1.3051  1.4058  0.8230
  189DOPC   C2923307   4.091   7.411  13.631 -0.6026 -0.3065  0.6390
  189DOPC   H9R23308   3.993   7.456  13.615 -0.3725 -0.3208 -1.0770
  189DOPC  C21023309   4.193   7.480  13.681 -0.4206 -0.1739 -0.1017
  189DOPC  H10R23310   4.184   7.589  13.696  0.9222 -0.1183  0.4109
  189DOPC  C21123311   4.328   7.424  13.702 -0.3265  0.9301 -0.2155
  189DOPC  H11R23312   4.402   7.505  13.716 -0.8230  0.9433  3.1912
  189DOPC  H11S23313   4.349   7.355  13.617  0.6268  0.2669  0.5408
  189DOPC  C21223314   4.334   7.349  13.838 -0.3055  0.4999  0.4214
  189DOPC  H12R23315   4.256   7.269  13.835 -0.2711  0.4925 -1.4676
  189DOPC  H12S23316   4.320   7.419  13.923 -0.6874  0.8876  0.0425
  189DOPC  C21323317   4.472   7.280  13.861 -0.1540 -0.5183  0.0308
  189DOPC  H13R23318   4.561   7.346  13.865  0.1749 -0.9373 -0.3460
  189DOPC  H13S23319   4.489   7.216  13.772 -1.0085  1.4696 -1.6571
  189DOPC  C21423320   4.474   7.190  13.981  0.2163 -0.1986  0.2610
  189DOPC  H14R23321   4.573   7.139  13.984  0.9921  1.2451  0.0246
  189DOPC  H14S23322   4.401   7.110  13.955 -0.9965  1.4391 -1.7599
  189DOPC  C21523323   4.431   7.255  14.113 -0.2832  0.0082  0.3141
  189DOPC  H15R23324   4.431   7.175  14.190  0.2257  0.4317  0.7623
  189DOPC  H15S23325   4.324   7.284  14.111 -0.9112 -2.0402  1.3137
  189DOPC  C21623326   4.517   7.361  14.175 -0.0762  0.1692 -0.2891
  189DOPC  H16R23327   4.542   7.428  14.090  2.1810 -1.8173 -1.3253
  189DOPC  H16S23328   4.611   7.312  14.208 -0.2019  0.3400  0.3489
  189DOPC  C21723329   4.462   7.431  14.296  0.5722 -0.2024 -0.1475
  189DOPC  H17R23330   4.403   7.523  14.272 -0.7458 -0.7731  0.7844
  189DOPC  H17S23331   4.542   7.482  14.354 -1.6953  1.6906  1.5825
  189DOPC  C21823332   4.381   7.337  14.384 -0.0555  0.7978 -0.1033
  189DOPC  H18R23333   4.445   7.257  14.428 -1.7416 -0.2496  0.5175
  189DOPC  H18S23334   4.311   7.272  14.328  2.3651 -0.5665 -1.7246
  189DOPC  H18T23335   4.322   7.389  14.462 -2.8405 -1.4274 -0.5798
  189DOPC   C3323336   3.631   6.779  13.441 -0.6686  0.4838  0.0799
  189DOPC   H3X23337   3.610   6.686  13.497  0.2891  1.1156  1.5266
  189DOPC   H3Y23338   3.539   6.806  13.384  0.9479  1.5759 -2.1852
  189DOPC   C3423339   3.681   6.881  13.528  0.0467  0.1760  1.2813
  189DOPC   H4X23340   3.695   6.981  13.480 -4.3765  1.5205  2.2821
  189DOPC   H4Y23341   3.783   6.845  13.551  0.4937  0.4214 -0.2067
  189DOPC   C3523342   3.601   6.888  13.660  0.6105 -0.5623 -0.2604
  189DOPC   H5X23343   3.613   6.789  13.709  0.5881 -0.5594 -0.2499
  189DOPC   H5Y23344   3.492   6.906  13.645  0.4576  1.1572  2.3638
  189DOPC   C3623345   3.669   6.985  13.756 -0.5768 -0.4498  0.5879
  189DOPC   H6X23346   3.776   6.954  13.760 -0.7007 -0.8904  0.6111
  189DOPC   H6Y23347   3.667   7.084  13.707 -0.0767 -1.4566 -1.6079
  189DOPC   C3723348   3.603   6.987  13.897 -0.6200 -0.5723  0.3517
  189DOPC   H7X23349   3.644   7.085  13.929 -1.9132  0.0563  0.1409
  189DOPC   H7Y23350   3.493   7.003  13.892 -0.5389  0.5404  1.6066
  189DOPC   C3823351   3.635   6.865  13.979  0.0256  0.2796  0.0031
  189DOPC   H8X23352   3.739   6.825  13.981  0.2801  0.6845 -2.1920
  189DOPC   H8Y23353   3.566   6.787  13.940 -1.6666  1.3218  0.8029
  189DOPC   C3923354   3.572   6.881  14.117 -0.1041  0.9597 -0.1472
  189DOPC   H9X23355   3.464   6.867  14.104  0.0929 -0.3205 -0.6063
  189DOPC  C31023356   3.632   6.922  14.229 -0.6200  0.2527  0.7183
  189DOPC  H10X23357   3.577   6.930  14.324  0.5105 -0.7608  1.5003
  189DOPC  C31123358   3.777   6.967  14.232  0.1376  0.2680  0.1581
  189DOPC  H11X23359   3.791   7.032  14.143 -0.6378  0.2488  0.0161
  189DOPC  H11Y23360   3.840   6.877  14.214 -0.9314 -0.3795 -0.4738
  189DOPC  C31223361   3.810   7.053  14.361 -0.1924 -0.5852  0.0323
  189DOPC  H12X23362   3.823   6.993  14.453  1.4166 -1.3798 -0.6604
  189DOPC  H12Y23363   3.733   7.133  14.367 -1.1773 -1.4038 -1.2093
  189DOPC  C31323364   3.958   7.115  14.353 -0.0265  0.7340 -0.3156
  189DOPC  H13X23365   4.044   7.049  14.331 -0.1245  0.5652 -0.1892
  189DOPC  H13Y23366   3.948   7.173  14.258  2.3300 -0.7935 -1.5890
  189DOPC  C31423367   3.994   7.207  14.471  0.1466  0.3298  0.7123
  189DOPC  H14X23368   3.999   7.159  14.571  1.0859  0.1772  0.5979
  189DOPC  H14Y23369   4.098   7.243  14.458  0.0793 -0.0086 -1.0613
  189DOPC  C31523370   3.903   7.334  14.475  1.0150 -0.6410 -0.0411
  189DOPC  H15X23371   3.808   7.311  14.527  1.8921 -2.1114  0.9979
  189DOPC  H15Y23372   3.877   7.359  14.370  1.5597 -3.8387 -1.0457
  189DOPC  C31623373   3.971   7.447  14.558  0.8885 -0.9783  0.7281
  189DOPC  H16X23374   3.986   7.424  14.666  0.1224 -0.7694  0.8849
  189DOPC  H16Y23375   4.071   7.466  14.514  0.3707  2.2470  0.6993
  189DOPC  C31723376   3.906   7.589  14.552  0.1574  0.6681  0.3114
  189DOPC  H17X23377   3.894   7.608  14.443 -0.9281  1.4064  0.5445
  189DOPC  H17Y23378   3.804   7.586  14.596  0.0516  1.1094  0.0978
  189DOPC  C31823379   3.976   7.698  14.626  0.4343  0.7545 -0.9139
  189DOPC  H18X23380   3.957   7.690  14.735  0.5724 -1.3476 -1.0029
  189DOPC  H18Y23381   4.087   7.696  14.627  0.4565 -0.7767  1.7395
  189DOPC  H18Z23382   3.941   7.797  14.589 -2.7246  0.6986  1.5662
  190DOPC     N23383   2.723   7.253  12.510  0.2885  0.0070  0.0144
  190DOPC   C1223384   2.683   7.332  12.634  0.2322  0.9518 -0.2353
  190DOPC  H12A23385   2.576   7.337  12.642  0.1725  0.6444 -0.8312
  190DOPC  H12B23386   2.715   7.434  12.620  2.2090  0.4356  0.1654
  190DOPC   C1323387   2.871   7.245  12.515  1.0213 -0.5473 -0.7937
  190DOPC  H13A23388   2.901   7.349  12.516 -1.3920  0.2713 -2.5427
  190DOPC  H13B23389   2.903   7.194  12.604  1.8679  0.9445 -0.2206
  190DOPC  H13C23390   2.915   7.194  12.431  0.1863 -2.4013 -0.1788
  190DOPC   C1423391   2.678   7.314  12.383  0.5613 -0.3959 -0.2293
  190DOPC  H14A23392   2.571   7.306  12.375  0.3646  0.2881  1.3419
  190DOPC  H14B23393   2.699   7.420  12.375 -0.4102 -0.2260 -0.6551
  190DOPC  H14C23394   2.722   7.270  12.294 -1.3192  0.8950 -1.8860
  190DOPC   C1523395   2.672   7.115  12.523 -0.1668 -0.2968 -0.1638
  190DOPC  H15A23396   2.702   7.061  12.434 -1.3065  0.8035 -1.2585
  190DOPC  H15B23397   2.564   7.114  12.531 -0.1504  1.0005  0.3976
  190DOPC  H15C23398   2.699   7.047  12.603 -0.4905  0.1556  0.3338
  190DOPC   C1123399   2.717   7.279  12.778 -0.8039  0.3156  0.4506
  190DOPC  H11A23400   2.828   7.277  12.777 -0.7775  1.2157  0.8311
  190DOPC  H11B23401   2.699   7.353  12.858 -0.3610  1.6730 -0.6661
  190DOPC     P23402   2.750   7.042  12.869 -0.4084 -0.3591  0.5414
  190DOPC   O1323403   2.825   6.973  12.760 -0.1008 -0.4403 -0.5566
  190DOPC   O1423404   2.673   6.952  12.956  0.1707 -0.2683  0.2547
  190DOPC   O1223405   2.655   7.152  12.806 -0.0108  0.5944 -0.1178
  190DOPC   O1123406   2.850   7.130  12.953 -0.1856 -0.7391 -0.0332
  190DOPC    C123407   2.821   7.170  13.088  0.0559  0.2056  0.5147
  190DOPC    HA23408   2.891   7.107  13.147  1.1605 -0.6949 -1.6417
  190DOPC    HB23409   2.716   7.161  13.124  0.6168  0.9409  2.4232
  190DOPC    C223410   2.878   7.319  13.107  0.0130  0.2736 -0.2535
  190DOPC    HS23411   2.829   7.385  13.032  0.9483  0.8566 -0.3613
  190DOPC   O2123412   3.020   7.308  13.076 -0.0327 -0.2429 -0.5963
  190DOPC   C2123413   3.074   7.421  13.020 -0.2497 -0.6763  0.7961
  190DOPC   O2223414   3.002   7.514  12.984  0.1624 -0.1345  0.4155
  190DOPC   C2223415   3.226   7.419  13.014 -0.9529 -1.2532 -0.0488
  190DOPC   H2R23416   3.270   7.430  12.912  0.7460 -0.0726  0.7750
  190DOPC   H2S23417   3.247   7.318  13.055 -0.5357 -0.4464  1.8316
  190DOPC    C323418   2.867   7.361  13.254 -0.1234  0.4340  0.5401
  190DOPC    HX23419   2.903   7.466  13.260  0.9217  0.0664  0.9475
  190DOPC    HY23420   2.934   7.295  13.314 -1.3723 -1.8280 -0.4073
  190DOPC   O3123421   2.735   7.349  13.301 -0.5303  0.5824 -0.0421
  190DOPC   C3123422   2.648   7.451  13.278 -0.1151  0.2592 -0.0430
  190DOPC   O3223423   2.666   7.545  13.202 -0.4300 -0.1489  0.0998
  190DOPC   C3223424   2.510   7.409  13.338 -0.5473 -1.1241 -0.4275
  190DOPC   H2X23425   2.448   7.371  13.255 -0.3806  0.2980 -1.2498
  190DOPC   H2Y23426   2.520   7.329  13.414 -0.6493 -1.2786 -0.5763
  190DOPC   C2323427   3.283   7.541  13.093  0.0668 -0.0825  0.8651
  190DOPC   H3R23428   3.241   7.635  13.051 -0.3589 -1.4407 -2.0095
  190DOPC   H3S23429   3.394   7.541  13.086  0.1078 -1.6458  1.2167
  190DOPC   C2423430   3.252   7.533  13.240  0.8275  0.1732  0.1111
  190DOPC   H4R23431   3.281   7.435  13.284  0.8060  0.6320  1.1782
  190DOPC   H4S23432   3.144   7.534  13.264  1.0462 -1.7305  1.4153
  190DOPC   C2523433   3.316   7.655  13.311  0.0881  0.1124  0.5342
  190DOPC   H5R23434   3.319   7.739  13.239 -0.4178 -0.0767  0.2889
  190DOPC   H5S23435   3.423   7.635  13.334  0.7785 -1.6145 -3.4165
  190DOPC   C2623436   3.241   7.705  13.435  0.5101 -0.0882 -0.3194
  190DOPC   H6R23437   3.235   7.621  13.508  0.1900 -1.0847 -1.4533
  190DOPC   H6S23438   3.135   7.718  13.404  0.0464 -0.4153  1.0396
  190DOPC   C2723439   3.294   7.843  13.492 -0.7258 -0.0875 -0.9796
  190DOPC   H7R23440   3.275   7.925  13.419 -0.4394  0.3477 -0.5744
  190DOPC   H7S23441   3.402   7.834  13.515 -1.0417 -0.6305  0.4316
  190DOPC   C2823442   3.247   7.877  13.632  0.5613  0.0709 -0.4377
  190DOPC   H8R23443   3.261   7.788  13.697  0.3414  0.0356 -0.4367
  190DOPC   H8S23444   3.136   7.876  13.634  0.5349  1.0880 -1.0307
  190DOPC   C2923445   3.322   7.997  13.683 -0.2994 -0.1736  0.5745
  190DOPC   H9R23446   3.346   8.077  13.611 -3.0043  0.5281  0.3363
  190DOPC  C21023447   3.361   8.023  13.812  0.1115  0.1403 -0.5893
  190DOPC  H10R23448   3.426   8.104  13.847 -0.4785 -0.8020  3.1135
  190DOPC  C21123449   3.322   7.937  13.930 -0.2492 -0.7110  0.2239
  190DOPC  H11R23450   3.294   7.835  13.897  1.4147 -0.9096 -0.7068
  190DOPC  H11S23451   3.229   7.974  13.978 -0.2014 -0.2903  0.0008
  190DOPC  C21223452   3.433   7.921  14.030 -0.6456  0.5332  0.3794
  190DOPC  H12R23453   3.417   7.832  14.094 -1.3285 -0.0902 -0.6141
  190DOPC  H12S23454   3.440   8.011  14.095 -1.0469  0.2200  0.8651
  190DOPC  C21323455   3.570   7.898  13.956  0.4542  0.0892 -1.2210
  190DOPC  H13R23456   3.604   8.000  13.927 -1.0843  0.1927 -2.8310
  190DOPC  H13S23457   3.550   7.836  13.866 -0.9504 -3.4791  1.3252
  190DOPC  C21423458   3.675   7.834  14.049 -0.9467 -0.5110 -0.4543
  190DOPC  H14R23459   3.765   7.836  13.984 -0.6621  0.6584 -0.0550
  190DOPC  H14S23460   3.656   7.732  14.089  2.0100 -1.2255 -0.6337
  190DOPC  C21523461   3.707   7.926  14.164 -0.1467  0.1372  0.2342
  190DOPC  H15R23462   3.619   7.928  14.232  0.7601  0.5380  1.4424
  190DOPC  H15S23463   3.712   8.033  14.133  1.4591  1.0186  3.1612
  190DOPC  C21623464   3.833   7.879  14.243 -0.2153  0.3593 -0.0807
  190DOPC  H16R23465   3.930   7.863  14.191  0.1439  2.1262 -0.0383
  190DOPC  H16S23466   3.799   7.776  14.264  1.4823 -1.3667 -4.4411
  190DOPC  C21723467   3.854   7.955  14.377  0.1238 -0.1892 -0.4269
  190DOPC  H17R23468   3.946   7.916  14.425 -0.2504  1.1596  1.4937
  190DOPC  H17S23469   3.768   7.939  14.445  0.9446  2.5630  1.4133
  190DOPC  C21823470   3.877   8.102  14.364  0.0869 -0.0257  0.0594
  190DOPC  H18R23471   3.799   8.151  14.300 -1.0960  0.1643  1.5974
  190DOPC  H18S23472   3.979   8.121  14.324  0.5834 -0.6381  1.0235
  190DOPC  H18T23473   3.892   8.149  14.463  0.4749  0.4613 -0.2214
  190DOPC   C3323474   2.452   7.535  13.416  0.8589  0.2612  0.0808
  190DOPC   H3X23475   2.438   7.628  13.357  0.9823 -0.2405 -0.7618
  190DOPC   H3Y23476   2.510   7.574  13.503 -0.7789  2.3947  0.3089
  190DOPC   C3423477   2.309   7.500  13.465  0.2786 -0.3598 -0.0494
  190DOPC   H4X23478   2.265   7.423  13.397  0.9298 -2.6123  1.9352
  190DOPC   H4Y23479   2.237   7.585  13.464 -0.7516 -1.1385  2.3325
  190DOPC   C3523480   2.308   7.442  13.603  0.5258  0.0003 -0.8266
  190DOPC   H5X23481   2.384   7.361  13.597 -0.0212 -0.4757 -1.4984
  190DOPC   H5Y23482   2.208   7.397  13.617 -0.1856  1.6074 -0.4934
  190DOPC   C3623483   2.309   7.543  13.716 -0.1622  0.7313  0.0332
  190DOPC   H6X23484   2.413   7.583  13.714 -0.5323  1.7152  0.0889
  190DOPC   H6Y23485   2.247   7.629  13.686 -1.1650 -0.1425 -0.4697
  190DOPC   C3723486   2.259   7.503  13.858  0.0337 -0.1129  0.3331
  190DOPC   H7X23487   2.236   7.592  13.921  0.0073  1.7752 -2.1470
  190DOPC   H7Y23488   2.164   7.448  13.841 -0.4419 -0.5227  3.6456
  190DOPC   C3823489   2.355   7.415  13.940  0.2420  0.5934 -0.6942
  190DOPC   H8X23490   2.312   7.401  14.042  0.1858  1.2103 -0.6300
  190DOPC   H8Y23491   2.441   7.484  13.952  0.4280  0.7421 -2.6115
  190DOPC   C3923492   2.398   7.285  13.872  0.5787  0.0926  0.4625
  190DOPC   H9X23493   2.470   7.295  13.790 -1.0010 -0.5597 -1.0442
  190DOPC  C31023494   2.339   7.166  13.902 -0.6256 -0.1047  0.1268
  190DOPC  H10X23495   2.361   7.074  13.846 -0.3570 -0.4943  0.8556
  190DOPC  C31123496   2.223   7.141  13.997  0.0102  0.0293 -0.0437
  190DOPC  H11X23497   2.136   7.100  13.943  1.1413  0.0425 -1.9577
  190DOPC  H11Y23498   2.170   7.227  14.043  0.1422 -0.2278  0.6062
  190DOPC  C31223499   2.263   7.039  14.107  0.7673 -0.0149 -0.2650
  190DOPC  H12X23500   2.294   6.939  14.069  3.9220 -0.3301  2.6905
  190DOPC  H12Y23501   2.175   7.011  14.170  0.8674 -2.4376 -1.0819
  190DOPC  C31323502   2.376   7.095  14.199 -0.5289 -0.1784 -0.0019
  190DOPC  H13X23503   2.444   7.133  14.121 -1.4531  2.7180  0.4750
  190DOPC  H13Y23504   2.334   7.176  14.263 -0.8656 -0.2689 -0.1037
  190DOPC  C31423505   2.428   6.995  14.304 -0.1895 -0.0449 -0.4693
  190DOPC  H14X23506   2.449   6.901  14.248  2.3519  1.6631 -2.6302
  190DOPC  H14Y23507   2.523   7.028  14.353 -0.5097  0.3577 -0.1087
  190DOPC  C31523508   2.320   6.960  14.417  0.0824 -0.9883 -0.2434
  190DOPC  H15X23509   2.240   6.903  14.365 -0.3032 -0.1787 -0.5637
  190DOPC  H15Y23510   2.260   7.047  14.450 -2.2467 -2.5012 -0.2867
  190DOPC  C31623511   2.380   6.871  14.526  0.3727  0.1084  0.2067
  190DOPC  H16X23512   2.433   6.781  14.487  0.3770  0.9728 -1.9338
  190DOPC  H16Y23513   2.449   6.937  14.582  0.4124  2.2911 -2.2099
  190DOPC  C31723514   2.276   6.820  14.624 -0.6794 -0.1594 -0.8497
  190DOPC  H17X23515   2.204   6.749  14.579 -1.0100 -2.1373  2.4582
  190DOPC  H17Y23516   2.334   6.748  14.685 -0.7340  0.6206  0.1452
  190DOPC  C31823517   2.210   6.930  14.703 -0.1551 -0.5465  0.4493
  190DOPC  H18X23518   2.274   7.002  14.759  0.0771  1.2580 -2.0145
  190DOPC  H18Y23519   2.148   6.999  14.641  1.5825  1.1193  0.4837
  190DOPC  H18Z23520   2.137   6.883  14.773 -0.5746  0.3816  0.6572
  191DOPC     N23521   5.953   0.107  13.057 -0.7095  0.3624 -0.3652
  191DOPC   C1223522   5.965   0.063  13.199  0.2878  0.7705  0.3515
  191DOPC  H12A23523   5.919   0.146  13.250 -0.2742  0.9403 -0.4196
  191DOPC  H12B23524   6.070   0.060  13.224  0.3146  1.5184  0.3554
  191DOPC   C1323525   5.822   0.096  13.007 -0.2171 -0.0905 -0.1052
  191DOPC  H13A23526   5.749   0.156  13.061  1.0022  2.1782 -0.8516
  191DOPC  H13B23527   5.821   0.121  12.902 -0.5849 -0.7940 -0.2741
  191DOPC  H13C23528   5.781  -0.002  13.026 -4.6909  1.2698 -1.4511
  191DOPC   C1423529   6.041   0.016  12.972  0.0227  0.3617  0.3301
  191DOPC  H14A23530   6.145   0.039  12.988  0.5837 -1.4404 -0.4660
  191DOPC  H14B23531   6.037  -0.083  13.015 -0.4392  0.1931 -0.0958
  191DOPC  H14C23532   6.024   0.020  12.866  2.2194  1.2830 -0.0505
  191DOPC   C1523533   5.997   0.249  13.047 -0.2358  0.4657 -0.6534
  191DOPC  H15A23534   5.937   0.299  13.122 -0.5449 -1.3035  0.3330
  191DOPC  H15B23535   5.981   0.302  12.954  0.5049 -2.2875 -2.4515
  191DOPC  H15C23536   6.101   0.251  13.079  0.5044 -0.8823 -2.8028
  191DOPC   C1123537   5.905  -0.074  13.240  0.4427  0.1968 -0.1826
  191DOPC  H11A23538   5.886  -0.065  13.349  0.6161  0.9803 -0.2114
  191DOPC  H11B23539   5.810  -0.093  13.187  0.4027  3.0058 -1.3225
  191DOPC     P23540   6.119  -0.212  13.292  0.0150 -0.2304 -0.0522
  191DOPC   O1323541   6.192  -0.084  13.315  0.1229 -0.2781 -0.3582
  191DOPC   O1423542   6.205  -0.319  13.233  0.1739  0.1933 -0.3344
  191DOPC   O1223543   5.991  -0.179  13.202  0.1557  0.0829 -0.0461
  191DOPC   O1123544   6.049  -0.267  13.415 -0.2179 -0.5096 -0.1158
  191DOPC    C123545   5.929  -0.350  13.406 -0.3396 -0.6961  0.7638
  191DOPC    HA23546   5.937  -0.449  13.355  0.6234  0.6890 -1.9884
  191DOPC    HB23547   5.844  -0.293  13.363 -0.0287 -0.6359  0.2216
  191DOPC    C223548   5.868  -0.386  13.542 -0.3926 -0.7405 -0.3260
  191DOPC    HS23549   5.766  -0.429  13.539 -1.0384  0.4382  1.8816
  191DOPC   O2123550   5.869  -0.267  13.625 -0.3808 -0.6185  0.2329
  191DOPC   C2123551   5.777  -0.173  13.596 -0.8383  0.1509 -0.2139
  191DOPC   O2223552   5.681  -0.188  13.522 -0.1303  0.4154  0.5037
  191DOPC   C2223553   5.828  -0.035  13.648  0.4637  0.6060  0.3649
  191DOPC   H2R23554   5.831   0.020  13.551 -2.8665 -1.6044 -1.1700
  191DOPC   H2S23555   5.918  -0.053  13.709  0.4644  0.0316  0.1918
  191DOPC    C323556   5.953  -0.499  13.612 -0.2651  0.2051  0.2223
  191DOPC    HX23557   6.055  -0.456  13.610 -0.6263  1.1516  1.2991
  191DOPC    HY23558   5.957  -0.594  13.555 -1.9356  1.4110 -2.0862
  191DOPC   O3123559   5.911  -0.524  13.746  0.7067  0.2224 -0.2267
  191DOPC   C3123560   5.991  -0.480  13.840 -0.7550 -0.3986  0.4833
  191DOPC   O3223561   6.088  -0.410  13.831 -0.1959  0.7172  0.3413
  191DOPC   C3223562   5.930  -0.514  13.980  0.2321  0.5188  0.1282
  191DOPC   H2X23563   5.835  -0.571  13.970  1.2141 -1.5538  1.8474
  191DOPC   H2Y23564   5.995  -0.583  14.037  0.7804 -0.8367 -1.9900
  191DOPC   C2323565   5.715   0.022  13.747 -0.7209  0.0772  0.2012
  191DOPC   H3R23566   5.625  -0.040  13.727 -0.2511 -0.2168 -1.1216
  191DOPC   H3S23567   5.696   0.128  13.719  1.8503  0.8915  1.2413
  191DOPC   C2423568   5.772   0.019  13.885 -0.3771  0.5302 -0.4698
  191DOPC   H4R23569   5.851   0.097  13.881  1.3865 -1.2144 -1.3722
  191DOPC   H4S23570   5.823  -0.077  13.907  0.5233  1.1579  0.2455
  191DOPC   C2523571   5.672   0.053  13.996 -0.0255  0.1348  0.1051
  191DOPC   H5R23572   5.613   0.143  13.968  0.7889  0.6482  0.0111
  191DOPC   H5S23573   5.732   0.076  14.086  2.6856 -1.1143 -1.2727
  191DOPC   C2623574   5.574  -0.066  14.026 -0.1118  0.4025 -0.5671
  191DOPC   H6R23575   5.627  -0.142  14.088 -1.6010 -0.6199 -0.4797
  191DOPC   H6S23576   5.546  -0.112  13.929  1.4874 -2.0618  0.0388
  191DOPC   C2723577   5.451  -0.020  14.103 -0.6319  0.1484  1.1253
  191DOPC   H7R23578   5.378  -0.103  14.116  0.1732 -0.7602  0.0924
  191DOPC   H7S23579   5.406   0.055  14.036 -1.4695 -0.1558  1.3358
  191DOPC   C2823580   5.482   0.039  14.241 -0.3651 -0.2944 -0.0289
  191DOPC   H8R23581   5.561   0.111  14.212  0.3699 -1.4186 -0.8819
  191DOPC   H8S23582   5.531  -0.031  14.312  1.5130 -1.5624 -2.4517
  191DOPC   C2923583   5.370   0.118  14.302  0.6183 -0.2463 -0.1537
  191DOPC   H9R23584   5.343   0.200  14.234  0.8395 -2.0320 -2.5294
  191DOPC  C21023585   5.294   0.096  14.412  0.4329  0.2262 -0.4699
  191DOPC  H10R23586   5.218   0.166  14.449  0.7648 -0.0251  0.7500
  191DOPC  C21123587   5.312  -0.017  14.516  0.2821  0.4245  0.7120
  191DOPC  H11R23588   5.278   0.018  14.616  2.6832 -0.7943  2.0553
  191DOPC  H11S23589   5.417  -0.051  14.530 -0.6313 -2.0243  2.1381
  191DOPC  C21223590   5.246  -0.149  14.468  0.5182  0.0961 -0.1983
  191DOPC  H12R23591   5.309  -0.208  14.398  3.4824  0.4752  1.9750
  191DOPC  H12S23592   5.157  -0.123  14.407 -1.7433 -1.7662  2.0233
  191DOPC  C21323593   5.197  -0.239  14.581 -0.4202  0.2068  0.0804
  191DOPC  H13R23594   5.138  -0.318  14.528 -1.2257  0.3380  0.7636
  191DOPC  H13S23595   5.137  -0.174  14.648 -2.3202 -2.4754  1.1843
  191DOPC  C21423596   5.310  -0.310  14.664 -0.3938 -0.2432 -0.4180
  191DOPC  H14R23597   5.369  -0.232  14.717 -0.6322 -0.7549  0.6348
  191DOPC  H14S23598   5.380  -0.354  14.591  0.2544  0.5185 -0.2635
  191DOPC  C21523599   5.267  -0.430  14.752  0.5206 -0.8963  0.1246
  191DOPC  H15R23600   5.222  -0.509  14.688 -1.9058 -0.6051  1.3694
  191DOPC  H15S23601   5.186  -0.399  14.822  0.1931  1.3085 -1.1191
  191DOPC  C21623602   5.382  -0.490  14.840  0.2891  1.1117 -0.4592
  191DOPC  H16R23603   5.407  -0.410  14.913 -0.1411  0.8410 -0.0101
  191DOPC  H16S23604   5.469  -0.503  14.773 -0.6413  1.0712 -1.6972
  191DOPC  C21723605   5.354  -0.627  14.914  0.9128 -0.9069 -0.2745
  191DOPC  H17R23606   5.439  -0.651  14.981 -0.1874  0.7165  1.8318
  191DOPC  H17S23607   5.363  -0.699  14.830 -2.6065 -0.3764 -1.2907
  191DOPC  C21823608   5.218  -0.634  14.983  0.1269  0.0837 -0.0703
  191DOPC  H18R23609   5.215  -0.729  15.041  2.3948  0.2244  0.3496
  191DOPC  H18S23610   5.145  -0.642  14.900  1.9986 -1.0489 -1.7116
  191DOPC  H18T23611   5.204  -0.550  15.054  2.4063 -1.8289  2.8668
  191DOPC   C3323612   5.911  -0.391  14.073  0.3186  0.4457  0.2563
  191DOPC   H3X23613   5.860  -0.307  14.021  0.6316  0.3001 -0.2934
  191DOPC   H3Y23614   6.010  -0.361  14.112  1.0595 -1.8381  0.2432
  191DOPC   C3423615   5.824  -0.427  14.195 -0.1150 -0.0233  0.2633
  191DOPC   H4X23616   5.858  -0.525  14.234  1.3335  0.7862  1.1397
  191DOPC   H4Y23617   5.717  -0.446  14.174  0.0732 -1.5419  0.5405
  191DOPC   C3523618   5.826  -0.325  14.309 -0.0530  0.0228 -0.1608
  191DOPC   H5X23619   5.760  -0.238  14.292 -0.5491  0.0677  1.7707
  191DOPC   H5Y23620   5.931  -0.290  14.325 -0.1513 -0.0460  0.6993
  191DOPC   C3623621   5.772  -0.393  14.443 -0.1141 -0.7228  0.6091
  191DOPC   H6X23622   5.678  -0.447  14.418 -1.1430  2.2310 -2.5149
  191DOPC   H6Y23623   5.836  -0.473  14.486 -0.3088 -1.4449 -0.4155
  191DOPC   C3723624   5.746  -0.288  14.553 -0.0914  0.6525  0.0169
  191DOPC   H7X23625   5.834  -0.221  14.560  1.1745 -0.8798 -0.4934
  191DOPC   H7Y23626   5.662  -0.219  14.531  0.4759  1.1833 -0.5662
  191DOPC   C3823627   5.725  -0.361  14.695 -0.6434 -0.8820  0.4844
  191DOPC   H8X23628   5.642  -0.434  14.680  1.2781 -2.8044 -1.6680
  191DOPC   H8Y23629   5.686  -0.287  14.768  2.0384  1.7919 -0.5861
  191DOPC   C3923630   5.862  -0.408  14.747  0.5256 -0.0328 -1.0720
  191DOPC   H9X23631   5.892  -0.506  14.708  1.7948 -0.8429  1.6844
  191DOPC  C31023632   5.955  -0.338  14.809 -0.1731 -0.2956  0.3839
  191DOPC  H10X23633   6.050  -0.392  14.822  1.1797  1.7976 -0.3178
  191DOPC  C31123634   5.955  -0.195  14.865 -0.6230 -0.0991 -0.0011
  191DOPC  H11X23635   5.855  -0.150  14.885  0.2599  2.9289 -1.8982
  191DOPC  H11Y23636   6.005  -0.135  14.786 -1.7906  0.8359 -0.0499
  191DOPC  C31223637   6.028  -0.192  15.003 -0.2093 -0.4191  0.0521
  191DOPC  H12X23638   6.038  -0.088  15.039 -4.6476 -0.5857  2.4091
  191DOPC  H12Y23639   6.130  -0.234  14.994  0.1380  0.0992  1.3612
  191DOPC  C31323640   5.955  -0.268  15.111 -0.3588  0.1425 -0.0976
  191DOPC  H13X23641   5.934  -0.373  15.082 -0.9372  0.2005  0.1044
  191DOPC  H13Y23642   6.032  -0.284  15.190 -0.3835 -0.9718 -0.2817
  191DOPC  C31423643   5.831  -0.197  15.169  0.0887  0.0588  0.1940
  191DOPC  H14X23644   5.822  -0.096  15.122 -2.1308  0.2759  0.9529
  191DOPC  H14Y23645   5.743  -0.257  15.137 -0.4519 -0.2509  2.1420
  191DOPC  C31523646   5.819  -0.199  15.319  0.0892 -0.5125 -0.4019
  191DOPC  H15X23647   5.898  -0.135  15.364  0.1343 -0.7745 -0.0982
  191DOPC  H15Y23648   5.848  -0.300  15.356  0.0655 -0.3302  0.1258
  191DOPC  C31623649   5.679  -0.156  15.366  0.1073 -0.5004 -0.2979
  191DOPC  H16X23650   5.673  -0.046  15.369 -2.0368 -0.5962  0.5895
  191DOPC  H16Y23651   5.599  -0.186  15.295  1.5666  0.7756 -2.5691
  191DOPC  C31723652   5.646  -0.190  15.516  0.2234 -0.7026 -0.5390
  191DOPC  H17X23653   5.633  -0.300  15.518  0.5651 -0.7977 -2.3488
  191DOPC  H17Y23654   5.735  -0.158  15.575  0.1045 -0.3904 -0.5248
  191DOPC  C31823655   5.518  -0.120  15.560 -0.0722  0.2149 -0.4460
  191DOPC  H18X23656   5.518  -0.012  15.534 -1.6003  0.3269 -0.0912
  191DOPC  H18Y23657   5.436  -0.163  15.499 -0.8173  0.1411  0.5725
  191DOPC  H18Z23658   5.491  -0.141  15.666 -0.7639  1.1454 -0.4282
  192DOPC     N23659   0.221   5.146  12.992 -0.4598 -0.2763  0.1431
  192DOPC   C1223660   0.179   5.204  13.121 -0.1675  0.2308 -0.1554
  192DOPC  H12A23661   0.136   5.126  13.182  1.0414  1.0750  1.8615
  192DOPC  H12B23662   0.098   5.275  13.108  0.7996  1.3095 -0.5020
  192DOPC   C1323663   0.303   5.250  12.917 -0.6481  0.1372  0.6884
  192DOPC  H13A23664   0.375   5.205  12.851  1.6853  0.7361  2.7049
  192DOPC  H13B23665   0.247   5.315  12.851  0.5371 -0.1460 -0.6559
  192DOPC  H13C23666   0.362   5.310  12.984  1.9855  1.8856 -2.8896
  192DOPC   C1423667   0.098   5.117  12.917 -0.6642 -0.1767  0.1081
  192DOPC  H14A23668   0.136   5.088  12.820  1.1938 -0.4376  0.8885
  192DOPC  H14B23669   0.034   5.040  12.956  0.3398 -1.2058 -0.2141
  192DOPC  H14C23670   0.041   5.204  12.887  0.2545 -0.3676 -2.4572
  192DOPC   C1523671   0.315   5.023  13.003  0.2272  0.3116 -0.3139
  192DOPC  H15A23672   0.337   4.965  12.915  3.7983 -0.1818  0.7529
  192DOPC  H15B23673   0.264   4.953  13.068 -1.6436  0.0126 -1.9877
  192DOPC  H15C23674   0.415   5.047  13.033  1.3487 -1.0615 -2.6560
  192DOPC   C1123675   0.284   5.266  13.218 -0.1562  0.1443 -0.5132
  192DOPC  H11A23676   0.244   5.265  13.321 -0.1299 -0.4799 -0.5066
  192DOPC  H11B23677   0.368   5.194  13.221 -0.6469 -0.4660 -1.2948
  192DOPC     P23678   0.271   5.526  13.216  0.3206  0.3793  0.6985
  192DOPC   O1323679   0.147   5.546  13.137  0.1030  0.2005 -0.5338
  192DOPC   O1423680   0.369   5.635  13.214 -0.7621  0.0052  0.1699
  192DOPC   O1223681   0.341   5.391  13.178 -0.2938  0.5401 -0.3269
  192DOPC   O1123682   0.220   5.488  13.360  0.4526 -0.5520 -0.1606
  192DOPC    C123683   0.173   5.594  13.446 -1.0094  0.4347 -0.4446
  192DOPC    HA23684   0.067   5.612  13.417 -0.6248  1.0624 -1.5051
  192DOPC    HB23685   0.235   5.683  13.422 -0.7358 -0.4578 -3.3502
  192DOPC    C223686   0.179   5.562  13.599 -0.0157 -0.4761 -0.5736
  192DOPC    HS23687   0.095   5.612  13.651  0.3958 -0.2521 -0.1104
  192DOPC   O2123688   0.304   5.611  13.653  0.2202  0.1609  0.3468
  192DOPC   C2123689   0.304   5.742  13.686 -0.4885 -0.3965  0.5321
  192DOPC   O2223690   0.209   5.815  13.661  0.0021 -0.5336  0.0644
  192DOPC   C2223691   0.440   5.794  13.745  0.5800  0.6322 -0.4100
  192DOPC   H2R23692   0.416   5.830  13.847 -1.5896  1.3019 -1.1146
  192DOPC   H2S23693   0.477   5.882  13.688  0.5008 -0.0482 -1.5439
  192DOPC    C323694   0.160   5.415  13.628 -0.1644  0.1069 -0.5772
  192DOPC    HX23695   0.227   5.344  13.575 -2.3335 -1.8029 -0.9230
  192DOPC    HY23696   0.057   5.393  13.595 -0.7762  0.0649  1.2289
  192DOPC   O3123697   0.169   5.390  13.766 -0.4957 -0.0865  0.1613
  192DOPC   C3123698   0.287   5.387  13.825 -0.2242 -0.3766  0.6969
  192DOPC   O3223699   0.395   5.376  13.770  0.0498 -0.1273  1.0430
  192DOPC   C3223700   0.264   5.381  13.977 -0.0300 -0.1490  0.2167
  192DOPC   H2X23701   0.230   5.484  14.000 -1.5875 -1.0734  2.3864
  192DOPC   H2Y23702   0.176   5.317  14.002  0.3297 -0.8341 -0.2647
  192DOPC   C2323703   0.547   5.680  13.751  0.1831  0.2397  0.6941
  192DOPC   H3R23704   0.560   5.625  13.656 -3.1187 -0.4589  0.5573
  192DOPC   H3S23705   0.506   5.597  13.813 -1.6197  0.4851 -0.1136
  192DOPC   C2423706   0.683   5.709  13.803  0.4994  0.0663 -0.4330
  192DOPC   H4R23707   0.751   5.771  13.742 -2.0920  3.0476 -0.5021
  192DOPC   H4S23708   0.733   5.610  13.815  0.2457  0.0410  0.5039
  192DOPC   C2523709   0.683   5.789  13.935  0.2848 -0.6647 -0.3500
  192DOPC   H5R23710   0.621   5.740  14.014  2.3845 -0.2899  1.6374
  192DOPC   H5S23711   0.653   5.896  13.930  0.9043 -0.3711  1.3784
  192DOPC   C2623712   0.823   5.799  13.999  0.1263  0.3117 -0.0510
  192DOPC   H6R23713   0.887   5.755  13.918 -2.2184  1.7344 -2.8668
  192DOPC   H6S23714   0.824   5.736  14.090 -1.9030  0.6723  0.2599
  192DOPC   C2723715   0.876   5.938  14.037 -0.2340  0.1411 -0.3695
  192DOPC   H7R23716   0.868   5.995  13.942 -2.3637 -0.2059 -0.4408
  192DOPC   H7S23717   0.983   5.927  14.066 -0.1388 -0.2699 -0.8474
  192DOPC   C2823718   0.805   6.007  14.154 -0.4035 -0.1721  0.0253
  192DOPC   H8R23719   0.798   5.938  14.241  1.7201 -2.7631 -1.7005
  192DOPC   H8S23720   0.703   6.033  14.120 -0.9531 -1.9079  0.2445
  192DOPC   C2923721   0.877   6.131  14.205  0.3012 -0.0465  0.0853
  192DOPC   H9R23722   0.959   6.175  14.147  0.1861 -0.3362 -0.2990
  192DOPC  C21023723   0.853   6.206  14.314 -0.4477  0.2724 -1.4003
  192DOPC  H10R23724   0.910   6.299  14.326 -1.5827  1.1598 -2.5550
  192DOPC  C21123725   0.750   6.185  14.423 -0.0657 -0.1074 -0.3016
  192DOPC  H11R23726   0.683   6.098  14.404 -1.0153  0.2262  1.3275
  192DOPC  H11S23727   0.682   6.273  14.423  0.0053 -0.0401  0.5617
  192DOPC  C21223728   0.811   6.172  14.558 -1.4032  0.2868 -0.4562
  192DOPC  H12R23729   0.851   6.267  14.598  0.6906 -1.0566  0.8705
  192DOPC  H12S23730   0.891   6.095  14.567 -0.9150  0.7569 -0.7143
  192DOPC  C21323731   0.709   6.112  14.656 -0.0106 -0.2933 -0.1691
  192DOPC  H13R23732   0.681   6.018  14.604 -1.8113  1.3662 -2.4370
  192DOPC  H13S23733   0.621   6.180  14.664 -1.6975 -2.1754 -1.6230
  192DOPC  C21423734   0.768   6.104  14.800  0.0652  0.6408  0.0467
  192DOPC  H14R23735   0.878   6.109  14.806  0.0827  1.6817 -0.8953
  192DOPC  H14S23736   0.735   6.005  14.839 -1.4014  0.5713 -1.2476
  192DOPC  C21523737   0.704   6.216  14.883  0.3926 -0.5185 -0.0981
  192DOPC  H15R23738   0.604   6.251  14.847  0.4962 -0.1056  0.0072
  192DOPC  H15S23739   0.773   6.303  14.882  1.1518 -1.0879 -2.0894
  192DOPC  C21623740   0.667   6.177  15.019  0.3709  0.0525  0.1868
  192DOPC  H16R23741   0.735   6.099  15.059 -0.5897 -1.2241 -0.5619
  192DOPC  H16S23742   0.571   6.120  15.018  0.1405  0.4458 -0.6899
  192DOPC  C21723743   0.655   6.303  15.112 -0.0034 -0.4284  0.6555
  192DOPC  H17R23744   0.759   6.338  15.129  0.6485 -1.7428 -0.4120
  192DOPC  H17S23745   0.612   6.266  15.207  3.2635 -1.5634  1.8475
  192DOPC  C21823746   0.574   6.416  15.051  0.2349  0.5890 -0.0147
  192DOPC  H18R23747   0.628   6.469  14.970  0.2497  1.7073  0.7089
  192DOPC  H18S23748   0.541   6.489  15.128 -1.3247 -0.3300  0.2430
  192DOPC  H18T23749   0.490   6.369  14.995  0.4695 -0.9083  0.8270
  192DOPC   C3323750   0.383   5.328  14.055  0.0748 -0.2872 -0.7369
  192DOPC   H3X23751   0.464   5.293  13.987  0.7080 -0.1492 -0.0595
  192DOPC   H3Y23752   0.362   5.238  14.115 -2.2336  1.8832  1.9839
  192DOPC   C3423753   0.439   5.437  14.146  0.9379 -0.0394 -0.2283
  192DOPC   H4X23754   0.366   5.468  14.224 -0.4402 -0.3772 -1.3462
  192DOPC   H4Y23755   0.457   5.530  14.087 -3.3964  0.5904 -0.9248
  192DOPC   C3523756   0.572   5.401  14.204  0.2511  0.2342 -0.0222
  192DOPC   H5X23757   0.641   5.384  14.119  0.0954 -1.0236  0.0723
  192DOPC   H5Y23758   0.575   5.306  14.262 -1.5827  0.4312  0.4729
  192DOPC   C3623759   0.635   5.503  14.298 -0.0607 -0.0967  0.1756
  192DOPC   H6X23760   0.637   5.598  14.242  0.6135 -0.4312 -0.3816
  192DOPC   H6Y23761   0.568   5.518  14.386  0.6112  0.0907  0.6634
  192DOPC   C3723762   0.781   5.472  14.331  0.3039 -0.0490  0.1162
  192DOPC   H7X23763   0.777   5.363  14.355  0.7728 -0.4267 -1.4302
  192DOPC   H7Y23764   0.835   5.482  14.235  2.0737  3.2729  1.3174
  192DOPC   C3823765   0.844   5.549  14.450  0.2503  0.7178 -0.0006
  192DOPC   H8X23766   0.950   5.523  14.468 -0.2922 -0.2266  2.1089
  192DOPC   H8Y23767   0.789   5.513  14.539 -0.3702 -0.2564 -0.7519
  192DOPC   C3923768   0.833   5.704  14.438  0.4968 -0.0452 -0.3133
  192DOPC   H9X23769   0.741   5.742  14.392 -0.7641 -0.6899  1.5863
  192DOPC  C31023770   0.921   5.802  14.465  0.1382  0.8934  0.3903
  192DOPC  H10X23771   0.890   5.907  14.452  0.8342  1.0506 -0.0697
  192DOPC  C31123772   1.055   5.788  14.530  0.1119 -0.1062 -0.5409
  192DOPC  H11X23773   1.134   5.775  14.453  0.0864 -0.3193 -0.5304
  192DOPC  H11Y23774   1.055   5.694  14.588  1.9659 -0.1063 -0.4950
  192DOPC  C31223775   1.095   5.900  14.620 -0.4655 -0.4810  0.0723
  192DOPC  H12X23776   1.025   5.912  14.706  1.5470  0.7708  1.6502
  192DOPC  H12Y23777   1.093   5.997  14.565 -1.1939 -0.6626 -0.2222
  192DOPC  C31323778   1.232   5.874  14.704  0.0335  0.2766 -0.4155
  192DOPC  H13X23779   1.228   5.769  14.740  2.3242 -0.8186 -3.0057
  192DOPC  H13Y23780   1.320   5.888  14.638 -0.7807 -0.8883 -1.7843
  192DOPC  C31423781   1.238   5.964  14.830  0.9410 -0.1133  0.6289
  192DOPC  H14X23782   1.233   6.072  14.804  2.7725  0.2932  1.7251
  192DOPC  H14Y23783   1.153   5.937  14.897 -0.1585  0.1833 -0.6241
  192DOPC  C31523784   1.374   5.954  14.903  0.6059  0.5283  0.6174
  192DOPC  H15X23785   1.394   5.846  14.917  0.5880  0.5842  1.1085
  192DOPC  H15Y23786   1.362   6.010  14.998 -0.1970 -0.8316  1.3469
  192DOPC  C31623787   1.494   6.019  14.823 -0.0134  0.2306  0.3387
  192DOPC  H16X23788   1.501   5.978  14.720  1.4559  1.3504 -0.0437
  192DOPC  H16Y23789   1.471   6.124  14.794 -0.3713 -0.4234 -1.9290
  192DOPC  C31723790   1.631   5.997  14.879 -0.6536 -0.6062  0.9850
  192DOPC  H17X23791   1.624   6.034  14.983 -1.0205 -0.6890  0.9896
  192DOPC  H17Y23792   1.648   5.887  14.874  0.7711 -0.4816  2.2609
  192DOPC  C31823793   1.743   6.069  14.810 -0.6420  0.0884  0.2907
  192DOPC  H18X23794   1.838   6.039  14.858 -1.0042 -0.3710  0.7336
  192DOPC  H18Y23795   1.751   6.040  14.703 -0.9994 -1.6410  0.6919
  192DOPC  H18Z23796   1.728   6.178  14.823 -2.5923 -0.0034 -0.6717
  193DOPC     N23797   6.848   2.001  12.886 -0.6124  0.9429 -0.2245
  193DOPC   C1223798   6.888   1.969  13.032 -0.3015  0.5335  0.6906
  193DOPC  H12A23799   6.794   1.973  13.086 -0.7767 -0.9459  0.0373
  193DOPC  H12B23800   6.955   2.047  13.064  0.5062 -0.2862  1.0386
  193DOPC   C1323801   6.773   2.129  12.888 -0.2850 -0.1891  0.0551
  193DOPC  H13A23802   6.817   2.220  12.926 -1.4072  0.8785 -1.1028
  193DOPC  H13B23803   6.725   2.145  12.793 -1.1148 -2.3520  0.0615
  193DOPC  H13C23804   6.693   2.114  12.959 -1.8188  0.3059 -1.5050
  193DOPC   C1423805   6.765   1.890  12.835 -0.5055 -0.6226  0.1545
  193DOPC  H14A23806   6.821   1.799  12.851 -0.3020 -0.6347 -0.5587
  193DOPC  H14B23807   6.673   1.878  12.889 -1.1242 -0.0409 -0.7535
  193DOPC  H14C23808   6.751   1.893  12.728  1.9220  1.1903 -0.2019
  193DOPC   C1523809   6.961   2.029  12.783 -0.5216  0.1503 -0.2490
  193DOPC  H15A23810   7.021   2.113  12.815  0.5549 -1.2334  1.5914
  193DOPC  H15B23811   6.916   2.046  12.686  0.5510  0.4217 -0.7098
  193DOPC  H15C23812   7.024   1.941  12.785 -0.2307  0.2430 -2.7763
  193DOPC   C1123813   6.958   1.836  13.064 -0.2851  0.4150 -0.0650
  193DOPC  H11A23814   7.050   1.835  13.001  0.4260  0.4030  0.9461
  193DOPC  H11B23815   6.995   1.860  13.166  1.8711 -0.0370 -0.6893
  193DOPC     P23816   6.775   1.665  13.147  0.2668  0.0275 -0.2292
  193DOPC   O1323817   6.802   1.522  13.144  1.1244  0.4181  0.2004
  193DOPC   O1423818   6.633   1.703  13.113 -0.6953 -0.1957  0.0230
  193DOPC   O1223819   6.871   1.724  13.040 -0.1587 -0.1633  0.3023
  193DOPC   O1123820   6.802   1.727  13.288 -0.8542  0.2328  0.1807
  193DOPC    C123821   6.872   1.655  13.384 -0.4578 -0.0845 -0.4887
  193DOPC    HA23822   6.981   1.652  13.361  0.4156 -1.4099  3.1616
  193DOPC    HB23823   6.843   1.548  13.385  2.3475 -0.9207 -0.1277
  193DOPC    C223824   6.854   1.711  13.521  0.6509  0.5893 -0.2790
  193DOPC    HS23825   6.939   1.678  13.585  1.0395  2.1575  0.0511
  193DOPC   O2123826   6.729   1.679  13.575  0.0435 -0.1908 -0.2002
  193DOPC   C2123827   6.721   1.668  13.707  0.2883  0.5350 -0.2189
  193DOPC   O2223828   6.813   1.665  13.787  0.1965  0.1971  0.1919
  193DOPC   C2223829   6.569   1.660  13.737  0.7214  0.3026  0.6779
  193DOPC   H2R23830   6.525   1.583  13.670  0.3508  1.1369 -0.0585
  193DOPC   H2S23831   6.525   1.758  13.708 -1.6407 -0.8557  0.0875
  193DOPC    C323832   6.868   1.872  13.518 -0.2956 -0.4239 -0.3373
  193DOPC    HX23833   6.774   1.906  13.470 -0.8546 -1.8404 -0.2779
  193DOPC    HY23834   6.946   1.896  13.443 -0.6090 -1.5623 -1.0478
  193DOPC   O3123835   6.898   1.935  13.645  0.5309 -0.4068 -0.2610
  193DOPC   C3123836   7.028   1.949  13.680  0.1749 -0.1998 -0.2464
  193DOPC   O3223837   7.119   1.922  13.607 -0.9491 -0.1247  0.6527
  193DOPC   C3223838   7.016   2.036  13.808 -0.5024 -0.6959  0.5872
  193DOPC   H2X23839   6.944   2.115  13.778 -1.5250 -0.8072  2.5460
  193DOPC   H2Y23840   6.961   1.978  13.886  1.7129  0.3974  3.1255
  193DOPC   C2323841   6.546   1.621  13.880  0.7622  0.5084  0.1299
  193DOPC   H3R23842   6.619   1.669  13.949 -0.3635 -0.7473  2.3051
  193DOPC   H3S23843   6.562   1.513  13.900  2.2661  1.0118  1.9494
  193DOPC   C2423844   6.402   1.658  13.935 -0.7748 -0.2936 -0.7655
  193DOPC   H4R23845   6.324   1.612  13.870 -1.9405  1.7269 -0.9057
  193DOPC   H4S23846   6.388   1.768  13.945  2.3123  0.0589  0.9889
  193DOPC   C2523847   6.376   1.597  14.068 -0.0575  0.1210 -0.4916
  193DOPC   H5R23848   6.458   1.632  14.134 -0.4155  1.0489 -0.5304
  193DOPC   H5S23849   6.392   1.487  14.060 -2.4560 -0.4105  0.8471
  193DOPC   C2623850   6.240   1.638  14.123 -1.1497  0.1828  0.3321
  193DOPC   H6R23851   6.162   1.612  14.048  0.2923 -0.2131 -1.0869
  193DOPC   H6S23852   6.232   1.747  14.143  1.5232  0.1949  1.8113
  193DOPC   C2723853   6.206   1.570  14.258  0.4060 -0.4887 -0.2081
  193DOPC   H7R23854   6.271   1.620  14.332 -2.0581  0.3360  1.5399
  193DOPC   H7S23855   6.228   1.461  14.256 -1.1724 -0.8226 -0.9686
  193DOPC   C2823856   6.063   1.596  14.301  0.5455 -0.0726  0.0546
  193DOPC   H8R23857   6.048   1.706  14.289 -1.8002 -0.4753 -1.3486
  193DOPC   H8S23858   6.050   1.578  14.410  0.2020  0.2820  0.0765
  193DOPC   C2923859   5.955   1.519  14.230 -0.5349  0.0786 -0.4435
  193DOPC   H9R23860   5.980   1.470  14.134 -1.0504  0.0043 -0.5410
  193DOPC  C21023861   5.834   1.496  14.278  0.6703  0.0801 -0.0298
  193DOPC  H10R23862   5.769   1.423  14.228 -0.4019  0.8997  0.1284
  193DOPC  C21123863   5.782   1.555  14.408 -0.1507 -0.3805 -0.0626
  193DOPC  H11R23864   5.798   1.664  14.411 -0.6472 -0.3194  0.7262
  193DOPC  H11S23865   5.838   1.505  14.490 -0.2036 -2.5515 -1.2679
  193DOPC  C21223866   5.636   1.515  14.438  0.1423 -0.5243 -0.2808
  193DOPC  H12R23867   5.614   1.534  14.545 -0.5624 -3.0607  0.0898
  193DOPC  H12S23868   5.626   1.405  14.441 -0.2454 -0.4755  2.4396
  193DOPC  C21323869   5.539   1.601  14.355  0.0215  0.0855  0.7208
  193DOPC  H13R23870   5.562   1.580  14.248  1.4311 -1.5033  1.2908
  193DOPC  H13S23871   5.563   1.709  14.370 -0.3965  0.2941 -0.0491
  193DOPC  C21423872   5.395   1.572  14.385  0.1783  0.3795  0.1430
  193DOPC  H14R23873   5.389   1.575  14.496  0.7300  1.5420  0.1614
  193DOPC  H14S23874   5.378   1.466  14.355  1.9268  0.2234 -0.4515
  193DOPC  C21523875   5.297   1.676  14.334 -0.2158 -0.0238  0.8848
  193DOPC  H15R23876   5.302   1.687  14.223  0.5688 -2.5141  0.6059
  193DOPC  H15S23877   5.318   1.777  14.375 -0.5036  0.9527 -1.2408
  193DOPC  C21623878   5.144   1.659  14.378 -0.4031 -0.3149  0.7595
  193DOPC  H16R23879   5.147   1.653  14.489  1.2067 -0.0706  0.7543
  193DOPC  H16S23880   5.104   1.565  14.336  2.4286 -0.9944 -0.6528
  193DOPC  C21723881   5.051   1.774  14.327 -0.4867  0.1066  0.2656
  193DOPC  H17R23882   5.096   1.811  14.232 -2.7357  0.9011 -0.5802
  193DOPC  H17S23883   5.061   1.852  14.405 -0.8886 -0.2952  0.7277
  193DOPC  C21823884   4.908   1.739  14.309  0.0520 -0.1999 -0.0039
  193DOPC  H18R23885   4.850   1.825  14.271 -0.6080 -0.5272  0.2430
  193DOPC  H18S23886   4.871   1.690  14.401 -1.3485  1.4554  0.3580
  193DOPC  H18T23887   4.899   1.659  14.232  1.2820  0.4644 -0.8636
  193DOPC   C3323888   7.150   2.091  13.856  0.4344 -0.5735  0.6790
  193DOPC   H3X23889   7.217   2.103  13.768 -0.2343 -1.1259  0.0796
  193DOPC   H3Y23890   7.205   2.020  13.921  1.1998  0.0841  0.7592
  193DOPC   C3423891   7.135   2.214  13.938 -0.2207  0.0287 -0.3701
  193DOPC   H4X23892   7.237   2.236  13.975 -0.1208 -0.4318 -0.3668
  193DOPC   H4Y23893   7.088   2.189  14.036 -1.0121 -0.4445 -0.8489
  193DOPC   C3523894   7.093   2.343  13.872 -0.1650 -0.1646 -0.8538
  193DOPC   H5X23895   6.990   2.338  13.829  0.4277 -0.8640 -2.2690
  193DOPC   H5Y23896   7.158   2.341  13.782  0.0959  1.2801 -0.7229
  193DOPC   C3623897   7.126   2.469  13.954 -0.3696  0.5276 -0.0555
  193DOPC   H6X23898   7.223   2.463  14.008 -0.0191  0.9885 -0.6205
  193DOPC   H6Y23899   7.137   2.558  13.888  2.5358  0.7874  0.6052
  193DOPC   C3723900   7.018   2.503  14.058 -0.1574  0.6485 -0.1116
  193DOPC   H7X23901   6.975   2.600  14.025  1.5367  1.4167 -0.2146
  193DOPC   H7Y23902   6.946   2.419  14.059  0.8136 -0.2110 -0.1840
  193DOPC   C3823903   7.084   2.511  14.195  1.0032  0.6402  1.2762
  193DOPC   H8X23904   7.128   2.411  14.216  0.3405 -0.0090 -0.2709
  193DOPC   H8Y23905   7.003   2.519  14.271 -0.4520 -0.9143 -0.0225
  193DOPC   C3923906   7.181   2.624  14.219  0.4613  0.1878 -0.3200
  193DOPC   H9X23907   7.219   2.683  14.134 -0.2576  0.9082 -0.1474
  193DOPC  C31023908   7.213   2.669  14.341 -0.0931 -0.1565 -0.1643
  193DOPC  H10X23909   7.289   2.748  14.338  0.0876 -0.2842  0.7229
  193DOPC  C31123910   7.178   2.609  14.476 -0.3651 -0.7958  0.3111
  193DOPC  H11X23911   7.260   2.632  14.547  1.7777  0.4716 -2.4181
  193DOPC  H11Y23912   7.187   2.498  14.466  1.7966 -0.6203 -0.1634
  193DOPC  C31223913   7.043   2.656  14.533  0.1109 -0.0520  0.1079
  193DOPC  H12X23914   6.970   2.604  14.467  0.9791  0.1029 -1.0069
  193DOPC  H12Y23915   7.026   2.766  14.529  0.1608  0.0563  2.1067
  193DOPC  C31323916   7.023   2.607  14.676  0.4701 -0.4512 -0.3578
  193DOPC  H13X23917   7.043   2.498  14.675  0.3237 -0.4761 -1.2096
  193DOPC  H13Y23918   7.105   2.656  14.734  0.1170 -0.4685  0.1669
  193DOPC  C31423919   6.881   2.635  14.740 -0.0470  0.1193  0.0768
  193DOPC  H14X23920   6.858   2.743  14.726  0.3843  0.4916  1.9111
  193DOPC  H14Y23921   6.810   2.569  14.686  1.3262 -0.3541 -1.2009
  193DOPC  C31523922   6.869   2.612  14.888 -0.2554  0.1267 -0.3720
  193DOPC  H15X23923   6.932   2.679  14.950  0.8135  1.0233 -2.3361
  193DOPC  H15Y23924   6.903   2.507  14.900 -2.0736 -0.5477 -0.8024
  193DOPC  C31623925   6.725   2.628  14.936  0.4806 -0.3168  0.1894
  193DOPC  H16X23926   6.694   2.733  14.923 -0.5237 -0.4011  1.6746
  193DOPC  H16Y23927   6.652   2.578  14.870 -1.2212 -2.0122  3.1486
  193DOPC  C31723928   6.707   2.578  15.078 -0.3351  0.4838  0.4318
  193DOPC  H17X23929   6.720   2.468  15.081 -1.3262  0.3651  0.6292
  193DOPC  H17Y23930   6.787   2.627  15.138 -2.1089  0.8268  2.6968
  193DOPC  C31823931   6.582   2.616  15.149 -0.1867 -0.1851  0.2179
  193DOPC  H18X23932   6.575   2.725  15.168 -1.8611 -0.0659 -0.9218
  193DOPC  H18Y23933   6.492   2.575  15.099 -1.8312  0.7682  2.2528
  193DOPC  H18Z23934   6.582   2.572  15.251  1.0213 -0.5738  0.0694
  194DOPC     N23935   1.000   0.571  12.389 -0.6570 -0.3017 -0.6143
  194DOPC   C1223936   1.128   0.535  12.467  0.3395 -0.5601  0.2853
  194DOPC  H12A23937   1.161   0.623  12.520 -1.4151  0.9007 -0.9296
  194DOPC  H12B23938   1.200   0.506  12.391  0.8641 -2.9145  1.5983
  194DOPC   C1323939   1.023   0.666  12.278 -0.6443 -0.5642 -0.6458
  194DOPC  H13A23940   1.087   0.623  12.203  1.5956  1.3498  0.0528
  194DOPC  H13B23941   0.933   0.689  12.223 -0.1209  1.1411 -0.8432
  194DOPC  H13C23942   1.046   0.765  12.314  0.5568 -1.0140 -0.1433
  194DOPC   C1423943   0.895   0.627  12.474 -0.9257  0.2278 -0.3262
  194DOPC  H14A23944   0.889   0.559  12.558  1.2325 -0.9705 -1.0536
  194DOPC  H14B23945   0.906   0.723  12.523  0.7087  0.8732 -1.8406
  194DOPC  H14C23946   0.796   0.622  12.432 -1.3996  0.1528  0.7683
  194DOPC   C1523947   0.947   0.441  12.335 -0.5746  0.0544 -0.0270
  194DOPC  H15A23948   1.017   0.385  12.276 -2.1098 -2.1481  0.1154
  194DOPC  H15B23949   0.865   0.465  12.269 -2.1355 -1.7400  1.1468
  194DOPC  H15C23950   0.922   0.381  12.422 -0.5427  3.0159  2.1899
  194DOPC   C1123951   1.125   0.420  12.569  0.1543 -0.2547  0.3168
  194DOPC  H11A23952   1.100   0.329  12.510  0.3119  0.0501 -0.2361
  194DOPC  H11B23953   1.229   0.398  12.601  0.1428 -1.1330 -0.1915
  194DOPC     P23954   1.075   0.532  12.790  0.6834 -0.1073  0.3062
  194DOPC   O1323955   1.025   0.666  12.753 -0.4814  0.1199 -0.0583
  194DOPC   O1423956   1.219   0.506  12.811 -0.0683 -0.6089 -0.1670
  194DOPC   O1223957   1.026   0.440  12.667  0.2807 -0.0130  0.6359
  194DOPC   O1123958   0.986   0.490  12.914 -0.1740  0.0645 -0.0345
  194DOPC    C123959   0.966   0.352  12.948 -0.2880 -0.4269  0.8642
  194DOPC    HA23960   1.056   0.289  12.937 -0.5906 -0.6534 -0.5321
  194DOPC    HB23961   0.885   0.310  12.885  2.0549 -1.5493 -1.5660
  194DOPC    C223962   0.925   0.336  13.098 -0.0845  0.4307  0.5157
  194DOPC    HS23963   0.926   0.228  13.126  0.9531  0.5891  1.1683
  194DOPC   O2123964   0.806   0.403  13.127 -0.4382  0.0173  0.3486
  194DOPC   C2123965   0.700   0.334  13.080 -0.5886 -0.9740 -0.7471
  194DOPC   O2223966   0.707   0.224  13.031  0.2025  0.1804  0.0981
  194DOPC   C2223967   0.568   0.418  13.098 -0.4837 -0.4244 -0.3050
  194DOPC   H2R23968   0.507   0.403  13.006  2.4942 -0.6295 -2.3903
  194DOPC   H2S23969   0.605   0.522  13.108  1.9101 -1.0671 -1.6624
  194DOPC    C323970   1.042   0.403  13.189  0.6804 -0.0515  0.7276
  194DOPC    HX23971   1.027   0.512  13.173  2.2380  0.4949  2.6394
  194DOPC    HY23972   1.136   0.374  13.137  0.6908 -0.1966  0.8244
  194DOPC   O3123973   1.026   0.360  13.330 -0.3915  0.2191 -0.6419
  194DOPC   C3123974   1.022   0.453  13.425 -0.3028 -0.9820  0.1082
  194DOPC   O3223975   1.056   0.569  13.410 -0.6033 -0.0820  0.2222
  194DOPC   C3223976   0.973   0.388  13.558 -0.5932 -0.2888  0.0689
  194DOPC   H2X23977   0.911   0.457  13.619  0.1669 -0.6133  1.2665
  194DOPC   H2Y23978   0.907   0.301  13.538 -3.0585  1.1366  1.4897
  194DOPC   C2323979   0.486   0.366  13.212  1.4428 -0.0910  0.1186
  194DOPC   H3R23980   0.485   0.255  13.217  0.3093 -0.0347  2.8604
  194DOPC   H3S23981   0.384   0.405  13.229  1.7799  0.3193  1.2495
  194DOPC   C2423982   0.558   0.394  13.343 -0.0632 -0.9693 -0.5592
  194DOPC   H4R23983   0.586   0.502  13.348 -1.5937 -0.5804  0.8516
  194DOPC   H4S23984   0.648   0.330  13.346  1.0958  0.4738 -2.1781
  194DOPC   C2523985   0.477   0.356  13.471 -0.2391  0.3795 -0.1192
  194DOPC   H5R23986   0.465   0.246  13.459 -0.0684  0.3984 -0.4788
  194DOPC   H5S23987   0.375   0.400  13.474 -1.1946 -1.3856 -2.9329
  194DOPC   C2623988   0.557   0.395  13.599 -0.1692  0.0706  0.3660
  194DOPC   H6R23989   0.566   0.506  13.606 -0.6642 -0.0032  3.2039
  194DOPC   H6S23990   0.656   0.347  13.590 -0.9419 -1.5054 -0.0320
  194DOPC   C2723991   0.479   0.352  13.728 -0.2650  0.5684  0.1275
  194DOPC   H7R23992   0.481   0.241  13.723 -0.3641  0.6196 -2.2322
  194DOPC   H7S23993   0.372   0.376  13.710  0.0181  0.7566 -1.4079
  194DOPC   C2823994   0.538   0.400  13.863  0.3898  0.7421 -0.3186
  194DOPC   H8R23995   0.544   0.511  13.859 -0.7167  0.8542  0.4875
  194DOPC   H8S23996   0.642   0.362  13.866 -0.6924 -2.5880 -1.1032
  194DOPC   C2923997   0.449   0.342  13.977 -0.3293  0.2546  0.2215
  194DOPC   H9R23998   0.341   0.332  13.956 -0.3845 -2.9386  1.6132
  194DOPC  C21023999   0.500   0.297  14.094 -0.0354 -0.7142  0.7360
  194DOPC  H10R24000   0.427   0.257  14.166 -0.2273 -1.2236  0.2651
  194DOPC  C21124001   0.643   0.276  14.135  0.9745  0.7074  0.2840
  194DOPC  H11R24002   0.671   0.335  14.225 -2.3551 -0.7726  2.5091
  194DOPC  H11S24003   0.713   0.295  14.050 -0.0024  3.6609  0.0408
  194DOPC  C21224004   0.662   0.127  14.165 -0.3653  0.6451 -0.9057
  194DOPC  H12R24005   0.764   0.095  14.135 -0.2716  1.8958 -2.0726
  194DOPC  H12S24006   0.592   0.073  14.098 -1.8213  1.4254 -0.0782
  194DOPC  C21324007   0.633   0.082  14.312 -0.0955 -0.4175  0.1867
  194DOPC  H13R24008   0.648  -0.027  14.326  0.5748  0.0613  4.0783
  194DOPC  H13S24009   0.526   0.090  14.343  0.4404  0.5104  1.8770
  194DOPC  C21424010   0.727   0.153  14.408 -0.0262 -0.3449  0.6671
  194DOPC  H14R24011   0.708   0.262  14.396 -0.5807 -0.3629  1.3688
  194DOPC  H14S24012   0.833   0.141  14.374  0.0976  0.6735  0.6655
  194DOPC  C21524013   0.705   0.109  14.548 -0.3419 -0.2071  0.1565
  194DOPC  H15R24014   0.713  -0.002  14.546 -3.2637 -0.5003 -0.6281
  194DOPC  H15S24015   0.602   0.126  14.588 -0.5967 -1.4426  0.0530
  194DOPC  C21624016   0.802   0.175  14.645 -1.0017  0.0930  0.4361
  194DOPC  H16R24017   0.774   0.282  14.645 -0.5879  0.2640  2.8681
  194DOPC  H16S24018   0.905   0.144  14.617 -1.2526  0.3291 -0.7729
  194DOPC  C21724019   0.791   0.135  14.795  0.2493 -0.2293 -0.6383
  194DOPC  H17R24020   0.786   0.025  14.807  0.1796 -0.3967 -2.0981
  194DOPC  H17S24021   0.696   0.174  14.838 -0.8975 -3.1649 -0.2644
  194DOPC  C21824022   0.911   0.193  14.869 -0.2680  0.0402 -0.0129
  194DOPC  H18R24023   0.921   0.166  14.976  3.0569  0.6984 -0.0566
  194DOPC  H18S24024   0.909   0.304  14.861 -0.6980  0.0868  0.7050
  194DOPC  H18T24025   1.001   0.167  14.809 -1.6250 -1.6972 -1.3956
  194DOPC   C3324026   1.104   0.340  13.638 -0.1185  0.7422 -0.3148
  194DOPC   H3X24027   1.174   0.423  13.662  1.5029 -0.7958  0.4246
  194DOPC   H3Y24028   1.153   0.262  13.576  0.5512  2.0382 -1.4795
  194DOPC   C3424029   1.061   0.285  13.770 -0.3584 -0.2818 -0.8907
  194DOPC   H4X24030   1.003   0.193  13.752  1.9777 -2.2782  1.0572
  194DOPC   H4Y24031   1.021   0.368  13.832  2.1137  0.8142 -0.6371
  194DOPC   C3524032   1.184   0.240  13.858 -0.2470 -0.2753  0.4313
  194DOPC   H5X24033   1.233   0.329  13.903  2.4264 -1.2048 -0.4923
  194DOPC   H5Y24034   1.266   0.196  13.798  0.4439 -0.1201  1.2434
  194DOPC   C3624035   1.144   0.155  13.980 -0.4324 -0.1068  0.7079
  194DOPC   H6X24036   1.055   0.198  14.031 -2.0599  0.2496 -2.2237
  194DOPC   H6Y24037   1.109   0.052  13.957 -3.3460  0.9687 -0.1704
  194DOPC   C3724038   1.263   0.136  14.075  0.0008 -0.9409 -0.0110
  194DOPC   H7X24039   1.359   0.117  14.021  0.2860  1.1727 -0.3313
  194DOPC   H7Y24040   1.270   0.232  14.129  0.3597 -0.6309 -0.5938
  194DOPC   C3824041   1.243   0.026  14.185 -0.3799 -0.1760 -0.8463
  194DOPC   H8X24042   1.155   0.048  14.249  1.1749 -0.5478  1.5515
  194DOPC   H8Y24043   1.326   0.033  14.258 -0.3480  1.1632 -0.9967
  194DOPC   C3924044   1.242  -0.120  14.132  0.3349 -0.3843  0.0907
  194DOPC   H9X24045   1.332  -0.151  14.077 -0.0571 -1.3821 -0.0045
  194DOPC  C31024046   1.129  -0.199  14.135 -0.5020  0.2187 -0.0696
  194DOPC  H10X24047   1.133  -0.288  14.070 -0.4358 -0.9341  1.4659
  194DOPC  C31124048   0.992  -0.169  14.198  0.8103 -0.8052  0.2330
  194DOPC  H11X24049   0.967  -0.066  14.232  0.4843 -1.2477  1.3947
  194DOPC  H11Y24050   0.988  -0.225  14.294 -1.9927 -2.6520 -0.8403
  194DOPC  C31224051   0.871  -0.205  14.117  0.1000  0.8097  0.2549
  194DOPC  H12X24052   0.782  -0.159  14.165  0.2126  1.5741 -0.2517
  194DOPC  H12Y24053   0.853  -0.313  14.136  0.6945  0.6778  0.0841
  194DOPC  C31324054   0.871  -0.152  13.972  0.5734  0.1971 -0.2973
  194DOPC  H13X24055   0.888  -0.042  13.983 -0.8504  0.2896  1.4274
  194DOPC  H13Y24056   0.954  -0.198  13.916 -1.9041  1.0950 -5.2974
  194DOPC  C31424057   0.741  -0.165  13.893  0.1376 -0.6566 -0.7717
  194DOPC  H14X24058   0.717  -0.272  13.913  0.3637 -0.4153  0.9343
  194DOPC  H14Y24059   0.664  -0.106  13.946  1.4340  1.1558 -0.8029
  194DOPC  C31524060   0.744  -0.141  13.746 -0.2330 -0.2322 -0.5117
  194DOPC  H15X24061   0.775  -0.232  13.691 -0.6284  0.2444 -1.5362
  194DOPC  H15Y24062   0.823  -0.067  13.721 -1.3729  0.3779 -2.4786
  194DOPC  C31624063   0.611  -0.093  13.699 -0.3763  0.5052  0.5981
  194DOPC  H16X24064   0.527  -0.166  13.690  0.3465 -0.3131  0.3100
  194DOPC  H16Y24065   0.564  -0.024  13.772 -0.6719  2.7639 -1.5981
  194DOPC  C31724066   0.616  -0.021  13.567  0.4194 -0.2016 -0.1039
  194DOPC  H17X24067   0.515   0.005  13.528  0.5729 -0.5731 -0.7672
  194DOPC  H17Y24068   0.665   0.078  13.582  1.9904 -0.7424 -1.3432
  194DOPC  C31824069   0.689  -0.106  13.461  0.3393 -0.4342  0.3576
  194DOPC  H18X24070   0.795  -0.130  13.485  0.1501 -0.7719  0.8496
  194DOPC  H18Y24071   0.634  -0.201  13.445  0.3931 -0.2851 -0.7993
  194DOPC  H18Z24072   0.685  -0.052  13.363  0.6269  0.8851  1.0462
  195DOPC     N24073   6.231   6.633  13.085 -0.0240  0.0226 -0.0482
  195DOPC   C1224074   6.252   6.555  13.212 -0.0140 -0.0098  0.0046
  195DOPC  H12A24075   6.356   6.525  13.222  0.7862  2.7281  1.1093
  195DOPC  H12B24076   6.194   6.467  13.191 -0.2524 -0.0741  0.8781
  195DOPC   C1324077   6.315   6.757  13.075  0.7105  0.4373  0.3963
  195DOPC  H13A24078   6.303   6.821  13.161  2.2923  0.9350  0.2706
  195DOPC  H13B24079   6.419   6.738  13.097  1.4344  1.7883 -1.6190
  195DOPC  H13C24080   6.291   6.812  12.986 -1.8812 -1.3586 -0.1227
  195DOPC   C1424081   6.089   6.667  13.074  0.1609  0.2938  0.2166
  195DOPC  H14A24082   6.067   6.720  12.982 -1.2369  1.7195  1.2960
  195DOPC  H14B24083   6.027   6.579  13.084  1.9377 -0.8509  1.6311
  195DOPC  H14C24084   6.065   6.728  13.160 -0.8072 -1.1364  1.0043
  195DOPC   C1524085   6.270   6.554  12.970 -0.3735  0.1665  0.5362
  195DOPC  H15A24086   6.262   6.606  12.876 -0.9738 -0.1686  0.3950
  195DOPC  H15B24087   6.207   6.467  12.961 -0.7448  0.4247  0.6293
  195DOPC  H15C24088   6.372   6.519  12.978 -0.4929 -0.3778 -0.1706
  195DOPC   C1124089   6.222   6.609  13.355  0.2506 -0.2019  0.5499
  195DOPC  H11A24090   6.112   6.597  13.370  0.1739  0.7406  0.8159
  195DOPC  H11B24091   6.261   6.543  13.436 -0.7688 -1.5319  0.0036
  195DOPC     P24092   6.156   6.862  13.401 -0.0536 -0.0318  0.0630
  195DOPC   O1324093   6.058   6.880  13.293 -0.0399  0.2455 -0.3540
  195DOPC   O1424094   6.235   6.985  13.432 -0.3200  0.0544 -0.6305
  195DOPC   O1224095   6.259   6.747  13.371  0.0488 -0.8053  0.2879
  195DOPC   O1124096   6.090   6.818  13.538 -0.5383  0.4762  0.1544
  195DOPC    C124097   6.157   6.738  13.639 -0.2891 -0.0117  0.1601
  195DOPC    HA24098   6.266   6.728  13.618 -0.1504  1.9624 -0.3188
  195DOPC    HB24099   6.109   6.638  13.643  0.1651 -0.2365  0.0570
  195DOPC    C224100   6.152   6.817  13.769 -0.2428 -0.1351  0.3970
  195DOPC    HS24101   6.203   6.747  13.839  0.7873  0.4969  0.3079
  195DOPC   O2124102   6.016   6.844  13.794  0.1998 -0.4606  0.2405
  195DOPC   C2124103   5.950   6.739  13.847  0.0949  0.3675 -0.8170
  195DOPC   O2224104   5.986   6.622  13.843 -0.3069 -0.0256 -0.3725
  195DOPC   C2224105   5.843   6.790  13.948 -0.4580  0.5065 -0.4920
  195DOPC   H2R24106   5.767   6.839  13.884 -0.0863  1.0266 -0.5333
  195DOPC   H2S24107   5.887   6.864  14.018 -2.7552  0.8528  0.7057
  195DOPC    C324108   6.246   6.938  13.759 -0.3611 -0.3717  0.2357
  195DOPC    HX24109   6.235   7.012  13.677  1.6384  0.1025  0.3334
  195DOPC    HY24110   6.341   6.881  13.745 -0.6363 -0.7924  0.0618
  195DOPC   O3124111   6.259   6.999  13.887  0.1573 -0.4263  0.1000
  195DOPC   C3124112   6.355   7.089  13.892 -0.0921  0.5151  0.0204
  195DOPC   O3224113   6.435   7.114  13.801  0.3193  0.4986  0.3745
  195DOPC   C3224114   6.357   7.145  14.036  0.6521  0.1528  0.0422
  195DOPC   H2X24115   6.333   7.253  14.019 -0.2526  0.2416  1.6728
  195DOPC   H2Y24116   6.271   7.109  14.096  0.7125  2.5308  1.7256
  195DOPC   C2324117   5.774   6.679  14.029 -0.0229  0.0724  0.0576
  195DOPC   H3R24118   5.750   6.589  13.969 -0.4635  1.0276 -1.2385
  195DOPC   H3S24119   5.676   6.711  14.073 -1.8806 -2.5890 -1.8338
  195DOPC   C2424120   5.868   6.643  14.141 -0.2830  0.7340 -0.5048
  195DOPC   H4R24121   5.887   6.738  14.194  0.1584  0.7791 -0.7404
  195DOPC   H4S24122   5.954   6.594  14.091 -2.3919 -0.1963 -3.5396
  195DOPC   C2524123   5.821   6.535  14.228 -0.1443  0.4093 -0.1850
  195DOPC   H5R24124   5.896   6.528  14.310  0.4436  1.9600 -0.5499
  195DOPC   H5S24125   5.827   6.438  14.176  0.7650  0.4943 -0.2686
  195DOPC   C2624126   5.688   6.560  14.302 -0.4530  0.3606  0.1086
  195DOPC   H6R24127   5.612   6.572  14.221  0.5855 -0.7644 -1.0834
  195DOPC   H6S24128   5.677   6.656  14.357 -0.1709  0.6240 -0.2883
  195DOPC   C2724129   5.668   6.444  14.394 -0.4097 -0.0355 -0.3995
  195DOPC   H7R24130   5.747   6.443  14.472 -1.9717 -1.4247  1.2710
  195DOPC   H7S24131   5.666   6.350  14.334 -0.1657  1.4162 -2.8025
  195DOPC   C2824132   5.543   6.465  14.483  0.0895  0.2251  0.4108
  195DOPC   H8R24133   5.458   6.491  14.417 -0.8600 -0.0163  1.5123
  195DOPC   H8S24134   5.550   6.562  14.538 -1.5717  0.7456 -0.2571
  195DOPC   C2924135   5.519   6.354  14.584 -0.6575  0.1867  0.0453
  195DOPC   H9R24136   5.592   6.338  14.665  0.8142 -2.0545 -1.5946
  195DOPC  C21024137   5.419   6.268  14.573 -0.5009 -0.3667 -0.1854
  195DOPC  H10R24138   5.417   6.190  14.650 -0.4770  0.9002  1.1412
  195DOPC  C21124139   5.326   6.253  14.460  0.1918 -0.7295  0.0129
  195DOPC  H11R24140   5.351   6.160  14.405 -1.4976 -0.4720 -1.2843
  195DOPC  H11S24141   5.341   6.327  14.379  0.4548 -2.4051 -1.5249
  195DOPC  C21224142   5.179   6.272  14.497  0.8504 -0.6228 -0.6033
  195DOPC  H12R24143   5.119   6.268  14.403 -0.1835 -1.5462  0.0743
  195DOPC  H12S24144   5.172   6.380  14.523 -1.5373 -0.0370 -3.1278
  195DOPC  C21324145   5.118   6.177  14.605 -0.3323  0.5614 -0.3728
  195DOPC  H13R24146   5.167   6.190  14.704 -2.2783 -0.2533  0.7762
  195DOPC  H13S24147   5.131   6.072  14.570  1.1399 -0.0800  1.8785
  195DOPC  C21424148   4.975   6.214  14.620  0.0554  0.8518 -0.2615
  195DOPC  H14R24149   4.917   6.218  14.526 -1.2691  2.1640  0.5549
  195DOPC  H14S24150   4.986   6.317  14.662  1.9453 -0.1847  2.0424
  195DOPC  C21524151   4.903   6.132  14.724 -0.2162  0.1847  0.2070
  195DOPC  H15R24152   4.958   6.123  14.820  2.6985 -1.9592 -1.4883
  195DOPC  H15S24153   4.897   6.030  14.680 -0.5713 -1.0688  2.9642
  195DOPC  C21624154   4.764   6.174  14.751 -0.3709 -0.3977 -0.1276
  195DOPC  H16R24155   4.700   6.147  14.664 -2.9372  2.0571  0.8300
  195DOPC  H16S24156   4.751   6.284  14.755 -2.1923 -0.6171  1.1106
  195DOPC  C21724157   4.699   6.105  14.873 -0.1645  0.4194  0.5700
  195DOPC  H17R24158   4.705   5.996  14.851 -1.5713  0.3538  0.4687
  195DOPC  H17S24159   4.594   6.141  14.871 -0.1649  0.4520  1.0571
  195DOPC  C21824160   4.763   6.141  15.004 -1.1528  0.0761 -0.5513
  195DOPC  H18R24161   4.842   6.066  15.029 -0.1172  1.6193  1.0346
  195DOPC  H18S24162   4.687   6.128  15.084 -0.9858  0.0480 -0.3956
  195DOPC  H18T24163   4.798   6.245  15.019 -0.3904 -0.2925  0.3521
  195DOPC   C3324164   6.494   7.138  14.109  0.4407 -0.3656  0.2688
  195DOPC   H3X24165   6.580   7.154  14.041  0.0715 -1.5517 -0.5261
  195DOPC   H3Y24166   6.510   7.042  14.162  1.3456 -0.3846 -0.0249
  195DOPC   C3424167   6.501   7.243  14.219 -0.1250 -0.1941  0.1865
  195DOPC   H4X24168   6.487   7.347  14.183 -1.6476  0.2233  1.8565
  195DOPC   H4Y24169   6.605   7.238  14.259  1.4642 -0.9514 -3.5247
  195DOPC   C3524170   6.399   7.218  14.332  0.5922  0.5442 -0.1035
  195DOPC   H5X24171   6.398   7.116  14.375  0.2945  0.7128  0.2964
  195DOPC   H5Y24172   6.297   7.237  14.292  0.6076 -0.9896 -0.9520
  195DOPC   C3624173   6.424   7.317  14.448 -0.5660  0.0610  0.2605
  195DOPC   H6X24174   6.514   7.276  14.498 -0.0431 -1.1103 -1.5694
  195DOPC   H6Y24175   6.450   7.418  14.410  0.1719  0.1612  1.0085
  195DOPC   C3724176   6.305   7.322  14.538  0.3587  0.6585 -0.3551
  195DOPC   H7X24177   6.215   7.349  14.479  0.8735 -0.3067 -1.6406
  195DOPC   H7Y24178   6.298   7.214  14.563  2.9762  0.2320 -1.1502
  195DOPC   C3824179   6.312   7.419  14.645 -0.2337 -0.2471 -0.3910
  195DOPC   H8X24180   6.218   7.407  14.703  0.2629  1.7495  0.9362
  195DOPC   H8Y24181   6.321   7.519  14.598  0.0779 -0.4734 -0.8129
  195DOPC   C3924182   6.427   7.389  14.737 -0.2345 -0.4646  0.4587
  195DOPC   H9X24183   6.489   7.308  14.698 -1.0373 -0.2981 -1.2120
  195DOPC  C31024184   6.452   7.433  14.860  0.4178 -0.5612  0.4324
  195DOPC  H10X24185   6.543   7.403  14.914  1.3018  0.5106 -0.4021
  195DOPC  C31124186   6.375   7.556  14.903 -0.3564 -0.1080  0.3223
  195DOPC  H11X24187   6.312   7.526  14.990 -0.7429 -0.8854 -0.2174
  195DOPC  H11Y24188   6.313   7.600  14.823  1.6152  1.5879 -0.3730
  195DOPC  C31224189   6.472   7.654  14.970 -0.0795  0.9080  0.4657
  195DOPC  H12X24190   6.515   7.596  15.055 -1.4885  0.4085  0.8729
  195DOPC  H12Y24191   6.401   7.729  15.011 -2.5353 -1.1403  0.2594
  195DOPC  C31324192   6.576   7.711  14.886  0.7622  0.1950 -0.0987
  195DOPC  H13X24193   6.643   7.761  14.958 -0.9335 -1.9985  3.2593
  195DOPC  H13Y24194   6.639   7.628  14.847 -0.3011 -1.5562  1.7401
  195DOPC  C31424195   6.510   7.787  14.772  0.3956  0.2945 -1.0188
  195DOPC  H14X24196   6.471   7.718  14.693  1.4875 -0.4398 -0.9442
  195DOPC  H14Y24197   6.425   7.846  14.812 -0.7499  0.9896 -4.1745
  195DOPC  C31524198   6.617   7.876  14.699 -0.2961  0.2845 -0.1415
  195DOPC  H15X24199   6.695   7.809  14.658 -1.6335 -1.6000  0.2628
  195DOPC  H15Y24200   6.665   7.948  14.768  1.2156  0.4872 -1.3609
  195DOPC  C31624201   6.557   7.960  14.579  0.1237  0.6372 -0.5574
  195DOPC  H16X24202   6.513   8.054  14.617 -1.6823  0.1469 -1.3591
  195DOPC  H16Y24203   6.638   7.995  14.512 -0.2763 -0.1969 -1.4989
  195DOPC  C31724204   6.444   7.896  14.493  0.5914 -0.2786  0.5889
  195DOPC  H17X24205   6.363   7.863  14.562  0.8860 -0.0451  1.0473
  195DOPC  H17Y24206   6.399   7.977  14.432 -0.9855  0.3335  2.4699
  195DOPC  C31824207   6.482   7.778  14.410 -0.4114  0.2314 -0.2655
  195DOPC  H18X24208   6.398   7.754  14.341  0.2281  1.0332 -1.3564
  195DOPC  H18Y24209   6.564   7.805  14.340 -1.2602 -0.7039 -1.6653
  195DOPC  H18Z24210   6.503   7.684  14.466 -0.2699  0.8760  0.7873
  196DOPC     N24211   0.898   2.261  12.885  0.2930 -0.3742 -0.1612
  196DOPC   C1224212   0.771   2.198  12.921  0.0850  0.2178  0.3611
  196DOPC  H12A24213   0.692   2.260  12.882  1.2189  1.3881 -0.1506
  196DOPC  H12B24214   0.764   2.197  13.028  0.0175 -1.4343  0.3683
  196DOPC   C1324215   0.910   2.396  12.954  0.1433 -0.2631 -0.3906
  196DOPC  H13A24216   0.829   2.467  12.948  1.2610  1.2987  1.4400
  196DOPC  H13B24217   0.933   2.374  13.057 -1.4546 -0.9289 -0.1561
  196DOPC  H13C24218   0.998   2.453  12.928 -1.9366  3.0957 -0.6444
  196DOPC   C1424219   0.910   2.290  12.733 -0.3212  0.6207 -0.4157
  196DOPC  H14A24220   0.905   2.192  12.686 -2.1424  0.7305 -0.5461
  196DOPC  H14B24221   0.837   2.364  12.704 -0.0883  1.7123  1.6126
  196DOPC  H14C24222   1.008   2.332  12.714  0.6431 -1.1334  0.4453
  196DOPC   C1524223   1.010   2.185  12.936 -0.1897  0.2673  0.1677
  196DOPC  H15A24224   0.992   2.082  12.911  0.3532 -0.1154  1.2723
  196DOPC  H15B24225   1.028   2.197  13.042  1.3354 -1.3615  0.1183
  196DOPC  H15C24226   1.100   2.218  12.887 -1.2917  2.3023 -0.6608
  196DOPC   C1124227   0.746   2.058  12.875  0.1211  0.6473 -0.3068
  196DOPC  H11A24228   0.638   2.032  12.881 -0.7086  3.3403 -1.7726
  196DOPC  H11B24229   0.765   2.053  12.765  0.7781  0.4158 -0.1852
  196DOPC     P24230   0.818   1.939  13.092  0.3415  0.1557  0.1877
  196DOPC   O1324231   0.835   2.064  13.170 -0.0270 -0.4666  0.0461
  196DOPC   O1424232   0.900   1.825  13.122  0.2830 -0.1021  0.0733
  196DOPC   O1224233   0.831   1.964  12.938  0.1977 -0.1411 -0.1859
  196DOPC   O1124234   0.668   1.898  13.117  0.1838 -1.0934 -0.7801
  196DOPC    C124235   0.594   1.950  13.231  0.0633  1.0534  0.8205
  196DOPC    HA24236   0.487   1.935  13.208 -0.1989  0.4381  2.3232
  196DOPC    HB24237   0.602   2.060  13.247 -4.2385  1.3719  1.9566
  196DOPC    C224238   0.616   1.866  13.362 -0.5362  0.3112 -0.1737
  196DOPC    HS24239   0.649   1.767  13.325 -0.9484 -0.2213  0.8457
  196DOPC   O2124240   0.495   1.855  13.440 -0.3786 -0.0861  0.0722
  196DOPC   C2124241   0.409   1.767  13.387  0.3687 -0.1630  0.1395
  196DOPC   O2224242   0.431   1.705  13.288 -0.3984  0.6903 -0.1702
  196DOPC   C2224243   0.280   1.755  13.474  0.6356 -0.0177  0.3938
  196DOPC   H2R24244   0.217   1.676  13.428  0.4812  0.6440 -0.5589
  196DOPC   H2S24245   0.229   1.852  13.456  0.4941 -0.6117 -3.1365
  196DOPC    C324246   0.728   1.924  13.452  0.8607  0.0881  0.2472
  196DOPC    HX24247   0.745   2.033  13.441 -2.5006  0.6346 -0.8493
  196DOPC    HY24248   0.821   1.890  13.402  1.5301 -1.2864  2.3272
  196DOPC   O3124249   0.713   1.875  13.587 -0.6874  0.4318  0.4478
  196DOPC   C3124250   0.799   1.932  13.666  0.1136 -0.0045 -0.4106
  196DOPC   O3224251   0.886   2.011  13.632 -0.5671 -0.0355 -0.1179
  196DOPC   C3224252   0.778   1.877  13.805 -0.1904  0.3332  0.1824
  196DOPC   H2X24253   0.675   1.836  13.807  0.1705 -0.6355 -0.7031
  196DOPC   H2Y24254   0.851   1.794  13.817  1.9841  2.1184  0.0398
  196DOPC   C2324255   0.299   1.727  13.623 -0.5347  0.5100  0.2862
  196DOPC   H3R24256   0.370   1.645  13.644 -2.0779 -0.4174  2.2671
  196DOPC   H3S24257   0.204   1.698  13.675  0.5677 -0.6059  1.7584
  196DOPC   C2424258   0.345   1.848  13.705  0.5213  0.1713 -0.0358
  196DOPC   H4R24259   0.315   1.933  13.640 -0.0250 -1.0334 -1.4007
  196DOPC   H4S24260   0.456   1.840  13.714  1.1554  1.1572 -4.6402
  196DOPC   C2524261   0.274   1.853  13.843  0.3993  0.0917  0.3580
  196DOPC   H5R24262   0.165   1.834  13.831  0.0868  0.3527  2.4423
  196DOPC   H5S24263   0.268   1.958  13.879 -0.1499 -0.6628  2.5760
  196DOPC   C2624264   0.334   1.772  13.952 -0.1410 -0.2379 -0.5805
  196DOPC   H6R24265   0.443   1.793  13.948  0.0912 -1.1220  0.5504
  196DOPC   H6S24266   0.335   1.662  13.933 -0.4094 -0.7124  1.7706
  196DOPC   C2724267   0.275   1.804  14.093  0.2186 -0.1523 -0.2935
  196DOPC   H7R24268   0.275   1.914  14.108  0.8041  0.0492 -1.6372
  196DOPC   H7S24269   0.339   1.762  14.175 -0.7720  0.1453  0.6626
  196DOPC   C2824270   0.137   1.733  14.115  0.3314  0.6135  0.6136
  196DOPC   H8R24271   0.143   1.623  14.104 -2.6501  0.5434 -1.5422
  196DOPC   H8S24272   0.071   1.754  14.028 -1.2993 -0.2777  1.5900
  196DOPC   C2924273   0.070   1.797  14.231  0.1001 -0.2935 -0.2918
  196DOPC   H9R24274   0.036   1.901  14.216  0.2919 -0.1511  0.2239
  196DOPC  C21024275   0.039   1.734  14.347 -0.1530  0.5804 -0.2187
  196DOPC  H10R24276  -0.014   1.793  14.423  1.2224 -0.4344  1.5977
  196DOPC  C21124277   0.069   1.586  14.381 -0.5197 -0.2558  0.1978
  196DOPC  H11R24278   0.084   1.592  14.491 -0.5417  0.4853  0.1671
  196DOPC  H11S24279   0.161   1.547  14.333 -0.2078  0.6402  0.0321
  196DOPC  C21224280  -0.057   1.500  14.356 -0.0064  0.4135 -0.1657
  196DOPC  H12R24281  -0.099   1.522  14.256  0.6366  0.2055 -0.4861
  196DOPC  H12S24282  -0.143   1.531  14.418 -0.8255  1.1096 -1.6038
  196DOPC  C21324283  -0.026   1.348  14.373  0.0752 -0.0467 -0.4604
  196DOPC  H13R24284   0.069   1.347  14.314  0.4763  1.8239  0.0802
  196DOPC  H13S24285  -0.098   1.289  14.313  0.2022  0.2424 -0.9106
  196DOPC  C21424286  -0.004   1.296  14.514 -0.3410  0.4005  0.1276
  196DOPC  H14R24287  -0.094   1.261  14.568  1.1677  0.7137  3.0000
  196DOPC  H14S24288   0.040   1.378  14.575 -0.2930 -0.4413  1.2532
  196DOPC  C21524289   0.093   1.175  14.522  0.2533  0.3368 -0.0844
  196DOPC  H15R24290   0.192   1.216  14.494  0.0574  0.6633 -0.2950
  196DOPC  H15S24291   0.061   1.098  14.449 -0.8589  0.0182  0.7110
  196DOPC  C21624292   0.108   1.114  14.660 -0.1166 -0.2635 -0.6740
  196DOPC  H16R24293   0.134   1.007  14.645 -1.0627 -1.0163  2.3511
  196DOPC  H16S24294   0.007   1.117  14.706 -1.1110  2.6948 -2.7698
  196DOPC  C21724295   0.214   1.184  14.755  0.7230 -0.3699  0.8601
  196DOPC  H17R24296   0.184   1.291  14.750 -1.0805 -0.9132 -1.0130
  196DOPC  H17S24297   0.310   1.184  14.699 -0.6784  1.7847 -1.7857
  196DOPC  C21824298   0.222   1.127  14.897  0.3809 -0.3024  0.3529
  196DOPC  H18R24299   0.151   1.174  14.968 -0.1083 -1.5705  0.7364
  196DOPC  H18S24300   0.325   1.154  14.929 -0.2652  2.6025  0.2717
  196DOPC  H18T24301   0.229   1.016  14.895 -0.5234 -0.3555 -0.7665
  196DOPC   C3324302   0.799   1.981  13.912 -1.0255 -0.4833  0.7294
  196DOPC   H3X24303   0.743   2.076  13.897  1.1229  0.7598  0.1502
  196DOPC   H3Y24304   0.906   2.008  13.921 -0.9215 -0.5298 -0.2458
  196DOPC   C3424305   0.771   1.918  14.045  0.0479 -0.3912 -0.1098
  196DOPC   H4X24306   0.825   1.822  14.058  2.0494  0.4846 -1.5443
  196DOPC   H4Y24307   0.661   1.906  14.037 -0.1845  0.7489  0.9955
  196DOPC   C3524308   0.801   2.012  14.160  0.5381  0.4984  0.1372
  196DOPC   H5X24309   0.749   2.108  14.141  0.9429  0.1652 -3.3979
  196DOPC   H5Y24310   0.907   2.040  14.171  0.3314  1.8279 -1.0325
  196DOPC   C3624311   0.756   1.949  14.294  0.4552  0.4899 -0.0822
  196DOPC   H6X24312   0.645   1.944  14.293  0.4842 -0.6543 -1.0664
  196DOPC   H6Y24313   0.805   1.849  14.294  1.6016  0.9927  2.3818
  196DOPC   C3724314   0.798   2.018  14.420  0.8004  0.3964 -0.2282
  196DOPC   H7X24315   0.908   2.031  14.423  0.5905  2.4648  0.0388
  196DOPC   H7Y24316   0.745   2.114  14.436 -0.6383 -0.7260  2.4875
  196DOPC   C3824317   0.761   1.946  14.553  0.0497  0.0591 -0.8608
  196DOPC   H8X24318   0.838   1.982  14.625 -0.8960 -1.2480  0.8780
  196DOPC   H8Y24319   0.780   1.837  14.541 -0.1807 -0.0525 -0.2423
  196DOPC   C3924320   0.622   1.958  14.602 -0.0157 -0.3229  0.1846
  196DOPC   H9X24321   0.543   1.930  14.531  0.8107 -1.9303 -0.1506
  196DOPC  C31024322   0.586   2.032  14.711 -0.7382  0.6363 -0.5142
  196DOPC  H10X24323   0.479   2.040  14.737 -0.4880 -1.0210  1.2830
  196DOPC  C31124324   0.674   2.101  14.816  0.6481  0.0432  0.5099
  196DOPC  H11X24325   0.780   2.092  14.784  0.4306 -1.0241  0.0782
  196DOPC  H11Y24326   0.662   2.057  14.918  0.0937 -0.5967  0.1728
  196DOPC  C31224327   0.648   2.254  14.811  0.0213  0.1372 -0.3446
  196DOPC  H12X24328   0.670   2.308  14.717 -1.8117  1.0007 -0.3183
  196DOPC  H12Y24329   0.733   2.287  14.875 -0.5299  0.3453  0.2803
  196DOPC  C31324330   0.504   2.291  14.867  0.2970  0.4762 -0.2508
  196DOPC  H13X24331   0.424   2.232  14.818  0.3638 -0.2807  0.5228
  196DOPC  H13Y24332   0.494   2.267  14.975  0.1992 -0.4099 -0.4524
  196DOPC  C31424333   0.481   2.443  14.857 -0.8845  0.1207  0.5027
  196DOPC  H14X24334   0.557   2.498  14.916 -0.3795 -0.9625  0.8821
  196DOPC  H14Y24335   0.501   2.478  14.753 -1.6691 -1.2072 -0.1336
  196DOPC  C31524336   0.336   2.479  14.897 -0.6547 -0.5124 -0.2730
  196DOPC  H15X24337   0.335   2.585  14.931  1.5019 -0.3231 -0.6295
  196DOPC  H15Y24338   0.322   2.414  14.986  0.9811 -1.0319 -0.3486
  196DOPC  C31624339   0.236   2.446  14.793  0.2129  0.5112  0.0374
  196DOPC  H16X24340   0.276   2.457  14.690  3.3035 -1.0622  0.9358
  196DOPC  H16Y24341   0.219   2.337  14.805  1.6382 -0.0107 -2.0637
  196DOPC  C31724342   0.102   2.518  14.813  0.0345  0.5238  0.3898
  196DOPC  H17X24343   0.028   2.467  14.748  0.4206  0.3717  0.0717
  196DOPC  H17Y24344   0.069   2.479  14.912  1.7898 -3.2206 -0.3412
  196DOPC  C31824345   0.103   2.667  14.795 -0.5598 -0.3263  0.0983
  196DOPC  H18X24346   0.159   2.721  14.874  2.8800  1.1258 -3.0269
  196DOPC  H18Y24347   0.142   2.689  14.693 -2.0912 -0.5489 -0.5692
  196DOPC  H18Z24348  -0.000   2.710  14.796 -0.5331 -0.2705  0.8654
  197DOPC     N24349   1.602   7.272  12.616  0.5546  0.5011 -0.4174
  197DOPC   C1224350   1.592   7.401  12.696 -0.3854  0.0754 -0.5471
  197DOPC  H12A24351   1.510   7.386  12.765 -0.2675  1.3570 -0.1034
  197DOPC  H12B24352   1.568   7.484  12.631 -0.2533  1.1168  0.7157
  197DOPC   C1324353   1.705   7.286  12.508  0.4610  0.0200  0.0901
  197DOPC  H13A24354   1.803   7.306  12.549  0.9836 -2.9519  0.5219
  197DOPC  H13B24355   1.707   7.194  12.451 -0.1005 -1.2247  2.0054
  197DOPC  H13C24356   1.677   7.368  12.443 -0.1032  0.6247  1.0830
  197DOPC   C1424357   1.460   7.255  12.546 -0.3887  0.2514  0.2167
  197DOPC  H14A24358   1.457   7.169  12.480 -1.1353  0.2251  0.2765
  197DOPC  H14B24359   1.384   7.246  12.622  0.3839  1.9822  1.2493
  197DOPC  H14C24360   1.431   7.344  12.492  0.6731  2.3692  2.9335
  197DOPC   C1524361   1.618   7.144  12.703  0.4840 -0.4203  0.7123
  197DOPC  H15A24362   1.527   7.134  12.760  0.2623 -0.8542  0.2908
  197DOPC  H15B24363   1.701   7.161  12.769  0.4750 -0.6975  0.7958
  197DOPC  H15C24364   1.631   7.066  12.629 -1.4059  0.3606 -0.5244
  197DOPC   C1124365   1.697   7.465  12.792 -0.4259 -0.2781  0.4343
  197DOPC  H11A24366   1.653   7.560  12.829  0.0288 -0.3078  1.0667
  197DOPC  H11B24367   1.714   7.388  12.871 -1.9255  0.1813  1.2422
  197DOPC     P24368   1.875   7.611  12.673 -0.1486  0.3380  0.1276
  197DOPC   O1324369   1.763   7.693  12.631 -0.3700  0.1297 -0.1305
  197DOPC   O1424370   1.979   7.590  12.571  0.7161  0.0686  0.1903
  197DOPC   O1224371   1.824   7.473  12.726  0.3249  0.2412  0.2373
  197DOPC   O1124372   1.935   7.664  12.799 -0.1606  0.1616 -0.1970
  197DOPC    C124373   2.058   7.619  12.857 -0.3297 -0.3435 -0.7567
  197DOPC    HA24374   2.111   7.716  12.867 -0.6938 -0.0618 -1.5296
  197DOPC    HB24375   2.119   7.547  12.798 -0.5726 -0.3888 -0.9540
  197DOPC    C224376   2.024   7.550  12.993  0.2887  0.0061  0.1472
  197DOPC    HS24377   1.950   7.468  12.977 -0.4615  0.1587  2.4791
  197DOPC   O2124378   1.969   7.645  13.081 -1.1354  0.1277 -0.8280
  197DOPC   C2124379   1.866   7.604  13.160  0.4626  0.0384  0.2939
  197DOPC   O2224380   1.803   7.501  13.146  0.3701 -0.6874 -0.1938
  197DOPC   C2224381   1.847   7.708  13.274  0.7793 -0.0162  0.2166
  197DOPC   H2R24382   1.770   7.773  13.227  1.2455 -0.2461 -0.8925
  197DOPC   H2S24383   1.933   7.778  13.280 -0.2613  1.3681 -0.3415
  197DOPC    C324384   2.147   7.483  13.059  0.1572  0.5084 -0.0849
  197DOPC    HX24385   2.207   7.563  13.108 -2.2401  1.3387  1.7044
  197DOPC    HY24386   2.205   7.432  12.980 -0.6753 -0.9500  0.2129
  197DOPC   O3124387   2.113   7.391  13.167 -0.2157  0.1811  0.1103
  197DOPC   C3124388   2.066   7.267  13.131 -0.1635 -0.3393  0.0407
  197DOPC   O3224389   2.080   7.227  13.016  0.0637 -0.6967  0.1640
  197DOPC   C3224390   1.987   7.209  13.244 -0.8780 -0.4353 -0.0616
  197DOPC   H2X24391   1.992   7.261  13.343  0.2044 -2.0661  0.7748
  197DOPC   H2Y24392   1.884   7.204  13.203 -0.1336 -2.8672 -1.8348
  197DOPC   C2324393   1.822   7.640  13.403 -0.3229  0.1604  0.2644
  197DOPC   H3R24394   1.752   7.556  13.385  1.3952 -1.4235  0.5692
  197DOPC   H3S24395   1.769   7.712  13.469  1.0794  1.0600  0.4525
  197DOPC   C2424396   1.948   7.596  13.477 -0.0935  0.5078  0.5083
  197DOPC   H4R24397   2.009   7.683  13.509 -0.6239  1.0651  0.0186
  197DOPC   H4S24398   2.024   7.541  13.416  0.0629  3.7136 -2.4559
  197DOPC   C2524399   1.913   7.508  13.596  0.2919 -0.1671 -0.6738
  197DOPC   H5R24400   1.989   7.433  13.627 -0.9242 -0.9864  0.4507
  197DOPC   H5S24401   1.832   7.441  13.559  0.2439 -0.1172 -0.6600
  197DOPC   C2624402   1.854   7.591  13.705  0.0091 -0.3618  0.0071
  197DOPC   H6R24403   1.761   7.646  13.679  0.4878  0.4763  0.0143
  197DOPC   H6S24404   1.928   7.672  13.722 -0.8716  0.1482  1.5187
  197DOPC   C2724405   1.826   7.501  13.821 -0.3900 -0.8073  0.0400
  197DOPC   H7R24406   1.909   7.429  13.839  1.2875  0.7646 -1.0836
  197DOPC   H7S24407   1.738   7.443  13.785 -1.2082  0.5480 -0.2227
  197DOPC   C2824408   1.793   7.567  13.955  0.0258 -0.5504  0.1640
  197DOPC   H8R24409   1.695   7.619  13.948  1.0208  1.6111  1.1969
  197DOPC   H8S24410   1.866   7.646  13.980 -0.9873 -0.0454  1.6792
  197DOPC   C2924411   1.788   7.468  14.067 -0.5543 -0.0793  0.4730
  197DOPC   H9R24412   1.700   7.404  14.046 -0.0388 -1.1570  1.5107
  197DOPC  C21024413   1.867   7.449  14.176  0.1843 -1.0669  0.0537
  197DOPC  H10R24414   1.853   7.372  14.254 -1.5490  0.3769  1.2649
  197DOPC  C21124415   1.979   7.544  14.212  0.0083  0.2579 -0.1895
  197DOPC  H11R24416   1.997   7.625  14.138  0.0923  0.2794 -0.1469
  197DOPC  H11S24417   2.077   7.491  14.212  1.3369  2.5998 -0.2061
  197DOPC  C21224418   1.983   7.616  14.352 -0.1993  0.3412 -0.5757
  197DOPC  H12R24419   1.887   7.665  14.378  0.9992  1.9524  1.0160
  197DOPC  H12S24420   2.066   7.689  14.341 -0.4227  0.7215  0.1951
  197DOPC  C21324421   2.020   7.528  14.473 -0.2147 -0.3423 -0.4577
  197DOPC  H13R24422   1.935   7.466  14.508  0.2253 -1.1857 -0.8276
  197DOPC  H13S24423   2.035   7.596  14.560 -1.9648  1.9362 -1.8478
  197DOPC  C21424424   2.140   7.431  14.457 -0.7097  0.1968  0.7023
  197DOPC  H14R24425   2.204   7.488  14.386  0.3630  0.3656  1.7762
  197DOPC  H14S24426   2.111   7.341  14.399 -0.2002  0.1512  0.5195
  197DOPC  C21524427   2.221   7.407  14.586  0.0957  0.0045 -0.3021
  197DOPC  H15R24428   2.164   7.353  14.664 -2.4194 -0.5876 -2.4075
  197DOPC  H15S24429   2.259   7.507  14.615 -0.0069 -0.4273  1.4081
  197DOPC  C21624430   2.354   7.328  14.567 -0.6508  0.0006 -0.1062
  197DOPC  H16R24431   2.405   7.387  14.488  0.6221  1.1636  1.5280
  197DOPC  H16S24432   2.334   7.232  14.514 -0.9798  0.5718 -1.0430
  197DOPC  C21724433   2.443   7.329  14.694 -0.0540 -0.5176 -0.7312
  197DOPC  H17R24434   2.415   7.242  14.757 -0.2723  0.4278  0.5181
  197DOPC  H17S24435   2.408   7.417  14.752  0.6056  0.3677 -1.6392
  197DOPC  C21824436   2.595   7.332  14.664 -0.4583 -0.2997 -1.1648
  197DOPC  H18R24437   2.647   7.356  14.759 -2.2881 -0.4075 -0.0825
  197DOPC  H18S24438   2.605   7.420  14.598  1.8629  0.7483  0.4687
  197DOPC  H18T24439   2.641   7.237  14.630 -0.2003 -1.1976  1.4438
  197DOPC   C3324440   2.047   7.073  13.277 -0.5202  0.9409 -0.0109
  197DOPC   H3X24441   2.048   7.003  13.191 -0.9655  0.1590  0.6097
  197DOPC   H3Y24442   1.974   7.031  13.349 -2.5137  2.0961 -1.2620
  197DOPC   C3424443   2.185   7.083  13.332  0.4671 -0.8686  0.1226
  197DOPC   H4X24444   2.252   7.150  13.273  0.4050 -0.6106  0.3465
  197DOPC   H4Y24445   2.238   6.986  13.319 -0.6861 -1.6148  0.8260
  197DOPC   C3524446   2.196   7.127  13.485 -1.0532 -0.2293  0.0089
  197DOPC   H5X24447   2.124   7.209  13.502 -1.5276 -0.1804 -2.0013
  197DOPC   H5Y24448   2.299   7.167  13.499 -1.0374  0.0327 -0.8275
  197DOPC   C3624449   2.172   7.012  13.584 -0.7607  0.8092 -0.1489
  197DOPC   H6X24450   2.131   7.060  13.675  0.8787 -1.1245  1.7280
  197DOPC   H6Y24451   2.090   6.944  13.551  0.4056 -0.4872 -0.5034
  197DOPC   C3724452   2.294   6.934  13.612 -0.2223 -0.1330 -0.2015
  197DOPC   H7X24453   2.335   6.909  13.512 -1.0762 -1.3585 -0.2768
  197DOPC   H7Y24454   2.370   7.006  13.649 -1.7586  3.2503 -3.0583
  197DOPC   C3824455   2.267   6.813  13.702 -0.0377  0.8124 -0.6333
  197DOPC   H8X24456   2.203   6.730  13.664 -0.6199  0.0695  1.8076
  197DOPC   H8Y24457   2.210   6.855  13.787 -1.0188  0.7624 -1.2456
  197DOPC   C3924458   2.393   6.750  13.743 -0.5760  0.1690  0.1779
  197DOPC   H9X24459   2.457   6.825  13.791  0.4512 -0.1916 -0.6085
  197DOPC  C31024460   2.434   6.619  13.733 -0.0509  1.2698  0.1429
  197DOPC  H10X24461   2.520   6.586  13.793 -0.9133 -0.3309  0.5363
  197DOPC  C31124462   2.362   6.507  13.661 -0.0689  0.5759  0.4074
  197DOPC  H11X24463   2.257   6.535  13.639 -0.5441 -2.7296 -2.4289
  197DOPC  H11Y24464   2.363   6.407  13.710  0.8117  0.3090 -0.1354
  197DOPC  C31224465   2.442   6.489  13.532  0.2233 -0.3065  0.7118
  197DOPC  H12X24466   2.542   6.450  13.557  0.3242 -0.8695 -0.4964
  197DOPC  H12Y24467   2.460   6.581  13.472  0.3282  0.1341  1.4156
  197DOPC  C31324468   2.381   6.381  13.436 -0.5664  0.1078  0.1203
  197DOPC  H13X24469   2.344   6.296  13.498  0.3320 -2.0518 -2.1364
  197DOPC  H13Y24470   2.296   6.422  13.377  1.4567  1.8303 -1.7337
  197DOPC  C31424471   2.476   6.322  13.327  0.9069 -0.1469 -0.0313
  197DOPC  H14X24472   2.519   6.415  13.283 -1.8767  1.9276  1.3156
  197DOPC  H14Y24473   2.556   6.263  13.378  0.4422 -0.1434  0.7121
  197DOPC  C31524474   2.387   6.246  13.229  0.0153  0.2882 -0.5519
  197DOPC  H15X24475   2.439   6.231  13.132  0.6345  0.3611 -0.2352
  197DOPC  H15Y24476   2.308   6.318  13.197 -1.4179 -1.1343 -0.3490
  197DOPC  C31624477   2.318   6.123  13.288  0.1096 -0.7009  0.0783
  197DOPC  H16X24478   2.253   6.152  13.373  0.2750  2.1608 -0.6561
  197DOPC  H16Y24479   2.253   6.083  13.207  2.0106 -0.3729 -1.7065
  197DOPC  C31724480   2.405   6.003  13.320  0.1931  0.3155 -0.6458
  197DOPC  H17X24481   2.477   6.005  13.236 -0.3171 -0.7662 -1.1379
  197DOPC  H17Y24482   2.465   6.033  13.409  1.2930  0.1312 -1.3012
  197DOPC  C31824483   2.349   5.862  13.335 -0.3089  0.5337 -0.2356
  197DOPC  H18X24484   2.283   5.825  13.253 -0.2590  0.7641 -0.3808
  197DOPC  H18Y24485   2.435   5.790  13.332 -1.6760 -1.2135  0.7171
  197DOPC  H18Z24486   2.296   5.837  13.429 -0.9326 -1.4584 -1.0513
  198DOPC     N24487   0.203   6.059  13.150  0.9847 -0.3937 -0.1089
  198DOPC   C1224488   0.155   6.084  13.008 -0.9962 -0.8418 -0.1619
  198DOPC  H12A24489   0.071   6.019  12.989  0.5234 -2.5590 -1.3214
  198DOPC  H12B24490   0.231   6.040  12.946 -0.3992  0.0575 -0.0952
  198DOPC   C1324491   0.351   6.074  13.164 -0.0585  0.5292  0.2848
  198DOPC  H13A24492   0.369   6.179  13.152  1.6084  0.0833 -1.5459
  198DOPC  H13B24493   0.391   6.034  13.256 -1.3911 -0.4494  0.4738
  198DOPC  H13C24494   0.402   6.033  13.078  0.8355  1.0728  0.5499
  198DOPC   C1424495   0.176   5.913  13.196  0.3193  0.4298 -0.6951
  198DOPC  H14A24496   0.070   5.896  13.187  0.6294 -1.7618 -0.7365
  198DOPC  H14B24497   0.232   5.841  13.140 -0.0630 -1.0761  0.7778
  198DOPC  H14C24498   0.203   5.903  13.300  2.5270 -1.9334 -1.4044
  198DOPC   C1524499   0.131   6.143  13.248  0.1800 -0.4947  0.2586
  198DOPC  H15A24500   0.024   6.125  13.249 -0.2617  1.8137  0.6658
  198DOPC  H15B24501   0.156   6.246  13.229  0.0147 -0.7400 -1.4862
  198DOPC  H15C24502   0.162   6.121  13.349 -0.7910  0.7125  0.8405
  198DOPC   C1124503   0.139   6.231  12.958 -0.0119 -0.0876 -0.4674
  198DOPC  H11A24504   0.109   6.215  12.852  0.3928  0.1320 -0.6162
  198DOPC  H11B24505   0.060   6.277  13.021  1.6978 -1.0084  2.5852
  198DOPC     P24506   0.274   6.447  13.002  0.1655 -0.0044 -0.0878
  198DOPC   O1324507   0.186   6.518  12.910  0.0062 -0.5253 -0.8435
  198DOPC   O1424508   0.409   6.497  13.022  0.1793 -0.0458  0.0825
  198DOPC   O1224509   0.272   6.295  12.963 -0.1201 -0.6525  0.3366
  198DOPC   O1124510   0.212   6.438  13.146 -0.0095 -0.2652  0.0417
  198DOPC    C124511   0.210   6.549  13.234  0.3011 -0.2466 -0.1362
  198DOPC    HA24512   0.119   6.609  13.212 -0.5049 -0.9824  1.0408
  198DOPC    HB24513   0.302   6.611  13.226 -0.2968  0.6066 -0.5691
  198DOPC    C224514   0.200   6.504  13.385  0.7608  0.3268 -0.2249
  198DOPC    HS24515   0.107   6.443  13.393 -0.1956  1.8299  0.6543
  198DOPC   O2124516   0.199   6.618  13.477 -0.6994 -0.0003  0.2502
  198DOPC   C2124517   0.098   6.620  13.563 -0.1057  0.1511 -0.7280
  198DOPC   O2224518   0.025   6.529  13.599  0.3089 -0.6437  0.5085
  198DOPC   C2224519   0.093   6.770  13.612  0.3159 -0.1652  0.8562
  198DOPC   H2R24520   0.004   6.801  13.554  0.0709 -1.5742  0.4503
  198DOPC   H2S24521   0.186   6.821  13.576  0.9837 -0.3751  2.2194
  198DOPC    C324522   0.313   6.405  13.427 -0.4298  0.6742  0.2292
  198DOPC    HX24523   0.404   6.463  13.404  0.4415 -0.6685  0.1887
  198DOPC    HY24524   0.317   6.316  13.360 -0.7248  1.1420 -0.4218
  198DOPC   O3124525   0.325   6.388  13.570 -0.4825 -0.0142  0.3811
  198DOPC   C3124526   0.272   6.276  13.620 -0.4751 -0.3225 -0.0797
  198DOPC   O3224527   0.219   6.192  13.552  0.1306 -0.0451  1.0906
  198DOPC   C3224528   0.280   6.276  13.774 -1.0277  0.6605 -0.3702
  198DOPC   H2X24529   0.383   6.300  13.807 -0.4145 -1.3935 -0.6598
  198DOPC   H2Y24530   0.206   6.346  13.819 -1.4582 -0.8612  1.4333
  198DOPC   C2324531   0.071   6.770  13.764 -0.3044  0.2587  0.1247
  198DOPC   H3R24532   0.171   6.761  13.811 -0.2339  1.4070  0.2275
  198DOPC   H3S24533   0.017   6.677  13.791  0.1243 -0.0595 -0.1094
  198DOPC   C2424534  -0.018   6.879  13.814  0.2797 -0.8441 -0.2311
  198DOPC   H4R24535  -0.105   6.890  13.746  0.8282  1.5449 -0.6487
  198DOPC   H4S24536   0.034   6.977  13.811  0.0332 -0.7331 -1.2869
  198DOPC   C2524537  -0.066   6.850  13.957  0.4304 -0.1863 -0.1397
  198DOPC   H5R24538  -0.145   6.775  13.935  0.4347  0.1415 -1.4016
  198DOPC   H5S24539  -0.129   6.928  14.005 -0.4209 -1.6269  1.1903
  198DOPC   C2624540   0.044   6.803  14.053  0.6814 -0.1280  0.1009
  198DOPC   H6R24541   0.127   6.873  14.032 -0.7525  1.4194 -0.6448
  198DOPC   H6S24542   0.072   6.700  14.021  2.4929  0.9013 -1.8163
  198DOPC   C2724543   0.004   6.804  14.202  0.0358 -0.3841  0.4238
  198DOPC   H7R24544  -0.092   6.754  14.228 -0.8492  0.9256 -0.2277
  198DOPC   H7S24545  -0.015   6.909  14.235 -0.2111  0.0509 -1.0412
  198DOPC   C2824546   0.114   6.732  14.290  0.9036 -0.2391 -0.1001
  198DOPC   H8R24547   0.193   6.810  14.285 -2.4775  3.4362 -1.4391
  198DOPC   H8S24548   0.150   6.642  14.236 -0.2020 -1.5120  1.1911
  198DOPC   C2924549   0.079   6.704  14.432  0.3238 -0.8231 -0.3984
  198DOPC   H9R24550   0.015   6.617  14.450  1.5807 -2.0472 -1.5712
  198DOPC  C21024551   0.131   6.764  14.540  0.0736 -0.3659 -0.5179
  198DOPC  H10R24552   0.084   6.744  14.637  0.6274  1.0305  0.0572
  198DOPC  C21124553   0.227   6.881  14.543 -0.2716  0.2756 -0.0453
  198DOPC  H11R24554   0.167   6.962  14.589  1.8856  2.3118 -0.5766
  198DOPC  H11S24555   0.271   6.914  14.447 -2.8832  2.1476 -0.7075
  198DOPC  C21224556   0.347   6.859  14.631  0.5707 -0.5062 -0.0023
  198DOPC  H12R24557   0.326   6.816  14.731 -0.1947 -1.2068 -0.4561
  198DOPC  H12S24558   0.382   6.963  14.651 -0.1647 -0.1945 -0.2934
  198DOPC  C21324559   0.465   6.781  14.573  0.2216  0.4596 -0.3142
  198DOPC  H13R24560   0.512   6.836  14.488  0.1399  1.9545  0.5732
  198DOPC  H13S24561   0.420   6.689  14.531  2.5003 -1.1298  0.5363
  198DOPC  C21424562   0.569   6.737  14.672 -1.0694  0.2387 -0.4207
  198DOPC  H14R24563   0.524   6.668  14.746  0.5468 -0.1568  0.2474
  198DOPC  H14S24564   0.609   6.813  14.742  2.2533 -0.5434 -1.2793
  198DOPC  C21524565   0.691   6.669  14.602  0.2276  0.1708 -0.7364
  198DOPC  H15R24566   0.761   6.751  14.572  1.2575 -0.6935 -0.7589
  198DOPC  H15S24567   0.650   6.626  14.508  0.7884 -0.6832 -0.5991
  198DOPC  C21624568   0.767   6.568  14.691  0.0958  0.3484  0.4059
  198DOPC  H16R24569   0.838   6.518  14.622 -1.5276  0.1289 -1.1658
  198DOPC  H16S24570   0.698   6.489  14.726  0.5339  0.5085  1.6953
  198DOPC  C21724571   0.845   6.626  14.815 -0.6118 -0.3086  0.3292
  198DOPC  H17R24572   0.773   6.658  14.893  0.6335 -1.8148  2.1870
  198DOPC  H17S24573   0.916   6.699  14.771  1.4700 -2.7484 -0.5973
  198DOPC  C21824574   0.928   6.520  14.876  0.4783  0.8005  0.4342
  198DOPC  H18R24575   1.016   6.552  14.935  1.0563 -0.1663  0.1091
  198DOPC  H18S24576   0.968   6.448  14.802  0.6283 -1.7364  2.8187
  198DOPC  H18T24577   0.858   6.459  14.937 -0.4478  1.1496 -0.2572
  198DOPC   C3324578   0.257   6.133  13.820  0.7059  0.8135 -0.3497
  198DOPC   H3X24579   0.311   6.052  13.767  0.2382 -0.5614  1.1907
  198DOPC   H3Y24580   0.150   6.111  13.800 -0.2035 -0.6807  4.7643
  198DOPC   C3424581   0.283   6.118  13.970 -0.5460  0.3610 -0.2561
  198DOPC   H4X24582   0.226   6.200  14.020 -1.0855  0.0346 -0.3201
  198DOPC   H4Y24583   0.391   6.125  13.995 -0.7312 -2.1607  1.7082
  198DOPC   C3524584   0.230   5.984  14.027  0.0687  0.7144 -0.0009
  198DOPC   H5X24585   0.269   5.897  13.970  1.9884  1.6842 -0.2570
  198DOPC   H5Y24586   0.120   5.987  14.009  0.1213 -0.9754 -0.7723
  198DOPC   C3624587   0.242   5.952  14.177  0.3503  0.1325 -0.8498
  198DOPC   H6X24588   0.167   6.012  14.234  0.8435  0.0650 -0.1166
  198DOPC   H6Y24589   0.197   5.853  14.199  0.6962 -0.0596 -1.0093
  198DOPC   C3724590   0.388   5.973  14.218 -0.1714  0.6148 -0.2170
  198DOPC   H7X24591   0.455   5.907  14.157  1.1394  1.7364 -0.0343
  198DOPC   H7Y24592   0.422   6.074  14.188  1.9752 -0.2576 -0.9753
  198DOPC   C3824593   0.401   5.965  14.372  0.1191 -0.0777 -0.6336
  198DOPC   H8X24594   0.308   6.005  14.419  1.5039  2.6492  0.0134
  198DOPC   H8Y24595   0.485   6.032  14.400  0.9458 -0.2801 -2.4607
  198DOPC   C3924596   0.427   5.822  14.421  0.1441 -0.0052 -0.4399
  198DOPC   H9X24597   0.466   5.757  14.341 -1.7526 -1.7476 -0.0527
  198DOPC  C31024598   0.390   5.769  14.539  0.1605 -0.8280 -0.0425
  198DOPC  H10X24599   0.415   5.664  14.562  1.4812 -0.2596  1.2238
  198DOPC  C31124600   0.336   5.846  14.658 -0.3142 -0.0594 -0.0709
  198DOPC  H11X24601   0.225   5.840  14.650 -0.3801  0.8070  0.1148
  198DOPC  H11Y24602   0.345   5.957  14.662 -2.7916  0.1785  1.1701
  198DOPC  C31224603   0.375   5.802  14.798 -0.3086  0.2885  0.8877
  198DOPC  H12X24604   0.390   5.887  14.868  2.2523  0.0128  0.7501
  198DOPC  H12Y24605   0.475   5.755  14.805  0.1616  1.2801  0.9497
  198DOPC  C31324606   0.259   5.710  14.845  0.1084  0.0746 -0.6738
  198DOPC  H13X24607   0.159   5.759  14.852 -0.5260 -1.2399 -0.1699
  198DOPC  H13Y24608   0.251   5.624  14.775  0.3323 -0.4940 -0.0080
  198DOPC  C31424609   0.277   5.632  14.976  0.0734 -0.0381  0.2944
  198DOPC  H14X24610   0.387   5.616  14.986  0.5136  2.4378  0.2799
  198DOPC  H14Y24611   0.261   5.697  15.065 -1.8410 -1.2797  0.9014
  198DOPC  C31524612   0.186   5.509  14.996 -0.5073 -0.6884  0.3113
  198DOPC  H15X24613   0.213   5.447  14.908  0.5245 -0.1823  0.2553
  198DOPC  H15Y24614   0.079   5.538  15.002 -0.2773  0.6239 -1.2434
  198DOPC  C31624615   0.238   5.421  15.117  1.0298  0.0789  0.4062
  198DOPC  H16X24616   0.342   5.382  15.110  0.5415 -1.6545  1.8719
  198DOPC  H16Y24617   0.237   5.481  15.210  1.0265 -1.3634  1.3782
  198DOPC  C31724618   0.148   5.293  15.137 -0.0824  0.0913  0.0377
  198DOPC  H17X24619   0.178   5.228  15.222 -2.8059 -0.7801  0.4369
  198DOPC  H17Y24620   0.046   5.329  15.160 -0.4159 -1.0756  0.4382
  198DOPC  C31824621   0.124   5.213  15.004  0.0581 -0.1695  0.0339
  198DOPC  H18X24622   0.066   5.120  15.025  0.3072 -0.5177 -0.7976
  198DOPC  H18Y24623   0.058   5.268  14.933  1.2786 -0.5074 -1.3965
  198DOPC  H18Z24624   0.223   5.180  14.967  1.4957  1.3801  2.2370
  199DOPC     N24625   6.439   0.661  12.746 -0.5900 -0.0557 -0.2337
  199DOPC   C1224626   6.492   0.630  12.885 -0.4165 -0.3089  0.8736
  199DOPC  H12A24627   6.412   0.611  12.956  0.4031 -1.3584  1.5456
  199DOPC  H12B24628   6.530   0.724  12.921  0.3291 -0.8628  1.5675
  199DOPC   C1324629   6.532   0.754  12.666 -0.3667 -0.2590 -0.3139
  199DOPC  H13A24630   6.541   0.851  12.713  0.6639 -1.4849  2.2404
  199DOPC  H13B24631   6.630   0.713  12.643 -0.1794  1.2312 -2.4090
  199DOPC  H13C24632   6.491   0.766  12.567 -0.2344 -1.4583 -0.5370
  199DOPC   C1424633   6.306   0.727  12.753 -0.0564  0.3375  0.7234
  199DOPC  H14A24634   6.321   0.824  12.798  0.3138 -1.0388  3.8558
  199DOPC  H14B24635   6.250   0.729  12.661  0.8819 -2.7242 -0.0531
  199DOPC  H14C24636   6.248   0.679  12.830  2.8580 -2.5016  1.3779
  199DOPC   C1524637   6.421   0.534  12.680  0.5174  0.2917  0.7602
  199DOPC  H15A24638   6.522   0.496  12.675  0.5965  0.5331  0.4710
  199DOPC  H15B24639   6.379   0.536  12.580 -2.3131 -2.2187  1.7669
  199DOPC  H15C24640   6.375   0.457  12.740  3.0086 -0.6340  1.5980
  199DOPC   C1124641   6.606   0.522  12.893 -0.4679  0.2403  0.3121
  199DOPC  H11A24642   6.676   0.537  12.807 -0.2300 -2.9237 -0.1837
  199DOPC  H11B24643   6.676   0.548  12.975 -2.4189  0.6536  1.9046
  199DOPC     P24644   6.486   0.356  13.042  0.1698  0.1259  0.0213
  199DOPC   O1324645   6.463   0.211  13.060 -0.4965 -0.3095  0.1414
  199DOPC   O1424646   6.368   0.438  13.050 -0.0355 -0.1607  0.6532
  199DOPC   O1224647   6.550   0.388  12.898  0.2228 -0.1057 -0.1930
  199DOPC   O1124648   6.582   0.405  13.153  0.5151 -0.5899  0.0651
  199DOPC    C124649   6.703   0.361  13.209 -0.6749 -0.0088 -0.0835
  199DOPC    HA24650   6.750   0.445  13.264 -1.1120 -0.8481  1.6626
  199DOPC    HB24651   6.773   0.313  13.138  2.0315  1.7976  1.2250
  199DOPC    C224652   6.672   0.259  13.323 -1.0834  0.8557 -0.5696
  199DOPC    HS24653   6.626   0.164  13.288 -0.1573 -1.3551  3.4928
  199DOPC   O2124654   6.586   0.311  13.424  0.5472 -0.8543  0.4418
  199DOPC   C2124655   6.511   0.239  13.493 -0.1915  0.2863  0.0117
  199DOPC   O2224656   6.493   0.116  13.472 -0.8222 -0.0349 -0.1152
  199DOPC   C2224657   6.443   0.326  13.601 -0.0649  0.2705 -0.3097
  199DOPC   H2R24658   6.370   0.263  13.655 -1.5285  0.6325 -1.7919
  199DOPC   H2S24659   6.379   0.406  13.558  0.0354  1.8193  2.1926
  199DOPC    C324660   6.819   0.213  13.384  0.6613 -0.4556 -0.2922
  199DOPC    HX24661   6.869   0.304  13.424 -0.9408  0.5130 -0.3865
  199DOPC    HY24662   6.874   0.180  13.294 -1.4669 -1.1779 -1.4049
  199DOPC   O3124663   6.806   0.111  13.487 -0.3200  0.2799 -0.2429
  199DOPC   C3124664   6.796  -0.013  13.439  0.1414 -0.2866  0.0222
  199DOPC   O3224665   6.775  -0.044  13.324 -0.4398 -0.2363 -0.0837
  199DOPC   C3224666   6.840  -0.100  13.557  0.6299 -0.2255 -0.0916
  199DOPC   H2X24667   6.829  -0.209  13.538 -0.3953 -0.0838 -0.3715
  199DOPC   H2Y24668   6.949  -0.081  13.551  0.2361  1.7154 -3.0275
  199DOPC   C2324669   6.549   0.403  13.691  0.4401 -0.5259 -0.2450
  199DOPC   H3R24670   6.486   0.474  13.749  1.1957 -0.2522  0.2741
  199DOPC   H3S24671   6.618   0.458  13.624 -1.2520  0.6983 -1.0267
  199DOPC   C2424672   6.606   0.319  13.801  0.2803  0.6179 -0.0799
  199DOPC   H4R24673   6.665   0.239  13.752 -1.0547 -0.4431 -0.0328
  199DOPC   H4S24674   6.521   0.274  13.857 -0.3313  2.0827  0.2082
  199DOPC   C2524675   6.715   0.399  13.890  0.4070  0.2001  0.2360
  199DOPC   H5R24676   6.651   0.454  13.963  0.8679  0.6658  0.2942
  199DOPC   H5S24677   6.772   0.466  13.823  1.4437 -0.8157  0.0781
  199DOPC   C2624678   6.809   0.313  13.971  0.0962  0.2282 -0.2362
  199DOPC   H6R24679   6.870   0.244  13.909 -1.3783  0.1762 -1.6967
  199DOPC   H6S24680   6.752   0.254  14.046  0.2637  0.0617 -0.2409
  199DOPC   C2724681   6.897   0.386  14.071 -0.0566 -0.4168  0.2744
  199DOPC   H7R24682   6.827   0.461  14.115 -0.6455 -0.0698 -1.1938
  199DOPC   H7S24683   6.974   0.450  14.023  0.1050 -0.8720 -0.0761
  199DOPC   C2824684   6.958   0.303  14.176  0.2762 -0.6173 -0.0117
  199DOPC   H8R24685   7.015   0.219  14.133  0.4173 -0.4681 -0.1185
  199DOPC   H8S24686   6.879   0.271  14.247 -0.2510  2.5419  0.9926
  199DOPC   C2924687   7.064   0.389  14.251  1.1632 -0.6031  0.1656
  199DOPC   H9R24688   7.148   0.426  14.189  1.3724  0.8299  1.2567
  199DOPC  C21024689   7.046   0.447  14.371  0.1047  0.3386  0.1069
  199DOPC  H10R24690   7.136   0.489  14.418  0.4507 -2.9333  2.7448
  199DOPC  C21124691   6.932   0.435  14.464  0.5646 -0.2400 -0.5293
  199DOPC  H11R24692   6.832   0.431  14.414  0.0689 -1.2532  0.4959
  199DOPC  H11S24693   6.922   0.524  14.530 -1.4088  0.0344 -1.1336
  199DOPC  C21224694   6.944   0.304  14.557 -0.0504 -0.1941  0.4316
  199DOPC  H12R24695   6.921   0.215  14.495 -0.3335 -0.4038  0.8376
  199DOPC  H12S24696   6.868   0.317  14.636 -1.8973 -1.5230 -1.0491
  199DOPC  C21324697   7.077   0.284  14.627  0.5767 -0.0781  0.0269
  199DOPC  H13R24698   7.122   0.382  14.652 -1.3547  0.6386  0.8514
  199DOPC  H13S24699   7.143   0.224  14.560  0.9279  0.7096 -0.3530
  199DOPC  C21424700   7.072   0.192  14.749  0.5304  0.2137 -0.0222
  199DOPC  H14R24701   7.167   0.137  14.769  1.3253  1.1740 -1.0329
  199DOPC  H14S24702   6.991   0.118  14.733  0.6919 -0.1340  0.7098
  199DOPC  C21524703   7.032   0.263  14.885  0.2486  0.0052  0.6808
  199DOPC  H15R24704   6.945   0.332  14.873 -0.7379 -1.4308 -0.8940
  199DOPC  H15S24705   7.122   0.320  14.915  1.5613 -1.8220  0.3508
  199DOPC  C21624706   6.994   0.167  14.997 -0.6894  0.0012  0.1595
  199DOPC  H16R24707   7.055   0.077  14.973  2.0922  1.7707  0.1502
  199DOPC  H16S24708   6.891   0.128  14.985 -0.8137 -0.4484  2.2476
  199DOPC  C21724709   7.023   0.213  15.136  0.5458 -1.1160  0.1629
  199DOPC  H17R24710   6.954   0.288  15.180  0.6671 -1.1287  0.3765
  199DOPC  H17S24711   7.126   0.251  15.147 -0.1603  0.2703  2.6767
  199DOPC  C21824712   7.007   0.101  15.235 -0.7094  0.0043 -0.1060
  199DOPC  H18R24713   7.084   0.124  15.312  0.3485  1.1226 -1.4413
  199DOPC  H18S24714   7.028   0.001  15.192  0.6360  1.5549 -3.4465
  199DOPC  H18T24715   6.904   0.100  15.277 -0.4524  1.4370  0.6250
  199DOPC   C3324716   6.779  -0.058  13.692  0.5509  0.1267  0.2860
  199DOPC   H3X24717   6.771   0.053  13.704  0.5698  0.1149  0.4111
  199DOPC   H3Y24718   6.846  -0.093  13.773  1.1151  3.4768  1.4562
  199DOPC   C3424719   6.643  -0.123  13.719 -0.4970 -0.0147 -0.8149
  199DOPC   H4X24720   6.652  -0.230  13.689  0.1161  0.5770 -2.9041
  199DOPC   H4Y24721   6.564  -0.067  13.665  0.6058  0.9349 -1.4804
  199DOPC   C3524722   6.602  -0.105  13.870 -0.0969  0.0968 -0.2524
  199DOPC   H5X24723   6.624   0.003  13.886 -0.4672  0.0412  0.6854
  199DOPC   H5Y24724   6.663  -0.166  13.939  1.5520 -0.4320 -2.0824
  199DOPC   C3624725   6.452  -0.134  13.892 -0.0708 -0.2233  0.3142
  199DOPC   H6X24726   6.385  -0.081  13.821  0.2325  1.6494  1.3520
  199DOPC   H6Y24727   6.441  -0.244  13.881 -0.1559 -0.1914  0.0795
  199DOPC   C3724728   6.406  -0.089  14.028  0.1837  0.0548 -0.3555
  199DOPC   H7X24729   6.469  -0.141  14.103 -0.8425 -0.8171 -0.0773
  199DOPC   H7Y24730   6.421   0.021  14.037 -1.5519  0.2675  0.2858
  199DOPC   C3824731   6.254  -0.127  14.042 -0.2523  0.7575 -0.5999
  199DOPC   H8X24732   6.235  -0.228  13.999 -0.9345  0.4499  0.3796
  199DOPC   H8Y24733   6.188  -0.065  13.979  0.4676 -0.1516 -2.3060
  199DOPC   C3924734   6.219  -0.126  14.190 -0.0695 -0.1863 -0.5387
  199DOPC   H9X24735   6.293  -0.177  14.253 -0.1434  0.5654  0.1820
  199DOPC  C31024736   6.119  -0.073  14.256 -0.0282  0.4970  0.1601
  199DOPC  H10X24737   6.108  -0.096  14.362  0.3755  1.6913  0.4828
  199DOPC  C31124738   5.999   0.014  14.203 -0.3195  0.0802  0.0869
  199DOPC  H11X24739   5.913  -0.051  14.179  0.1503 -1.2732  1.8311
  199DOPC  H11Y24740   6.040   0.076  14.120  1.7474 -0.0791  0.9074
  199DOPC  C31224741   5.957   0.116  14.305  0.2788 -0.3072 -0.1803
  199DOPC  H12X24742   5.893   0.191  14.253  1.2835 -0.2807 -1.4136
  199DOPC  H12Y24743   6.053   0.157  14.342  0.8834 -2.0525  0.2713
  199DOPC  C31324744   5.864   0.055  14.417 -0.1372  0.0089  0.3278
  199DOPC  H13X24745   5.774   0.024  14.360  1.1058 -0.4688 -1.4552
  199DOPC  H13Y24746   5.916  -0.040  14.442 -0.0638 -0.6245 -2.0000
  199DOPC  C31424747   5.828   0.155  14.536 -0.1106  0.3485 -0.3470
  199DOPC  H14X24748   5.921   0.201  14.576 -0.6142  1.1804 -0.1105
  199DOPC  H14Y24749   5.764   0.240  14.504  0.3580  0.5502 -0.7519
  199DOPC  C31524750   5.739   0.076  14.639  0.8185  0.6076 -0.6250
  199DOPC  H15X24751   5.800  -0.005  14.685 -1.0175  0.5049  1.8373
  199DOPC  H15Y24752   5.649   0.033  14.592 -1.2965  1.8788  1.9922
  199DOPC  C31624753   5.699   0.162  14.761  0.1032  0.3118  0.0236
  199DOPC  H16X24754   5.783   0.216  14.809 -1.2124  2.8531 -0.3674
  199DOPC  H16Y24755   5.633   0.239  14.715 -1.2648 -0.8496 -0.0265
  199DOPC  C31724756   5.621   0.084  14.867 -0.7208 -1.2785  0.5258
  199DOPC  H17X24757   5.687   0.016  14.924  0.7747  0.2220  0.6653
  199DOPC  H17Y24758   5.584   0.169  14.929  2.4999  1.3308 -0.8222
  199DOPC  C31824759   5.501   0.004  14.804 -0.2913 -0.2141  0.4951
  199DOPC  H18X24760   5.543  -0.084  14.750  2.7105 -0.8557  3.5298
  199DOPC  H18Y24761   5.430  -0.022  14.885 -0.7886  3.6634  1.5412
  199DOPC  H18Z24762   5.448   0.070  14.731  1.1371  0.8126  0.3358
  200DOPC     N24763   0.139   0.468  12.572 -0.2921  0.1565 -0.7342
  200DOPC   C1224764   0.132   0.436  12.721  0.1629 -0.1232  0.4869
  200DOPC  H12A24765   0.170   0.335  12.728  0.3265 -0.0600  0.5291
  200DOPC  H12B24766   0.027   0.443  12.743 -0.3952  1.8999 -2.2916
  200DOPC   C1324767   0.290   0.476  12.541  0.3527 -0.0342  0.5682
  200DOPC  H13A24768   0.330   0.376  12.554 -0.2626 -0.1902  1.2939
  200DOPC  H13B24769   0.313   0.496  12.437  0.5851  0.4647  0.7129
  200DOPC  H13C24770   0.340   0.552  12.599  0.6011 -0.1089  0.4560
  200DOPC   C1424771   0.069   0.602  12.547 -0.8106  0.3285 -0.3911
  200DOPC  H14A24772   0.058   0.625  12.442 -2.7393  0.5462 -0.1667
  200DOPC  H14B24773  -0.034   0.602  12.577 -1.0947  1.5035 -1.2562
  200DOPC  H14C24774   0.120   0.680  12.601 -0.7977  0.0892 -0.0530
  200DOPC   C1524775   0.078   0.365  12.485 -0.4822  0.5689  0.4621
  200DOPC  H15A24776  -0.029   0.356  12.497 -0.7223  2.5032  0.1263
  200DOPC  H15B24777   0.122   0.270  12.513  0.7915  0.8732 -0.3933
  200DOPC  H15C24778   0.106   0.383  12.382  1.1830 -1.1582  0.5446
  200DOPC   C1124779   0.207   0.512  12.827  0.7003  0.2862  0.5720
  200DOPC  H11A24780   0.167   0.482  12.926  2.1618 -0.2861  1.0308
  200DOPC  H11B24781   0.311   0.472  12.831  0.3968 -0.4613  1.2490
  200DOPC     P24782   0.135   0.749  12.898  0.0750  0.4898 -0.1794
  200DOPC   O1324783  -0.000   0.700  12.925 -0.1955 -0.5691  0.5849
  200DOPC   O1424784   0.143   0.885  12.845 -0.1641 -0.3681  0.5454
  200DOPC   O1224785   0.215   0.658  12.802 -0.4853  0.1683  0.4369
  200DOPC   O1124786   0.213   0.744  13.030  0.1025  0.1098  0.1451
  200DOPC    C124787   0.339   0.793  13.064 -0.0887  0.4416 -0.2940
  200DOPC    HA24788   0.388   0.840  12.976  1.6321 -2.1405 -0.8218
  200DOPC    HB24789   0.405   0.707  13.086  1.2469  1.3856 -0.5313
  200DOPC    C224790   0.321   0.902  13.179 -0.1784  0.0942  0.5741
  200DOPC    HS24791   0.421   0.951  13.191 -1.0809  2.2453 -0.1355
  200DOPC   O2124792   0.278   0.851  13.303 -0.0614  0.1759  0.3954
  200DOPC   C2124793   0.375   0.775  13.365 -0.0473 -0.3825  0.1346
  200DOPC   O2224794   0.486   0.747  13.320  0.9471 -0.2593 -0.2013
  200DOPC   C2224795   0.329   0.740  13.508  0.2366 -0.2179  0.0027
  200DOPC   H2R24796   0.352   0.635  13.538  1.0063 -0.4004 -1.1808
  200DOPC   H2S24797   0.220   0.757  13.516 -0.1884 -2.4144 -0.4991
  200DOPC    C324798   0.226   1.025  13.132 -0.6899 -0.2591  0.4705
  200DOPC    HX24799   0.126   0.978  13.123  0.9518 -4.0498  0.0314
  200DOPC    HY24800   0.248   1.063  13.030  0.1113 -3.3272 -0.6071
  200DOPC   O3124801   0.232   1.131  13.234 -0.1874 -0.0326  0.0613
  200DOPC   C3124802   0.314   1.222  13.205 -0.2803  0.5248  0.0868
  200DOPC   O3224803   0.392   1.238  13.113  0.3991  0.6122 -0.4150
  200DOPC   C3224804   0.308   1.319  13.323 -0.3007  0.2281 -0.1781
  200DOPC   H2X24805   0.369   1.410  13.306 -0.5516  0.5583  0.6435
  200DOPC   H2Y24806   0.211   1.359  13.358  0.9347  1.1362  2.4698
  200DOPC   C2324807   0.408   0.843  13.601 -0.2915  0.1299 -0.4590
  200DOPC   H3R24808   0.339   0.847  13.688  0.7216  0.0213  0.3801
  200DOPC   H3S24809   0.415   0.940  13.547  3.2898  1.4454  1.8960
  200DOPC   C2424810   0.541   0.812  13.656 -0.1377 -0.3723  0.1441
  200DOPC   H4R24811   0.610   0.797  13.569 -1.3268  1.2193 -1.1361
  200DOPC   H4S24812   0.534   0.718  13.714 -1.3873 -0.9864 -0.9412
  200DOPC   C2524813   0.609   0.918  13.740  0.1450 -0.1951 -0.1664
  200DOPC   H5R24814   0.616   1.010  13.677 -0.2256  1.1073  1.6174
  200DOPC   H5S24815   0.714   0.892  13.765  0.3090 -0.0643 -0.6899
  200DOPC   C2624816   0.531   0.939  13.871 -0.3391  0.1731  0.0289
  200DOPC   H6R24817   0.423   0.964  13.861 -1.5551 -4.9120 -3.2802
  200DOPC   H6S24818   0.565   1.037  13.909 -1.9244  0.5050  0.6879
  200DOPC   C2724819   0.557   0.830  13.974 -0.0827 -0.3517  0.9839
  200DOPC   H7R24820   0.533   0.725  13.945 -0.5313  0.7750 -3.4994
  200DOPC   H7S24821   0.486   0.852  14.057  2.2384  0.6683  2.7948
  200DOPC   C2824822   0.684   0.838  14.051 -0.6491 -0.1008 -0.2878
  200DOPC   H8R24823   0.719   0.941  14.073  1.5579 -1.1939  1.7273
  200DOPC   H8S24824   0.768   0.799  13.989 -1.1702  0.3091 -1.2799
  200DOPC   C2924825   0.683   0.764  14.190  0.7724  0.4877  1.0455
  200DOPC   H9R24826   0.609   0.815  14.254  3.1302  2.1932  2.5566
  200DOPC  C21024827   0.753   0.657  14.225 -0.1026  0.5054  0.1999
  200DOPC  H10R24828   0.728   0.600  14.316 -0.4995  0.0100 -0.2092
  200DOPC  C21124829   0.863   0.602  14.137 -0.6085  0.5733 -0.7821
  200DOPC  H11R24830   0.845   0.610  14.028  3.2478  1.7510 -1.4816
  200DOPC  H11S24831   0.873   0.494  14.162 -1.1875  1.1194  2.1667
  200DOPC  C21224832   1.007   0.657  14.170 -0.1528  0.4013  0.8719
  200DOPC  H12R24833   1.030   0.662  14.279  1.9576  2.4268  0.4079
  200DOPC  H12S24834   1.005   0.761  14.131 -0.6472 -0.0657 -0.4135
  200DOPC  C21324835   1.111   0.567  14.094 -0.2599 -0.1003 -0.5754
  200DOPC  H13R24836   1.090   0.540  13.988  1.0172 -4.5979  0.1194
  200DOPC  H13S24837   1.104   0.471  14.148 -0.1275  1.5710  2.6506
  200DOPC  C21424838   1.255   0.625  14.116  0.2625 -0.3408  0.0249
  200DOPC  H14R24839   1.332   0.546  14.112  0.1708 -0.3919 -1.5994
  200DOPC  H14S24840   1.264   0.674  14.215  1.3294 -0.7898  0.1574
  200DOPC  C21524841   1.280   0.720  14.002  0.1707 -0.2972  0.3408
  200DOPC  H15R24842   1.372   0.776  14.030  0.4445  0.5572 -2.0249
  200DOPC  H15S24843   1.192   0.788  13.993 -0.4158 -0.7871  2.0723
  200DOPC  C21624844   1.310   0.644  13.873  0.1715 -0.6361 -0.8231
  200DOPC  H16R24845   1.227   0.574  13.847 -0.9138 -0.0669  0.9635
  200DOPC  H16S24846   1.404   0.589  13.895 -0.9325 -2.0099  0.7507
  200DOPC  C21724847   1.328   0.735  13.754 -0.9861 -0.3163  0.0080
  200DOPC  H17R24848   1.395   0.683  13.682 -2.5865  0.8422 -2.4355
  200DOPC  H17S24849   1.397   0.819  13.778 -0.2362 -0.7888 -0.4193
  200DOPC  C21824850   1.201   0.788  13.688  0.0595 -0.4382  0.6624
  200DOPC  H18R24851   1.179   0.724  13.600  0.6123 -1.4596  1.2461
  200DOPC  H18S24852   1.224   0.888  13.647 -0.5445 -0.2969  0.6596
  200DOPC  H18T24853   1.117   0.801  13.760 -0.8510 -2.7781  0.1365
  200DOPC   C3324854   0.367   1.252  13.450  0.4586  0.6449  0.2226
  200DOPC   H3X24855   0.315   1.156  13.470 -0.3799  0.9236 -0.5552
  200DOPC   H3Y24856   0.348   1.311  13.543  2.3453 -0.8190  1.6166
  200DOPC   C3424857   0.523   1.226  13.433  1.2477 -1.0456 -0.0480
  200DOPC   H4X24858   0.564   1.250  13.332  0.6435 -2.0785 -0.5644
  200DOPC   H4Y24859   0.537   1.117  13.454 -1.4775 -1.5540 -0.4787
  200DOPC   C3524860   0.607   1.303  13.534  0.0005  0.5697 -0.1370
  200DOPC   H5X24861   0.713   1.282  13.508 -0.0376 -0.0855  0.2284
  200DOPC   H5Y24862   0.583   1.259  13.633 -1.8703  0.6779 -0.5045
  200DOPC   C3624863   0.596   1.460  13.539 -0.9417 -0.0731  0.2053
  200DOPC   H6X24864   0.646   1.488  13.444 -1.0433 -0.1014  0.1434
  200DOPC   H6Y24865   0.490   1.490  13.533 -0.6321  0.9743 -0.1757
  200DOPC   C3724866   0.681   1.534  13.650  0.4532  0.3351  0.6989
  200DOPC   H7X24867   0.789   1.520  13.632 -0.1883 -2.0882 -2.0431
  200DOPC   H7Y24868   0.656   1.641  13.633 -0.7050  0.0479  0.4954
  200DOPC   C3824869   0.628   1.502  13.792  0.3017  0.6037  0.2469
  200DOPC   H8X24870   0.601   1.395  13.795 -1.2909  0.9973  0.6056
  200DOPC   H8Y24871   0.529   1.551  13.805  0.4365  1.6741 -2.1863
  200DOPC   C3924872   0.734   1.531  13.892 -0.0098  0.5486 -0.0242
  200DOPC   H9X24873   0.835   1.497  13.864 -0.2832 -1.1564  0.9507
  200DOPC  C31024874   0.714   1.568  14.021  0.2051 -0.0664 -0.3380
  200DOPC  H10X24875   0.805   1.596  14.076  1.7713 -2.9710 -1.2373
  200DOPC  C31124876   0.587   1.602  14.091 -0.0539  0.1492 -0.2037
  200DOPC  H11X24877   0.499   1.588  14.025  0.5462 -0.8038 -0.8435
  200DOPC  H11Y24878   0.599   1.704  14.133  0.2894 -1.3547  3.8667
  200DOPC  C31224879   0.564   1.521  14.222  0.2765 -0.3984  0.6119
  200DOPC  H12X24880   0.564   1.411  14.205 -0.4976 -0.3374  0.1748
  200DOPC  H12Y24881   0.460   1.541  14.258 -0.5397 -2.5373 -0.3755
  200DOPC  C31324882   0.651   1.546  14.348 -0.6684 -0.2008 -0.4165
  200DOPC  H13X24883   0.751   1.501  14.332  0.0083  1.0435  0.2397
  200DOPC  H13Y24884   0.665   1.656  14.344 -1.5949 -0.0652 -0.2239
  200DOPC  C31424885   0.580   1.522  14.481 -0.6800  0.4697  0.4030
  200DOPC  H14X24886   0.498   1.596  14.491 -0.7161  0.3590  0.9192
  200DOPC  H14Y24887   0.534   1.421  14.470  0.2042 -0.1214  1.8282
  200DOPC  C31524888   0.674   1.522  14.597  0.1125  0.4349 -0.0558
  200DOPC  H15X24889   0.720   1.623  14.607  2.1217 -0.4237 -0.3498
  200DOPC  H15Y24890   0.761   1.457  14.576  0.0919  0.6597 -0.8731
  200DOPC  C31624891   0.610   1.476  14.734 -0.0389  0.3216  0.3305
  200DOPC  H16X24892   0.574   1.371  14.728  0.0422  0.3056  0.0895
  200DOPC  H16Y24893   0.688   1.481  14.813 -1.5097  2.8279  1.7418
  200DOPC  C31724894   0.489   1.555  14.781  0.5546 -0.5411 -0.4479
  200DOPC  H17X24895   0.525   1.652  14.819 -1.8278 -0.5877  2.2659
  200DOPC  H17Y24896   0.415   1.567  14.699 -0.5055  0.6061  0.6378
  200DOPC  C31824897   0.414   1.488  14.897 -0.7193 -0.7564  0.3853
  200DOPC  H18X24898   0.343   1.554  14.951 -0.9532  0.5816 -1.4781
  200DOPC  H18Y24899   0.341   1.416  14.856 -0.1204 -1.4972  0.6037
  200DOPC  H18Z24900   0.480   1.444  14.975  0.2607  1.4566  0.8752
  201SOD    SOD24901   2.456   2.518  17.715  0.0543 -0.0073  0.3222
  202SOD    SOD24902   4.147   0.224  11.936 -0.5849 -0.5641 -0.6214
  203SOD    SOD24903   5.260   6.975  17.657  0.3821  0.1772 -0.0323
  204SOD    SOD24904   6.919   3.843  12.001 -0.0401  0.4411 -0.1123
  205SOD    SOD24905   2.376   6.782  18.196 -0.3550 -0.1375 -0.2059
  206SOD    SOD24906   7.204   7.123  12.576  0.2146  0.3906  0.4058
  207SOD    SOD24907   2.002   1.298  11.649  0.0993  0.3798  0.1294
  208SOD    SOD24908   4.151   2.144  16.746  0.1971  0.6334  0.3862
  209SOD    SOD24909   1.966   4.782  12.445  0.0243  0.2255 -0.5126
  210SOD    SOD24910   1.815   1.013  18.084 -0.3384 -0.1331 -0.3121
  211SOD    SOD24911   7.634   1.507  19.012 -0.2145 -0.2426 -0.5068
  212SOD    SOD24912   1.870   2.557  16.771  0.3195 -0.0759  0.3968
  213SOD    SOD24913   0.725   5.866  12.230  0.5817  0.2809 -0.2556
  214SOD    SOD24914   1.919   5.682  16.700 -0.4559  0.5915  0.4773
  215SOD    SOD24915   7.068   4.506  18.695  0.4378  0.2317  0.3234
  216SOD    SOD24916   6.059   1.144  17.836  0.3176  0.3186  0.2604
  217SOD    SOD24917   0.555   1.192  12.948 -0.1247  0.0078  0.1897
  218SOD    SOD24918   3.608   7.246  18.087  0.3082 -0.5218 -0.4841
  219SOD    SOD24919   3.387   5.811  17.443 -0.2356 -0.0064 -0.3706
  220SOD    SOD24920   0.663   4.130  10.654 -0.1177  0.3535 -0.0855
  221SOD    SOD24921   3.914   7.330  12.377 -0.7031  0.2030 -0.3284
  222SOD    SOD24922   6.351   0.643  18.283 -0.1427 -0.0023  0.2023
  223SOD    SOD24923   0.387   2.441  11.702 -0.5717 -0.0376  0.2634
  224SOD    SOD24924   5.253   2.162  12.522 -0.0589 -0.1048  0.0688
  225SOD    SOD24925   0.082   6.762  11.027  0.1378 -0.3402  0.6154
  226SOD    SOD24926   0.887   7.505  17.709  0.0151 -0.3870 -0.1237
  227CLA    CLA24927   5.515   0.198  12.490 -0.2314 -0.0402  0.0502
  228CLA    CLA24928   3.231   3.845  10.927 -0.1882 -0.1748 -0.1219
  229CLA    CLA24929   5.899   1.910  12.120  0.3230 -0.1559  0.1452
  230CLA    CLA24930   1.612   0.562  18.656 -0.0956  0.1949 -0.0873
  231CLA    CLA24931   1.159   7.296  18.447 -0.0225  0.0132  0.0313
  232CLA    CLA24932   1.180   4.858  18.057 -0.1083  0.1735 -0.2736
  233CLA    CLA24933   4.403   2.316  18.197 -0.6263 -0.1616 -0.1624
  234CLA    CLA24934   7.354   1.939  17.866  0.4074 -0.5272  0.2913
  235CLA    CLA24935   1.588   6.910  11.543 -0.0890 -0.0457  0.1785
  236CLA    CLA24936   4.927   2.273  18.474 -0.0940 -0.1500 -0.0719
  237CLA    CLA24937   6.934   0.059  19.167 -0.4416  0.2593 -0.1552
  238CLA    CLA24938   4.814   5.392  12.291  0.1356 -0.6053 -0.2377
  239CLA    CLA24939   0.400   0.843  12.018  0.0151 -0.1112  0.2429
  240CLA    CLA24940   4.248   5.405  17.818 -0.1015 -0.3678 -0.2148
  241CLA    CLA24941   1.328   0.141  11.204 -0.5541  0.4755  0.1658
  242CLA    CLA24942   3.523   0.426  17.664 -0.0678 -0.1247 -0.3713
  243CLA    CLA24943   3.724   0.322  11.465  0.1416 -0.3002 -0.4816
  244CLA    CLA24944   6.568   4.251  12.147  0.0840  0.2583 -0.4242
  245CLA    CLA24945   0.273   3.715  11.641  0.1332 -0.0419 -0.3664
  246CLA    CLA24946   2.100   1.161  18.492  0.0254 -0.1059 -0.3757
  247CLA    CLA24947   6.150   4.098  12.025 -0.3001  0.3610 -0.2642
  248CLA    CLA24948   3.350   5.706  11.451 -0.2633 -0.5648  0.0115
  249CLA    CLA24949   1.499   5.391  12.053 -0.1160  0.2884  0.2111
  250CLA    CLA24950   0.252   2.660  18.432 -0.2255 -0.2457  0.2428
  251CLA    CLA24951   4.854   0.661  17.697  0.1066 -0.1062 -0.1407
  252CLA    CLA24952   7.442   2.175  12.894 -0.4050  0.2074 -0.2455
  253TIP3   OH224953   6.162   1.494  19.459  0.0114  0.5961  0.3517
  253TIP3    H124954   6.153   1.564  19.523 -0.7246  0.3303  0.5435
  253TIP3    H224955   6.131   1.415  19.504 -1.2031  0.5278 -0.5386
  254TIP3   OH224956   7.084   6.627  16.849  0.3305 -0.3533 -0.1325
  254TIP3    H124957   7.161   6.670  16.812 -0.5699  0.5057 -1.0702
  254TIP3    H224958   7.024   6.699  16.869  0.3746 -0.8583  2.1370
  255TIP3   OH224959   4.348   5.649  17.612 -0.0301 -0.3544 -0.1425
  255TIP3    H124960   4.390   5.659  17.698 -0.9119 -0.2366  0.2873
  255TIP3    H224961   4.295   5.570  17.620 -0.0645 -0.3802 -0.5995
  256TIP3   OH224962   4.279   2.348  17.094  0.1364 -0.2703 -0.8248
  256TIP3    H124963   4.308   2.380  17.009 -0.2089  1.6766 -0.2456
  256TIP3    H224964   4.292   2.253  17.089  0.1361 -0.2102 -3.0298
  257TIP3   OH224965   1.951   1.735  17.982  0.2590 -0.0180 -0.5241
  257TIP3    H124966   1.938   1.643  18.003  0.1363  0.1062 -0.0423
  257TIP3    H224967   1.952   1.779  18.067  1.3442  0.2953 -0.6831
  258TIP3   OH224968   0.963   6.544  16.929 -0.2925 -0.1375 -0.0227
  258TIP3    H124969   1.020   6.467  16.930 -0.0534  0.0284 -0.5467
  258TIP3    H224970   1.011   6.611  16.978 -0.4976 -0.3111  0.4280
  259TIP3   OH224971   5.337   6.121  17.684 -0.1369  0.1607  0.2122
  259TIP3    H124972   5.363   6.183  17.616  0.3491  1.7774  1.8082
  259TIP3    H224973   5.251   6.089  17.655 -0.1510  1.1576 -0.9250
  260TIP3   OH224974   4.444   2.703  19.160 -0.1112 -0.6718  0.4480
  260TIP3    H124975   4.515   2.662  19.210 -0.2100 -2.2382 -0.6186
  260TIP3    H224976   4.364   2.672  19.203 -0.1724 -0.5528  0.4188
  261TIP3   OH224977   3.420   2.905  17.056 -0.5925  0.0280 -0.1982
  261TIP3    H124978   3.492   2.946  17.104 -1.5152  1.0843  0.3350
  261TIP3    H224979   3.458   2.880  16.972  0.9298 -1.3772  0.8392
  262TIP3   OH224980   6.316   0.887  18.775  0.4015 -0.2631  0.7899
  262TIP3    H124981   6.292   0.931  18.694  1.2159 -0.3483  0.4878
  262TIP3    H224982   6.350   0.802  18.747 -0.8050 -0.9462  1.3415
  263TIP3   OH224983   6.932   7.286  19.453 -0.1078  0.1579 -0.4528
  263TIP3    H124984   6.858   7.333  19.491  0.5030 -0.0829  1.1054
  263TIP3    H224985   6.973   7.349  19.393 -0.3802  0.9753  0.2113
  264TIP3   OH224986   3.381   1.671  18.952 -0.1571 -0.8868  0.3995
  264TIP3    H124987   3.309   1.625  18.993 -1.9467 -0.8731 -2.4433
  264TIP3    H224988   3.398   1.746  19.009 -1.8133 -1.3516  1.5581
  265TIP3   OH224989   6.407   2.165  18.900 -0.1032 -0.0798 -0.0283
  265TIP3    H124990   6.366   2.141  18.983  0.1770 -1.7877 -0.3426
  265TIP3    H224991   6.494   2.198  18.924 -0.7077  1.1847  0.4623
  266TIP3   OH224992   5.970   5.512  18.862 -0.1147 -0.3759  0.0114
  266TIP3    H124993   5.950   5.444  18.798  1.2963  1.0608 -2.1062
  266TIP3    H224994   5.925   5.590  18.830  1.4599  0.6420  0.1122
  267TIP3   OH224995   0.674   3.241  19.067  0.3854  0.1505  0.0658
  267TIP3    H124996   0.589   3.236  19.111 -1.6432  0.4449 -3.4252
  267TIP3    H224997   0.692   3.150  19.041  1.3967  0.0316  1.0765
  268TIP3   OH224998   2.258   0.445  18.699  0.4156  0.3960 -0.2954
  268TIP3    H124999   2.271   0.412  18.788 -0.1644 -1.7888 -0.9725
  268TIP3    H225000   2.164   0.437  18.684  0.5542  0.4366 -1.2310
  269TIP3   OH225001   3.560   6.064  18.190 -0.9164  0.0582 -0.2812
  269TIP3    H125002   3.603   6.128  18.247  0.9898  0.0541 -1.6373
  269TIP3    H225003   3.610   5.984  18.202 -0.5595  0.0244 -1.8268
  270TIP3   OH225004   7.488   0.064  19.338  0.9847 -0.5829  0.1385
  270TIP3    H125005   7.556   0.095  19.278  0.8541  0.0157  0.2960
  270TIP3    H225006   7.413   0.046  19.282  0.5489  0.8911  0.2258
  271TIP3   OH225007   3.388   3.139  18.523 -0.1922  0.5128  0.1506
  271TIP3    H125008   3.344   3.208  18.574  0.8254  1.9124 -0.7904
  271TIP3    H225009   3.407   3.071  18.588 -1.0149  1.2139  1.1707
  272TIP3   OH225010   5.926   4.249  19.159  0.1801  0.5540 -0.1122
  272TIP3    H125011   5.845   4.285  19.121  0.4128  1.2078  0.0039
  272TIP3    H225012   5.917   4.154  19.146 -0.0016  0.7080 -1.3077
  273TIP3   OH225013   7.630   2.000  18.949 -0.0495  0.1381 -0.2799
  273TIP3    H125014   7.571   2.048  19.008  0.4256  0.1230  0.2134
  273TIP3    H225015   7.717   2.014  18.985  0.1841 -0.3823 -0.6276
  274TIP3   OH225016   0.155   1.219  18.288 -0.3436 -0.0797 -0.3592
  274TIP3    H125017   0.065   1.192  18.308 -1.4512  2.3869 -1.6141
  274TIP3    H225018   0.209   1.153  18.331 -2.6450 -0.0676  2.9984
  275TIP3   OH225019   5.235   1.229  18.974 -0.5407  0.2890 -0.2651
  275TIP3    H125020   5.299   1.205  18.907  0.1085 -2.2116  1.1209
  275TIP3    H225021   5.174   1.155  18.976  0.0301 -0.2228  2.5005
  276TIP3   OH225022   3.985   2.154  17.711 -0.0879 -0.1109  0.1312
  276TIP3    H125023   3.998   2.241  17.675 -2.0136  1.1204  2.1102
  276TIP3    H225024   3.929   2.110  17.647  1.3188 -0.1471 -1.1336
  277TIP3   OH225025   2.385   5.465  18.535 -0.4873 -0.2134 -0.0951
  277TIP3    H125026   2.302   5.444  18.493  0.2099 -1.5229 -0.8969
  277TIP3    H225027   2.451   5.439  18.472  0.5502  0.9414  0.4681
  278TIP3   OH225028   4.205   5.450  18.671 -0.1746 -0.0778 -0.0614
  278TIP3    H125029   4.273   5.471  18.607 -0.8585 -0.5937 -0.9994
  278TIP3    H225030   4.175   5.535  18.703  0.6486  0.1660  0.0946
  279TIP3   OH225031   7.464   0.590  17.695 -0.1399 -0.1338 -0.1402
  279TIP3    H125032   7.384   0.570  17.743 -0.0954 -0.9930 -0.4085
  279TIP3    H225033   7.472   0.685  17.700  0.6261 -0.2619  2.7666
  280TIP3   OH225034   5.515   2.703  16.990 -0.0419 -0.4126 -0.4975
  280TIP3    H125035   5.516   2.626  16.933 -0.2526 -0.0918 -0.9436
  280TIP3    H225036   5.434   2.749  16.968 -0.4710 -0.6398  0.5592
  281TIP3   OH225037   6.407   0.733  17.920 -0.3863 -0.0197 -0.4269
  281TIP3    H125038   6.484   0.680  17.942 -1.6219 -0.7939  2.4493
  281TIP3    H225039   6.345   0.670  17.882 -0.7605 -0.0887  0.2717
  282TIP3   OH225040   1.975   7.017  17.536  0.3464  0.7276  0.8217
  282TIP3    H125041   1.940   7.031  17.624 -2.8818  3.0546 -0.6412
  282TIP3    H225042   1.902   6.980  17.487  1.9525 -0.1480 -1.0103
  283TIP3   OH225043   2.284   0.627  17.440  0.0238 -0.0435  0.0528
  283TIP3    H125044   2.366   0.588  17.472  0.0136 -0.3518 -0.3022
  283TIP3    H225045   2.312   0.685  17.369 -0.1531 -0.8127 -0.6534
  284TIP3   OH225046   0.223   3.276  11.896 -0.0399  0.0306  0.5275
  284TIP3    H125047   0.142   3.259  11.848  0.0337 -1.0592  0.7570
  284TIP3    H225048   0.254   3.361  11.864 -2.5398  1.7145  2.1684
  285TIP3   OH225049   0.049   3.712  12.369 -0.4531 -0.6048  0.2219
  285TIP3    H125050   0.112   3.642  12.355 -0.3314 -0.3460 -0.5298
  285TIP3    H225051   0.014   3.732  12.282  0.2071  0.9291  0.2806
  286TIP3   OH225052   3.947   4.850  11.993  0.1047  0.1976 -0.5774
  286TIP3    H125053   3.921   4.822  11.905  0.2196 -2.1366  0.0544
  286TIP3    H225054   3.960   4.768  12.040  1.1472  1.3958  1.3079
  287TIP3   OH225055   4.787   6.994  10.947 -0.3605  0.3473 -0.2745
  287TIP3    H125056   4.876   7.005  10.981  0.5442  3.2151 -3.0223
  287TIP3    H225057   4.786   6.905  10.911  1.0459 -0.1222  0.7454
  288TIP3   OH225058   5.205   5.197  11.418  0.4067  0.0351 -0.3054
  288TIP3    H125059   5.185   5.285  11.386 -0.2356  0.3189  0.8041
  288TIP3    H225060   5.193   5.140  11.342 -0.6664  0.7305 -0.6794
  289TIP3   OH225061   5.340   2.839  12.192  0.1683 -0.0923 -0.0517
  289TIP3    H125062   5.361   2.931  12.177 -0.0691 -0.3379 -2.2314
  289TIP3    H225063   5.289   2.813  12.115  1.0190 -2.2802  0.0473
  290TIP3   OH225064   0.009   4.816  12.876  0.0138 -0.2453 -0.0841
  290TIP3    H125065  -0.034   4.822  12.790  0.5069 -1.4223 -0.4386
  290TIP3    H225066   0.008   4.723  12.896  1.3613 -0.1618  0.4305
  291TIP3   OH225067   5.209   2.615  12.629 -0.2699 -0.8992 -0.2840
  291TIP3    H125068   5.155   2.649  12.702  0.6378  0.6462 -0.2794
  291TIP3    H225069   5.207   2.686  12.564  3.6368  0.3443  0.7054
  292TIP3   OH225070   2.799   4.479  11.122  0.5986  0.0583 -0.1388
  292TIP3    H125071   2.785   4.555  11.178  2.5532 -0.3078  0.9453
  292TIP3    H225072   2.784   4.511  11.033  0.8037  1.5511  0.3366
  293TIP3   OH225073   5.627   3.493  12.156 -0.3978  0.1223  0.3625
  293TIP3    H125074   5.708   3.496  12.207  0.3685  3.1630 -0.7749
  293TIP3    H225075   5.651   3.449  12.075 -0.4807 -0.8651  0.8612
  294TIP3   OH225076   0.491   3.047  10.856 -0.2754  0.1823  0.4591
  294TIP3    H125077   0.554   3.118  10.840 -0.4660  0.6248  1.5313
  294TIP3    H225078   0.528   3.001  10.932 -0.6826 -0.2329  0.4037
  295TIP3   OH225079   0.850   5.366  12.303 -0.1733 -0.3539 -0.1871
  295TIP3    H125080   0.789   5.320  12.246 -0.1697 -2.2494  1.2281
  295TIP3    H225081   0.810   5.359  12.390  0.8658  0.5434  0.3756
  296TIP3   OH225082   4.044   6.592  11.066  0.0588  0.5669 -0.0750
  296TIP3    H125083   3.952   6.603  11.093  0.9552  1.2093  3.1991
  296TIP3    H225084   4.054   6.497  11.057 -0.5635  0.3494  1.2175
  297TIP3   OH225085   1.951   5.944  11.497 -0.6463  0.8908  0.6047
  297TIP3    H125086   1.974   5.977  11.584  4.0106 -0.7422  0.2968
  297TIP3    H225087   1.939   5.850  11.510  0.5424  0.5612 -0.5168
  298TIP3   OH225088   2.747   1.221  11.201 -0.4118 -0.3980 -0.0664
  298TIP3    H125089   2.718   1.171  11.125 -0.6831 -0.4629  0.0752
  298TIP3    H225090   2.721   1.311  11.181 -2.7285 -0.7522  0.9811
  299TIP3   OH225091   4.043   6.368  10.786  0.0450  1.0596 -0.2835
  299TIP3    H125092   4.029   6.356  10.880 -0.6968  1.7425 -0.2939
  299TIP3    H225093   3.988   6.302  10.745  1.8171 -0.5424 -0.2438
  300TIP3   OH225094   1.174   2.571  11.110  0.0367  0.3326  0.0535
  300TIP3    H125095   1.212   2.643  11.060 -0.3301  0.5823  0.1237
  300TIP3    H225096   1.095   2.548  11.061  0.9568 -1.0625 -0.8178
  301TIP3   OH225097   7.452   0.792  12.916 -0.2234  0.7110  0.1011
  301TIP3    H125098   7.466   0.886  12.907  0.8398  0.6729  1.1100
  301TIP3    H225099   7.537   0.757  12.942 -0.0111 -0.8689 -2.4455
  302TIP3   OH225100   1.028   5.987  10.851  0.1660 -0.3515 -0.6350
  302TIP3    H125101   0.948   6.031  10.826 -0.2115 -1.0919 -0.7602
  302TIP3    H225102   1.096   6.027  10.797 -0.0007  0.7129 -0.0887
  303TIP3   OH225103   0.389   1.498  12.166  0.2218  0.4702 -0.5216
  303TIP3    H125104   0.368   1.554  12.091 -0.0768  1.1424  0.0503
  303TIP3    H225105   0.313   1.441  12.175  0.5696 -0.1062 -1.1696
  304TIP3   OH225106   1.501   2.023  12.395 -0.9557 -0.4200 -0.3625
  304TIP3    H125107   1.415   2.053  12.365 -0.7592  0.1936 -0.3210
  304TIP3    H225108   1.489   1.929  12.411 -1.6064 -0.3488 -0.3959
  305TIP3   OH225109   7.091   2.564  13.441 -0.5776  0.3577 -0.6336
  305TIP3    H125110   7.086   2.475  13.474 -1.9501  0.9906  1.0418
  305TIP3    H225111   7.154   2.607  13.500 -0.6069  0.7153 -0.8607
  306TIP3   OH225112   6.114   4.946  11.612 -0.0550 -0.1294  0.2527
  306TIP3    H125113   6.083   4.925  11.524  0.7494 -1.5906  0.2995
  306TIP3    H225114   6.035   4.944  11.667 -0.9926  3.1222 -0.7565
  307TIP3   OH225115   3.145   0.648  12.364 -0.0008  0.3932 -0.1704
  307TIP3    H125116   3.171   0.621  12.452 -1.1726  1.0440  0.3917
  307TIP3    H225117   3.068   0.594  12.344 -2.9720  3.7138  1.3334
  308TIP3   OH225118   2.294   4.228  12.471 -0.1400  0.0388 -0.4359
  308TIP3    H125119   2.322   4.232  12.563  0.5758  2.2990 -0.7039
  308TIP3    H225120   2.306   4.136  12.447  3.1358  0.0390  0.7048
  309TIP3   OH225121   5.385   1.843  10.938 -0.1811  0.1435  0.5343
  309TIP3    H125122   5.305   1.832  10.886  0.0836 -0.8751  0.3230
  309TIP3    H225123   5.398   1.938  10.942 -0.7522  0.2782 -0.4348
  310TIP3   OH225124   5.673   7.059  11.788 -0.5311  0.4500  0.1299
  310TIP3    H125125   5.588   7.086  11.822 -1.2306 -0.8354 -0.5171
  310TIP3    H225126   5.652   7.010  11.708  0.7740 -0.3205  0.2370
  311TIP3   OH225127   3.735   3.436  12.227  0.1771  0.0676  0.3581
  311TIP3    H125128   3.695   3.350  12.212 -0.4177 -0.0770  2.3595
  311TIP3    H225129   3.724   3.450  12.321  0.3819  2.2884  0.0967
  312TIP3   OH225130   6.503   3.669  13.704  0.4966  0.6452  0.0746
  312TIP3    H125131   6.419   3.625  13.690  0.8043  0.1859 -0.4000
  312TIP3    H225132   6.481   3.762  13.713  0.1181  0.8716 -2.4235
  313TIP3   OH225133   0.486   2.950  11.395 -0.6768  0.1471 -0.3431
  313TIP3    H125134   0.488   2.856  11.415 -0.1469  0.4846  1.3612
  313TIP3    H225135   0.564   2.965  11.342 -1.3823 -0.5548 -1.6266
  314TIP3   OH225136   0.834   3.949  11.801  0.6208 -0.2172 -0.4626
  314TIP3    H125137   0.844   3.879  11.866 -0.4513 -0.6604 -0.7477
  314TIP3    H225138   0.861   3.909  11.719  0.2025 -0.2375 -0.5927
  315TIP3   OH225139   3.185   0.144  12.752 -0.2906 -0.3055 -0.2867
  315TIP3    H125140   3.265   0.174  12.795 -0.3876 -0.2640 -0.1337
  315TIP3    H225141   3.118   0.145  12.822 -0.4059 -0.4133 -0.3940
  316TIP3   OH225142   1.692   4.852  10.981  0.8073 -0.1741  0.3466
  316TIP3    H125143   1.615   4.825  10.931 -1.3542  2.0200  2.2107
  316TIP3    H225144   1.761   4.794  10.952 -1.5175 -2.2398 -1.5082
  317TIP3   OH225145   4.986   5.555  11.742 -0.4550 -0.1502  0.4937
  317TIP3    H125146   5.036   5.581  11.665  1.4442 -2.2519  0.9315
  317TIP3    H225147   4.938   5.634  11.767  0.4285  1.1425 -1.6401
  318TIP3   OH225148   4.741   3.260  10.600  0.4006  0.0982  0.6000
  318TIP3    H125149   4.801   3.217  10.660 -1.3049 -1.4190  1.2818
  318TIP3    H225150   4.750   3.353  10.620 -0.2059 -0.3494  3.3501
  319TIP3   OH225151   1.752   0.138  12.937 -0.2925 -0.0413 -0.1024
  319TIP3    H125152   1.731   0.195  12.864 -2.6817 -1.8263 -0.9317
  319TIP3    H225153   1.823   0.082  12.904 -0.6672 -0.1645 -0.7085
  320TIP3   OH225154   2.511   3.800  10.513  0.3501 -1.0210  0.0565
  320TIP3    H125155   2.427   3.816  10.555  0.9156 -0.0190  0.8656
  320TIP3    H225156   2.492   3.740  10.441 -1.6250  1.6338 -1.8220
  321TIP3   OH225157   1.566   5.803  10.175  0.4016  0.0077 -0.5125
  321TIP3    H125158   1.571   5.810  10.079 -0.7141  0.4429 -0.5461
  321TIP3    H225159   1.625   5.731  10.196  1.3539  0.4858 -1.4432
  322TIP3   OH225160   3.976   3.459  12.093 -0.3048 -0.4866  0.4847
  322TIP3    H125161   3.890   3.437  12.128 -1.6624 -0.6106 -2.6076
  322TIP3    H225162   3.972   3.434  12.001  2.3300  1.4618 -0.2966
  323TIP3   OH225163   0.030   5.058  17.499 -0.0312 -0.0702  0.3587
  323TIP3    H125164  -0.049   5.108  17.478 -0.6161 -1.0536  0.1249
  323TIP3    H225165   0.014   5.023  17.586 -0.0769 -0.6666  0.1206
  324TIP3   OH225166   5.243   2.787  19.655  0.1856 -0.0699  0.4628
  324TIP3    H125167   5.209   2.700  19.634 -1.0332 -0.0931  2.2871
  324TIP3    H225168   5.287   2.776  19.739  1.6531  0.7238 -0.1770
  325TIP3   OH225169   1.909   0.563  17.584  0.5443  0.0575 -0.0996
  325TIP3    H125170   1.855   0.505  17.637  1.8938 -0.2442  1.0154
  325TIP3    H225171   1.856   0.583  17.507 -1.1961 -0.0585  1.0301
  326TIP3   OH225172   5.379   6.771  18.911 -0.2752  0.3263  0.0909
  326TIP3    H125173   5.299   6.720  18.900  0.5043 -1.2798  1.3403
  326TIP3    H225174   5.447   6.718  18.871  0.4025  0.9030  0.4561
  327TIP3   OH225175   4.694   3.949  19.023  0.4238 -0.1629 -0.0410
  327TIP3    H125176   4.715   4.009  19.095 -2.0827  1.5957 -0.6145
  327TIP3    H225177   4.714   3.998  18.944 -1.3118 -0.1353 -0.5172
  328TIP3   OH225178   4.042   4.908  17.290 -0.3479  0.2731 -0.0494
  328TIP3    H125179   3.977   4.867  17.347 -1.1140  2.5791  0.8867
  328TIP3    H225180   4.010   4.892  17.201 -3.1769  2.5462  0.3763
  329TIP3   OH225181   0.570   3.967  18.580 -0.6571  0.3974 -0.0148
  329TIP3    H125182   0.542   3.884  18.618  0.1471  0.4267  0.6801
  329TIP3    H225183   0.639   3.942  18.518 -1.8440  0.3642 -1.3899
  330TIP3   OH225184   5.590   6.628  18.791 -0.6268  0.3276  0.6100
  330TIP3    H125185   5.653   6.659  18.728 -1.2572  2.7183  1.0778
  330TIP3    H225186   5.554   6.548  18.752 -0.0451  1.0035 -1.4160
  331TIP3   OH225187   1.408   5.101  18.751 -0.8817 -0.4016  0.3178
  331TIP3    H125188   1.491   5.071  18.714  0.3868  2.5770  0.4588
  331TIP3    H225189   1.341   5.047  18.708  1.0695 -2.7043  0.0068
  332TIP3   OH225190   0.258   7.086  18.646 -0.1087 -0.0681  0.0130
  332TIP3    H125191   0.260   7.104  18.552  0.1814  2.8216  0.4767
  332TIP3    H225192   0.165   7.090  18.669 -0.1810 -0.7893 -0.1400
  333TIP3   OH225193   0.155   6.824  19.287  0.6505  0.0750  0.0429
  333TIP3    H125194   0.226   6.764  19.264 -0.1339 -0.4987 -0.9463
  333TIP3    H225195   0.199   6.896  19.332  2.0036  0.2743 -1.4975
  334TIP3   OH225196   4.461   1.367  18.245  0.0727  0.0997 -0.2593
  334TIP3    H125197   4.499   1.329  18.324 -0.0051  1.3146  0.3925
  334TIP3    H225198   4.366   1.360  18.258  0.0569 -0.3153 -0.5669
  335TIP3   OH225199   6.028   6.375  18.376 -0.0497 -0.7049 -0.1428
  335TIP3    H125200   6.001   6.442  18.313 -1.2234 -1.6344 -0.6763
  335TIP3    H225201   6.102   6.332  18.334 -0.3446 -0.8167 -0.5571
  336TIP3   OH225202   4.785   4.500  19.266  0.5829  0.0673 -0.2505
  336TIP3    H125203   4.793   4.490  19.361  1.9045  3.0936  0.0582
  336TIP3    H225204   4.699   4.541  19.254  0.6824  0.2680 -0.2837
  337TIP3   OH225205   5.727   3.501  17.237  0.2391  0.4731  0.0909
  337TIP3    H125206   5.757   3.485  17.147 -2.1530 -0.3813 -0.6190
  337TIP3    H225207   5.685   3.586  17.234 -0.0874  0.3210  0.3432
  338TIP3   OH225208   4.806   6.635  16.771 -0.1863  0.7859  0.3758
  338TIP3    H125209   4.723   6.611  16.812  0.1335 -0.2522  0.4530
  338TIP3    H225210   4.785   6.647  16.678 -0.4868  0.8805  0.4576
  339TIP3   OH225211   0.052   5.424  18.786  0.1642 -0.5607 -0.4186
  339TIP3    H125212   0.141   5.423  18.753  0.2841 -0.3757 -0.1052
  339TIP3    H225213   0.029   5.517  18.792  0.2211 -0.5797  0.2112
  340TIP3   OH225214   7.239   4.439  17.032  0.4023 -0.6809  0.5565
  340TIP3    H125215   7.199   4.377  16.970 -1.4778 -0.3160  1.3149
  340TIP3    H225216   7.256   4.517  16.979 -1.0813 -0.4109  0.4180
  341TIP3   OH225217   0.557   5.964  19.207 -0.3169  0.0545  0.7387
  341TIP3    H125218   0.619   5.993  19.274  2.7883 -1.0838 -1.4477
  341TIP3    H225219   0.547   5.870  19.223 -0.2486 -0.0586  0.1176
  342TIP3   OH225220   1.494   5.602  19.413  0.1598  0.3532 -0.4478
  342TIP3    H125221   1.555   5.573  19.481  0.1540  1.1082 -0.1131
  342TIP3    H225222   1.513   5.545  19.338  0.5869 -0.0800 -0.0178
  343TIP3   OH225223   4.651   7.422  17.465 -0.0684  0.2416 -0.1562
  343TIP3    H125224   4.614   7.382  17.386 -0.3508  0.1301  0.0341
  343TIP3    H225225   4.576   7.456  17.513  0.2873  2.7369 -1.2373
  344TIP3   OH225226   5.348   5.385  17.721 -0.1204  0.4691 -0.1011
  344TIP3    H125227   5.277   5.321  17.726  0.9956 -0.7323  2.5877
  344TIP3    H225228   5.308   5.464  17.684 -2.7083 -0.3266  0.8274
  345TIP3   OH225229   0.235   5.926  17.945 -0.0458  0.2818 -0.1515
  345TIP3    H125230   0.273   5.912  18.032  1.4503  1.3090 -0.6163
  345TIP3    H225231   0.156   5.978  17.962  0.0440  0.1865  0.6048
  346TIP3   OH225232   7.679   1.880  17.891  0.1645 -0.4969 -0.5544
  346TIP3    H125233   7.702   1.853  17.980  0.0579  2.9518  0.6594
  346TIP3    H225234   7.584   1.885  17.891  0.1465 -0.7720 -0.9860
  347TIP3   OH225235   3.705   0.287  18.329  0.1360 -0.5808 -0.2155
  347TIP3    H125236   3.776   0.325  18.276 -0.2962  0.9459  0.2820
  347TIP3    H225237   3.653   0.237  18.266  0.0543  0.6043 -1.1233
  348TIP3   OH225238   6.846   4.598  17.204 -0.3436  0.7696 -0.2371
  348TIP3    H125239   6.862   4.639  17.119 -0.6797  0.3224 -0.5127
  348TIP3    H225240   6.777   4.651  17.243  0.6716  1.7532  0.3046
  349TIP3   OH225241   4.487   4.428  19.589 -0.3790  0.0378  0.0781
  349TIP3    H125242   4.474   4.379  19.508  2.6366  0.0627 -0.5258
  349TIP3    H225243   4.398   4.443  19.622 -1.7198 -0.1649 -3.0794
  350TIP3   OH225244   3.906   2.116  19.040 -0.1792 -0.1210 -0.0642
  350TIP3    H125245   3.918   2.148  18.951 -1.0792  0.2688 -0.0634
  350TIP3    H225246   3.994   2.102  19.073  0.1819  0.3414 -0.7980
  351TIP3   OH225247   5.074   4.072  19.045 -0.2370 -0.2212 -0.4364
  351TIP3    H125248   5.139   4.140  19.063  0.0286 -0.1721 -1.4626
  351TIP3    H225249   4.995   4.102  19.090  0.5852 -0.5587  1.2902
  352TIP3   OH225250   7.281   4.145  17.790 -0.2806  0.3611  0.3635
  352TIP3    H125251   7.203   4.102  17.825 -0.8228 -0.6596 -1.8740
  352TIP3    H225252   7.259   4.161  17.698  1.7273  1.1523 -0.0197
  353TIP3   OH225253   5.808   3.431  18.184  0.1627  0.4131  0.1046
  353TIP3    H125254   5.787   3.510  18.233  0.6274  1.0686 -0.7246
  353TIP3    H225255   5.773   3.446  18.096  0.8826  0.0164 -0.2680
  354TIP3   OH225256   5.072   5.926  19.069 -0.3851  0.0661  0.1125
  354TIP3    H125257   5.011   5.902  18.999 -0.2967  2.4234 -0.8657
  354TIP3    H225258   5.045   5.872  19.143 -0.8330 -2.1347 -1.5407
  355TIP3   OH225259   2.019   4.171  17.732  0.8685  0.6475 -1.1505
  355TIP3    H125260   1.979   4.258  17.740  0.4663  0.3438  1.0527
  355TIP3    H225261   2.094   4.174  17.792 -0.5920 -1.2049  0.9390
  356TIP3   OH225262   1.475   5.394  17.389  0.1951  0.7331 -0.4759
  356TIP3    H125263   1.478   5.306  17.351  0.7227  1.1972 -1.5233
  356TIP3    H225264   1.483   5.379  17.483  1.8251 -0.2681 -0.7350
  357TIP3   OH225265   2.996   3.354  19.267 -0.0588  0.1098 -0.0592
  357TIP3    H125266   2.939   3.310  19.330  1.1800 -1.5276 -0.0348
  357TIP3    H225267   2.984   3.306  19.186  2.0550 -0.9650  0.2173
  358TIP3   OH225268   3.343   4.903  17.029  0.0365  0.4329  0.2041
  358TIP3    H125269   3.387   4.836  16.977 -0.5216  0.7678 -0.7314
  358TIP3    H225270   3.373   4.986  16.992  1.0849  0.7442  1.6558
  359TIP3   OH225271   3.896   6.232  17.650 -0.2799 -0.3054  0.0789
  359TIP3    H125272   3.933   6.314  17.616 -1.3344 -0.0435 -0.4790
  359TIP3    H225273   3.971   6.186  17.687  0.5623  0.3162 -0.7969
  360TIP3   OH225274   1.605   4.936  17.094  0.0850 -0.1334 -0.4326
  360TIP3    H125275   1.534   4.883  17.058  0.3341 -1.1483  0.5244
  360TIP3    H225276   1.619   4.900  17.182  0.9954  0.8214 -0.1775
  361TIP3   OH225277   3.218   6.681  17.559 -0.2536 -0.3244  0.3395
  361TIP3    H125278   3.182   6.732  17.486 -0.3666 -0.5547  0.2316
  361TIP3    H225279   3.258   6.745  17.617  0.5121 -0.2025 -0.3045
  362TIP3   OH225280   7.195   6.473  19.283 -0.0530 -0.2367 -0.4616
  362TIP3    H125281   7.150   6.406  19.333  0.6907 -0.8639 -0.6174
  362TIP3    H225282   7.279   6.434  19.260 -0.4215 -0.0187 -2.3136
  363TIP3   OH225283   7.088   4.066  18.888  0.8572  0.2538  0.3916
  363TIP3    H125284   7.058   3.982  18.852  0.2425  0.3259  0.7232
  363TIP3    H225285   7.168   4.045  18.935  0.0548 -0.3911  1.5354
  364TIP3   OH225286   4.033   2.254  19.456  0.1107 -0.1873 -0.2476
  364TIP3    H125287   3.958   2.200  19.482 -0.1181  0.1653 -0.1660
  364TIP3    H225288   4.079   2.202  19.390 -0.9755  0.1746 -1.3219
  365TIP3   OH225289   3.636   2.743  18.751 -0.2989  0.1156 -0.3137
  365TIP3    H125290   3.586   2.824  18.751 -0.5328 -0.0275 -0.8158
  365TIP3    H225291   3.591   2.687  18.688  0.0356 -0.2963 -0.1882
  366TIP3   OH225292   6.818   3.044  17.963  0.1331 -0.4205  0.5155
  366TIP3    H125293   6.799   3.093  17.882 -0.1806 -0.7916  0.3632
  366TIP3    H225294   6.769   3.090  18.031 -1.9200 -1.7374  0.0288
  367TIP3   OH225295   1.708   4.910  18.416  0.2330  0.2017  0.3571
  367TIP3    H125296   1.710   4.834  18.358 -0.5214  0.1877  0.3443
  367TIP3    H225297   1.755   4.978  18.367  2.7241 -0.8008  1.2108
  368TIP3   OH225298   6.392   2.844  18.113 -0.2983  0.1915  0.0328
  368TIP3    H125299   6.411   2.919  18.056  2.0023 -1.0325 -0.9488
  368TIP3    H225300   6.301   2.823  18.096 -0.5388  1.7857 -0.8597
  369TIP3   OH225301   1.503   5.672  16.835 -0.4597  0.0618  0.4276
  369TIP3    H125302   1.506   5.709  16.924  1.1309 -1.5209  1.0959
  369TIP3    H225303   1.428   5.612  16.837 -0.0878 -0.3913  0.8842
  370TIP3   OH225304   4.749   1.136  17.660  0.4062 -0.5573  0.1262
  370TIP3    H125305   4.696   1.119  17.738  0.2982  0.3059  0.2494
  370TIP3    H225306   4.795   1.218  17.679 -1.1624  0.7821 -1.5000
  371TIP3   OH225307   1.505   2.552  18.887 -0.0080 -0.3320 -0.1693
  371TIP3    H125308   1.550   2.495  18.950 -2.0918 -0.7505  1.0469
  371TIP3    H225309   1.575   2.591  18.834  1.6569 -1.7903  0.8747
  372TIP3   OH225310   4.290   2.630  18.221  0.1146 -0.3139 -0.2148
  372TIP3    H125311   4.285   2.534  18.220  2.5905 -0.5203  0.1495
  372TIP3    H225312   4.262   2.654  18.309 -0.4017 -0.7082 -0.2647
  373TIP3   OH225313   4.740   1.314  17.410  0.1915  0.2299 -0.3430
  373TIP3    H125314   4.694   1.248  17.462 -1.4972 -0.3589 -2.4586
  373TIP3    H225315   4.735   1.393  17.464  2.6798 -1.3307  2.4557
  374TIP3   OH225316   6.662   5.944  18.615  0.4005 -0.3926  1.1229
  374TIP3    H125317   6.653   5.850  18.599  1.2388 -0.0553 -1.8287
  374TIP3    H225318   6.572   5.977  18.614  0.2066 -0.9260  0.5256
  375TIP3   OH225319   1.805   5.860  17.839  0.4487  0.6653  0.3344
  375TIP3    H125320   1.883   5.809  17.858  0.7369  1.6289  1.8752
  375TIP3    H225321   1.818   5.893  17.750  1.9818  1.1518  0.7239
  376TIP3   OH225322   7.228   4.655  16.854  0.2214 -0.4498 -0.3823
  376TIP3    H125323   7.249   4.589  16.788  1.1619 -0.9973  0.4486
  376TIP3    H225324   7.149   4.698  16.820  1.1877 -0.0863 -2.3110
  377TIP3   OH225325   5.661   7.429  18.550  0.2182 -0.3026  0.6049
  377TIP3    H125326   5.722   7.361  18.579 -0.5854 -0.5290  1.8892
  377TIP3    H225327   5.584   7.417  18.607 -1.5230 -0.8133 -1.7132
  378TIP3   OH225328   5.122   6.185  17.483  0.9142 -0.8475  0.5769
  378TIP3    H125329   5.053   6.127  17.453 -0.2565  0.6317  0.2967
  378TIP3    H225330   5.164   6.215  17.402 -0.1004  0.5793  0.5458
  379TIP3   OH225331   3.858   3.440  17.786 -0.5657  0.4699  0.7219
  379TIP3    H125332   3.922   3.411  17.850 -0.3071  0.6574  0.5519
  379TIP3    H225333   3.896   3.520  17.749 -0.1617 -0.2551 -0.4811
  380TIP3   OH225334   2.258   2.551  17.566 -0.2658  0.2068  0.6824
  380TIP3    H125335   2.172   2.579  17.597  0.1564  0.7880  1.3495
  380TIP3    H225336   2.243   2.526  17.475 -1.2644 -0.2957  0.9684
  381TIP3   OH225337   4.311   3.017  17.356  0.1881  0.4005 -0.1094
  381TIP3    H125338   4.262   3.033  17.275  3.0781 -0.5610 -2.2070
  381TIP3    H225339   4.245   3.020  17.425 -2.7616 -0.6099 -2.6677
  382TIP3   OH225340   6.096   2.862  19.298 -0.4157  0.3147  0.2718
  382TIP3    H125341   6.067   2.845  19.208  1.1561  1.1003 -0.4378
  382TIP3    H225342   6.023   2.908  19.338 -0.5409  1.4329 -1.1483
  383TIP3   OH225343   6.168   1.989  18.729 -0.5004 -0.4682 -0.1354
  383TIP3    H125344   6.085   2.001  18.775 -0.7108  1.3272 -0.8775
  383TIP3    H225345   6.200   2.078  18.714  0.8292 -1.0766 -1.1609
  384TIP3   OH225346   6.215   3.869  17.160 -0.4179 -0.0878  0.3516
  384TIP3    H125347   6.244   3.945  17.109 -0.0503  1.1674  2.3138
  384TIP3    H225348   6.282   3.803  17.145  0.8489  1.0259  0.8863
  385TIP3   OH225349   4.433   6.966  19.201  0.1505  0.2907 -0.1903
  385TIP3    H125350   4.373   7.040  19.209  1.3390  1.2144  0.4831
  385TIP3    H225351   4.418   6.913  19.279 -0.4830 -0.0222 -0.5188
  386TIP3   OH225352   3.211   7.000  18.995  0.3483  0.0799 -0.1703
  386TIP3    H125353   3.150   6.930  18.971  2.0663 -0.7780 -2.3713
  386TIP3    H225354   3.258   7.020  18.914  1.8424  1.8690  1.0482
  387TIP3   OH225355   5.316   0.751  18.161 -0.7227  0.3237  0.1430
  387TIP3    H125356   5.381   0.795  18.216 -2.3643  1.5898  1.1548
  387TIP3    H225357   5.356   0.666  18.140  0.4098  0.2450  2.3705
  388TIP3   OH225358   5.886   7.178  18.205 -0.1190 -0.3785 -0.4770
  388TIP3    H125359   5.818   7.166  18.272 -0.5577  1.6872 -0.4758
  388TIP3    H225360   5.863   7.116  18.136 -1.4275 -0.4252 -0.0278
  389TIP3   OH225361   4.183   5.122  17.992 -0.0254  0.5571  0.2896
  389TIP3    H125362   4.192   5.169  17.909  3.5220 -1.3010 -0.5747
  389TIP3    H225363   4.199   5.189  18.059  0.3035  1.4778 -0.6731
  390TIP3   OH225364   4.243   3.810  19.177 -0.4662  0.2171  0.6881
  390TIP3    H125365   4.166   3.782  19.128  0.5759  1.5303 -1.8630
  390TIP3    H225366   4.229   3.903  19.194 -0.0876  0.1284  1.5449
  391TIP3   OH225367   6.343   0.777  17.515 -0.1169  0.2867 -0.1123
  391TIP3    H125368   6.369   0.827  17.438  0.5035 -1.6670 -1.2410
  391TIP3    H225369   6.249   0.761  17.503 -0.3765  1.3552  0.3886
  392TIP3   OH225370   4.828   2.110  19.082  0.2183  0.0817  0.2385
  392TIP3    H125371   4.764   2.072  19.023  1.7321 -0.1591 -1.3095
  392TIP3    H225372   4.844   2.198  19.048 -0.1268  0.5805  1.3028
  393TIP3   OH225373   5.493   6.591  18.228 -0.0899  0.5390  0.4939
  393TIP3    H125374   5.498   6.650  18.153 -0.8876 -0.3103 -0.2472
  393TIP3    H225375   5.581   6.594  18.266  0.1898  1.3492 -0.1761
  394TIP3   OH225376   6.860   5.132  19.087 -0.2163  0.4460 -0.6515
  394TIP3    H125377   6.787   5.166  19.036 -0.5515  2.7108  1.1747
  394TIP3    H225378   6.923   5.204  19.091 -0.3089  0.5152  2.1981
  395TIP3   OH225379   1.737   6.723  17.610  0.1188  0.0248  0.2799
  395TIP3    H125380   1.831   6.720  17.630  0.1808  0.0109 -0.0189
  395TIP3    H225381   1.695   6.736  17.695  0.2832 -1.6941  0.6624
  396TIP3   OH225382   7.418   1.571  18.885  0.0534  0.1986 -0.8768
  396TIP3    H125383   7.349   1.622  18.928  1.3466  0.1706  1.3495
  396TIP3    H225384   7.430   1.615  18.801 -3.6308 -0.6606 -2.0547
  397TIP3   OH225385   1.620   7.429  19.028  0.1597 -0.2512  0.1866
  397TIP3    H125386   1.677   7.360  19.061  0.1432  0.4937  1.9212
  397TIP3    H225387   1.656   7.509  19.067 -1.4038  0.3627  0.4230
  398TIP3   OH225388   4.264   6.590  19.214  0.3467 -0.0814 -0.3359
  398TIP3    H125389   4.201   6.656  19.184 -0.3153 -0.5104  0.0690
  398TIP3    H225390   4.316   6.569  19.136 -1.1491 -0.9808 -1.1307
  399TIP3   OH225391   0.841   1.301  17.076 -0.1970 -0.2227  0.2102
  399TIP3    H125392   0.867   1.389  17.103  0.6287 -0.8573  1.5622
  399TIP3    H225393   0.746   1.301  17.080 -0.1952  0.5664  0.3137
  400TIP3   OH225394   6.213   0.647  19.267  0.1181  0.1299  0.2965
  400TIP3    H125395   6.297   0.693  19.268  0.0777  0.2037  1.2153
  400TIP3    H225396   6.230   0.563  19.309  0.2065 -0.7779 -1.4299
  401TIP3   OH225397   3.581   5.792  18.952  0.1639 -0.1302 -0.3414
  401TIP3    H125398   3.646   5.724  18.931  0.4028  0.0332 -0.1277
  401TIP3    H225399   3.629   5.874  18.942 -0.0784  0.0010 -0.4218
  402TIP3   OH225400   3.197   3.140  19.335  0.1401 -0.1565  0.3424
  402TIP3    H125401   3.127   3.097  19.286  0.2746  0.3670 -0.3255
  402TIP3    H225402   3.162   3.226  19.356  1.2660  0.9054 -1.7499
  403TIP3   OH225403   2.880   4.881  19.066  0.3769  0.3080 -0.3705
  403TIP3    H125404   2.954   4.885  19.126  0.9803  0.5802 -1.1171
  403TIP3    H225405   2.867   4.788  19.049  1.0281  0.2921 -0.8091
  404TIP3   OH225406   3.601   3.631  18.961  0.1566 -0.8276 -0.7994
  404TIP3    H125407   3.679   3.592  19.001  0.2157 -2.3043 -2.2379
  404TIP3    H225408   3.629   3.719  18.934  0.6286 -0.4860  0.7173
  405TIP3   OH225409   3.012   3.830  18.623  0.1641  0.6304 -0.5139
  405TIP3    H125410   3.020   3.921  18.595  2.7356 -0.3063 -3.3703
  405TIP3    H225411   2.919   3.811  18.616 -0.2440  2.6371 -1.2554
  406TIP3   OH225412   5.068   3.636  17.320  0.1046 -0.2126 -0.0321
  406TIP3    H125413   5.035   3.599  17.238  1.0677  1.6762 -1.3459
  406TIP3    H225414   5.156   3.668  17.299  1.4573 -1.9916  2.4560
  407TIP3   OH225415   1.916   2.056  18.730  0.8910 -0.3279 -0.5396
  407TIP3    H125416   1.982   2.005  18.776  0.7702 -1.6104 -1.7138
  407TIP3    H225417   1.966   2.122  18.682  1.1184  0.1321  0.3080
  408TIP3   OH225418   2.360   7.516  18.708  0.0941  1.1461 -0.1604
  408TIP3    H125419   2.324   7.557  18.629 -0.2120  1.2347  0.0217
  408TIP3    H225420   2.325   7.427  18.707  0.9900  0.7862 -0.7058
  409TIP3   OH225421   1.673   4.222  16.742  0.2152 -0.2679  0.2279
  409TIP3    H125422   1.601   4.285  16.735 -0.3190 -0.6854  1.6954
  409TIP3    H225423   1.729   4.257  16.811  0.6438 -0.7101  0.1116
  410TIP3   OH225424   2.184   1.909  17.384 -0.3147  0.4884 -0.3739
  410TIP3    H125425   2.274   1.938  17.392 -0.7324  1.4437  1.5930
  410TIP3    H225426   2.140   1.979  17.336 -0.0421  0.0780 -1.2277
  411TIP3   OH225427   7.594   6.098  17.257  0.1247  0.2059  0.2579
  411TIP3    H125428   7.621   6.164  17.193  2.2015 -1.8207 -1.1373
  411TIP3    H225429   7.511   6.065  17.224 -0.0068  0.8262 -0.0501
  412TIP3   OH225430   4.980   6.584  17.756 -0.5790  0.3541 -0.1154
  412TIP3    H125431   4.933   6.549  17.681 -0.9831  1.0806 -0.2094
  412TIP3    H225432   5.057   6.527  17.765 -0.4559  0.3309 -1.1614
  413TIP3   OH225433   4.216   0.377  17.315  0.2404 -0.2651  0.0067
  413TIP3    H125434   4.235   0.292  17.275  1.6243 -0.7448  1.5785
  413TIP3    H225435   4.296   0.428  17.302  0.6589 -0.3635  1.8863
  414TIP3   OH225436   5.448   3.075  17.691 -0.7210  0.0992  0.9058
  414TIP3    H125437   5.469   2.987  17.723  1.1399  0.0040 -0.3792
  414TIP3    H225438   5.439   3.128  17.770 -1.6134 -1.1651  1.6910
  415TIP3   OH225439   0.368   3.760  18.315 -0.1414  0.0315  0.8736
  415TIP3    H125440   0.364   3.800  18.228  0.6705  0.8805  1.1980
  415TIP3    H225441   0.462   3.757  18.335 -0.2577 -1.0933  1.3036
  416TIP3   OH225442   1.425   1.290  17.052 -0.1362 -0.4759 -0.3085
  416TIP3    H125443   1.457   1.380  17.049 -0.0957 -0.4902 -0.3126
  416TIP3    H225444   1.391   1.274  16.964  1.8011 -1.1663 -0.9780
  417TIP3   OH225445   1.599   1.044  18.175  0.3103  0.3271 -0.3406
  417TIP3    H125446   1.602   1.107  18.248 -2.5321  2.8964 -2.2240
  417TIP3    H225447   1.507   1.018  18.169  0.6784 -0.7243 -2.2997
  418TIP3   OH225448   0.711   0.717  19.122  0.5331 -0.4641 -0.1041
  418TIP3    H125449   0.757   0.786  19.171 -0.9591 -0.0532  0.7858
  418TIP3    H225450   0.764   0.703  19.044  1.5194  0.8269  0.3067
  419TIP3   OH225451   7.110   7.673  18.611 -0.8345 -0.9028 -0.5933
  419TIP3    H125452   7.059   7.696  18.689  1.7082  0.7829  0.6860
  419TIP3    H225453   7.122   7.756  18.565  0.0469 -1.3971 -1.2791
  420TIP3   OH225454   6.862   1.174  18.244  0.4194  0.7426 -0.1301
  420TIP3    H125455   6.801   1.234  18.201 -1.3269 -0.2472  0.8522
  420TIP3    H225456   6.850   1.091  18.199 -0.4937  0.0234  1.3604
  421TIP3   OH225457   1.043   3.306  18.250  0.6521 -0.2629  0.5769
  421TIP3    H125458   1.096   3.324  18.172  1.5529  0.9827  1.4323
  421TIP3    H225459   1.087   3.232  18.291  0.6958 -0.3588  0.3609
  422TIP3   OH225460   5.657   4.412  19.151  0.4252  0.7057  0.2926
  422TIP3    H125461   5.565   4.436  19.154 -0.5100 -2.4314  1.4400
  422TIP3    H225462   5.681   4.419  19.059 -1.0240  1.3856 -0.0617
  423TIP3   OH225463   6.525   4.800  18.011 -0.5262 -0.2733  0.7057
  423TIP3    H125464   6.616   4.794  17.985  0.0496  1.7672  1.9815
  423TIP3    H225465   6.513   4.730  18.075 -0.4382 -1.7630 -0.8468
  424TIP3   OH225466   6.477   4.151  19.017  0.2639 -0.0532  0.6021
  424TIP3    H125467   6.414   4.202  18.967  2.1703  2.0683  0.2141
  424TIP3    H225468   6.559   4.158  18.968  1.0854 -1.8909  1.5777
  425TIP3   OH225469   0.296   3.733  16.236  0.7552  0.3380  0.9413
  425TIP3    H125470   0.220   3.739  16.294  1.5280  0.9112  1.9280
  425TIP3    H225471   0.291   3.645  16.199  0.2059 -0.0172  1.8335
  426TIP3   OH225472   7.580   6.588  16.808 -0.3497  0.3164 -0.5732
  426TIP3    H125473   7.525   6.511  16.796 -1.2070  0.7571  0.4330
  426TIP3    H225474   7.665   6.563  16.770 -0.6256 -1.0958 -0.2998
  427TIP3   OH225475   0.178   7.668  17.299  0.6688 -0.0997 -0.0640
  427TIP3    H125476   0.197   7.574  17.294 -0.5414 -0.3729  0.2763
  427TIP3    H225477   0.217   7.704  17.220  0.1741 -1.0628 -0.7682
  428TIP3   OH225478   6.974   5.367  16.971 -0.2508  0.7040 -0.4095
  428TIP3    H125479   7.006   5.439  17.025  0.3653  1.6337 -1.9394
  428TIP3    H225480   6.888   5.396  16.942 -0.2200  0.5991 -0.6044
  429TIP3   OH225481   6.344   2.707  19.079  0.3767 -0.4531 -0.6359
  429TIP3    H125482   6.423   2.688  19.130 -0.2532  0.9818  0.9926
  429TIP3    H225483   6.294   2.626  19.080  0.4813 -0.5296  0.9209
  430TIP3   OH225484   0.132   0.815  17.759 -0.5049 -0.0307 -0.0011
  430TIP3    H125485   0.132   0.725  17.726 -2.1147  0.3026 -1.0005
  430TIP3    H225486   0.154   0.868  17.683 -3.4454  0.6888 -0.4746
  431TIP3   OH225487   5.688   3.916  17.617 -0.3849  0.3756  0.1596
  431TIP3    H125488   5.743   3.847  17.580 -2.7551 -3.0624  2.3901
  431TIP3    H225489   5.613   3.921  17.556  0.0287  1.4199 -0.2752
  432TIP3   OH225490   0.842   4.210  17.412  0.1241 -0.0174 -0.0404
  432TIP3    H125491   0.823   4.132  17.360 -1.3721  2.0189 -2.9053
  432TIP3    H225492   0.759   4.231  17.455 -0.0605  0.9473 -0.8123
  433TIP3   OH225493   3.222   7.007  18.453  0.6486  0.1163 -0.2384
  433TIP3    H125494   3.304   6.970  18.421  1.4945  1.0450  0.7665
  433TIP3    H225495   3.227   6.996  18.548 -0.3951  0.2010 -0.1668
  434TIP3   OH225496   4.030   2.565  18.628 -0.4912  0.1442  0.3049
  434TIP3    H125497   4.002   2.506  18.558  0.5411 -0.0140  0.0042
  434TIP3    H225498   3.975   2.542  18.703  0.0017 -1.3419  0.2442
  435TIP3   OH225499   7.387   2.881  17.746  0.3710 -0.1004  0.5636
  435TIP3    H125500   7.386   2.801  17.694  0.8677  0.5148 -0.4234
  435TIP3    H225501   7.302   2.882  17.790 -0.9911  0.3925 -1.9015
  436TIP3   OH225502   1.073   1.923  19.003  0.4124  0.1103 -0.1808
  436TIP3    H125503   1.084   1.961  18.916 -0.3084 -2.3054 -1.4129
  436TIP3    H225504   1.103   1.992  19.063 -1.4171  2.8466 -2.1440
  437TIP3   OH225505   4.682   7.020  19.057  0.3111 -0.1341  0.9122
  437TIP3    H125506   4.605   7.012  19.114  0.6960  1.6399  1.7809
  437TIP3    H225507   4.646   7.035  18.970 -0.3356  0.1438  1.2185
  438TIP3   OH225508   3.139   4.900  17.463  0.6881 -0.0091  0.3574
  438TIP3    H125509   3.097   4.826  17.418 -0.7811  1.0665 -0.1083
  438TIP3    H225510   3.079   4.924  17.533  0.3754  1.6913 -0.4388
  439TIP3   OH225511   2.203   4.250  16.966  0.0194 -0.0079 -0.2437
  439TIP3    H125512   2.196   4.202  16.883 -1.4803  0.0172 -0.1611
  439TIP3    H225513   2.140   4.206  17.023 -0.8979  1.6326  0.0408
  440TIP3   OH225514   1.176   4.284  19.156 -0.2781  0.4304  0.4887
  440TIP3    H125515   1.112   4.338  19.203  1.2219  2.7181  0.0669
  440TIP3    H225516   1.244   4.346  19.128  0.2918 -1.2752 -2.2896
  441TIP3   OH225517   6.156   0.594  18.421 -0.0163 -0.1153 -0.0058
  441TIP3    H125518   6.080   0.652  18.431  1.0819  1.2907  0.4397
  441TIP3    H225519   6.152   0.537  18.499 -1.2757 -0.9037 -0.6075
  442TIP3   OH225520   2.800   7.676  19.222 -0.3612  0.8142  0.3789
  442TIP3    H125521   2.774   7.700  19.311 -0.5062  1.2916  0.2107
  442TIP3    H225522   2.896   7.674  19.225 -0.3599  1.0327  0.4931
  443TIP3   OH225523   3.082   6.155  17.911  0.1411  0.2593 -0.1959
  443TIP3    H125524   3.085   6.075  17.858  0.2948 -0.1605  0.4318
  443TIP3    H225525   3.002   6.200  17.881  0.5924  0.3872 -1.2676
  444TIP3   OH225526   2.654   5.913  17.250 -0.8262  1.0354  0.4461
  444TIP3    H125527   2.601   5.960  17.314 -1.9379 -0.9512  1.0684
  444TIP3    H225528   2.597   5.905  17.173 -0.0911  1.9741 -0.2208
  445TIP3   OH225529   0.807   2.388  18.431 -0.4976  0.4816 -0.1097
  445TIP3    H125530   0.854   2.471  18.423 -0.9659  0.8240  0.6700
  445TIP3    H225531   0.718   2.413  18.456 -0.7618 -0.2334 -0.3204
  446TIP3   OH225532   3.308   6.195  18.335 -0.2903  0.2367 -0.4242
  446TIP3    H125533   3.307   6.199  18.431 -1.3728  1.4114 -0.4559
  446TIP3    H225534   3.388   6.148  18.314 -0.0016  0.0067  1.0597
  447TIP3   OH225535   6.769   7.456  19.099 -0.0025  0.5544  0.0367
  447TIP3    H125536   6.684   7.454  19.143 -0.3794  1.1968 -0.6400
  447TIP3    H225537   6.806   7.540  19.123 -0.3482  1.0498 -1.0911
  448TIP3   OH225538   1.759   4.690  17.717  0.1738 -0.4725  0.7704
  448TIP3    H125539   1.830   4.688  17.780  2.8883 -1.3815 -2.0906
  448TIP3    H225540   1.683   4.658  17.765  1.8612 -0.3253  3.7211
  449TIP3   OH225541   1.013   3.790  17.166 -0.1056 -0.4806  0.1073
  449TIP3    H125542   0.945   3.740  17.211 -1.1050 -0.6549 -1.5340
  449TIP3    H225543   1.054   3.842  17.236 -2.1490 -0.1032  1.1073
  450TIP3   OH225544   3.408   6.453  18.182 -0.3515  0.0674  1.0432
  450TIP3    H125545   3.342   6.384  18.174  0.0230 -0.6178  3.1912
  450TIP3    H225546   3.398   6.505  18.102 -1.2185 -1.9576 -0.2600
  451TIP3   OH225547   4.380   3.339  17.931  0.2410 -0.0966  0.1152
  451TIP3    H125548   4.430   3.370  17.856  1.8947 -1.6874  0.4966
  451TIP3    H225549   4.364   3.246  17.912  0.1906 -0.3814  1.4536
  452TIP3   OH225550   2.370   2.759  19.166  0.1921  0.3543 -0.1992
  452TIP3    H125551   2.432   2.686  19.161  0.2460  0.5046 -2.8841
  452TIP3    H225552   2.407   2.818  19.231  0.8623 -1.3318  1.0258
  453TIP3   OH225553   5.150   3.506  18.319 -0.1188  0.1344 -0.5910
  453TIP3    H125554   5.209   3.544  18.384 -0.6198  0.8396 -0.5435
  453TIP3    H225555   5.075   3.566  18.316 -0.4855 -0.3443 -1.2021
  454TIP3   OH225556   2.246   1.391  18.345 -0.3066 -0.1840 -0.0382
  454TIP3    H125557   2.195   1.320  18.385 -2.5083  2.4012  2.1077
  454TIP3    H225558   2.297   1.427  18.418  0.3978  0.7648 -0.9792
  455TIP3   OH225559   0.124   3.417  17.782 -0.5287  0.1289  0.5737
  455TIP3    H125560   0.058   3.452  17.841 -1.2490 -1.5116  0.7820
  455TIP3    H225561   0.207   3.447  17.819 -1.0450  0.4815  1.4823
  456TIP3   OH225562   2.320   4.864  18.451  0.1618 -0.4278 -0.2419
  456TIP3    H125563   2.252   4.931  18.454 -0.8397 -1.4507  0.6442
  456TIP3    H225564   2.333   4.847  18.357 -1.6424 -1.0247 -0.4255
  457TIP3   OH225565   6.185   4.273  19.862  0.2336  0.1797  0.2724
  457TIP3    H125566   6.253   4.322  19.908  0.0257  1.2457 -0.5275
  457TIP3    H225567   6.228   4.240  19.783 -0.0758  0.5014 -0.0291
  458TIP3   OH225568   5.991   2.789  17.963 -0.1939  0.0848 -0.2056
  458TIP3    H125569   5.932   2.845  17.911 -0.6782 -0.6704 -0.4761
  458TIP3    H225570   5.993   2.706  17.916  1.1159  0.1056 -0.2058
  459TIP3   OH225571   2.520   3.249  17.807  0.5855 -0.0955 -0.1057
  459TIP3    H125572   2.515   3.313  17.736 -1.6293  2.0242  1.7742
  459TIP3    H225573   2.613   3.237  17.823  1.0726  1.7742 -1.3229
  460TIP3   OH225574   3.099   6.472  17.722  0.1219 -0.4674  0.3232
  460TIP3    H125575   3.070   6.525  17.796  0.8309 -1.7883  1.6178
  460TIP3    H225576   3.137   6.535  17.661 -2.8646  0.9811 -0.2109
  461TIP3   OH225577   4.234   7.071  17.332 -0.2724  0.7456  0.1012
  461TIP3    H125578   4.270   7.041  17.248  0.1676 -1.4186  0.9822
  461TIP3    H225579   4.141   7.087  17.315 -0.8676 -2.4638 -0.2428
  462TIP3   OH225580   2.062   6.460  17.193 -0.2604  0.5266 -0.0977
  462TIP3    H125581   2.057   6.554  17.213 -1.2887  0.8879 -1.8027
  462TIP3    H225582   1.981   6.442  17.145 -0.5829 -1.4991  1.0980
  463TIP3   OH225583   1.850   4.520  17.929  0.1286  0.1606  0.1098
  463TIP3    H125584   1.852   4.473  17.845  2.4746 -0.0968  0.2410
  463TIP3    H225585   1.941   4.520  17.958 -0.6984 -0.1654  2.9276
  464TIP3   OH225586   1.390   4.841  17.310  0.4611 -0.6972  0.2231
  464TIP3    H125587   1.307   4.843  17.262  0.6480  0.8750 -0.0838
  464TIP3    H225588   1.427   4.756  17.290 -1.6635 -1.9972  1.4243
  465TIP3   OH225589   2.076   2.242  18.573  0.2119 -0.1461  0.0570
  465TIP3    H125590   2.080   2.314  18.510  1.8985  0.5451  0.8903
  465TIP3    H225591   2.159   2.247  18.621 -0.3034 -1.6829  1.2058
  466TIP3   OH225592   3.915   3.707  17.734 -0.4393  0.3704  0.0479
  466TIP3    H125593   3.928   3.797  17.702  1.4806  0.7821  1.7911
  466TIP3    H225594   3.873   3.718  17.819 -2.2772 -0.5469 -0.6893
  467TIP3   OH225595   7.353   0.194  18.937 -0.2073 -0.5483  0.2250
  467TIP3    H125596   7.410   0.152  18.873  0.7974  0.3732  0.4971
  467TIP3    H225597   7.388   0.282  18.947 -2.3239  0.4308 -0.3942
  468TIP3   OH225598   0.555   6.115  18.977  0.1369  0.2471  0.1312
  468TIP3    H125599   0.564   6.057  19.052 -0.8954  1.0144  0.8754
  468TIP3    H225600   0.596   6.197  19.005 -0.5312  0.6384 -0.0106
  469TIP3   OH225601   1.219   1.480  17.497  0.2964  0.5708 -0.3911
  469TIP3    H125602   1.157   1.420  17.538 -1.0141  1.3797 -1.1174
  469TIP3    H225603   1.255   1.530  17.569 -0.3696  0.5014  0.0001
  470TIP3   OH225604   6.459   5.823  18.218 -0.2696 -0.1231 -0.4057
  470TIP3    H125605   6.399   5.748  18.218 -0.3526 -0.0578 -0.6213
  470TIP3    H225606   6.529   5.797  18.278 -1.3975  0.5133  1.2567
  471TIP3   OH225607   1.235   7.187  17.965 -0.4304  0.3358  0.0988
  471TIP3    H125608   1.150   7.200  17.922 -0.5152  0.7399  0.3916
  471TIP3    H225609   1.294   7.248  17.921 -0.9435  2.1463  1.8080
  472TIP3   OH225610   0.366   0.767  18.248  0.4620  0.2966 -0.5572
  472TIP3    H125611   0.297   0.718  18.292 -0.5762  2.8283  0.7977
  472TIP3    H225612   0.325   0.802  18.169  0.5556  0.7694 -0.3990
  473TIP3   OH225613   0.536   4.165  17.692 -0.0852 -0.2709 -0.2089
  473TIP3    H125614   0.611   4.198  17.741 -0.8259 -0.0913  0.8364
  473TIP3    H225615   0.533   4.219  17.613 -0.2893  1.0533  0.6820
  474TIP3   OH225616   2.035   0.926  18.134  0.0814  0.2185  0.1864
  474TIP3    H125617   1.995   0.847  18.171  0.2898 -0.1022 -0.2700
  474TIP3    H225618   2.122   0.929  18.173  0.0710  0.2296  0.2089
  475TIP3   OH225619   1.203   2.099  17.432  0.0903  0.4453  0.3837
  475TIP3    H125620   1.190   2.132  17.521 -0.6457 -1.6676  1.1233
  475TIP3    H225621   1.246   2.014  17.444 -0.6761 -0.1997 -1.2202
  476TIP3   OH225622   0.882   7.436  18.663 -0.3333  0.0782 -0.3127
  476TIP3    H125623   0.959   7.399  18.619  0.2770 -0.1006  0.8401
  476TIP3    H225624   0.817   7.367  18.660 -1.8344  1.3753 -4.3925
  477TIP3   OH225625   4.794   7.526  18.637 -0.0555  0.3257 -0.2557
  477TIP3    H125626   4.728   7.595  18.642  0.4447  1.7775 -5.9885
  477TIP3    H225627   4.870   7.561  18.684 -0.4215  2.9824 -1.4679
  478TIP3   OH225628   4.652   2.418  18.324  0.1445  0.5061 -0.7656
  478TIP3    H125629   4.704   2.381  18.395  0.1554  2.7318  0.4804
  478TIP3    H225630   4.597   2.345  18.294  3.3302 -1.7403 -1.6344
  479TIP3   OH225631   7.661   4.079  17.949 -0.2570  1.1970  0.6217
  479TIP3    H125632   7.602   4.142  17.906  1.0965  0.8407 -1.9626
  479TIP3    H225633   7.748   4.109  17.925  0.4597 -1.0726  0.1533
  480TIP3   OH225634   5.945   4.515  19.404 -0.2067 -0.1044  0.1503
  480TIP3    H125635   5.976   4.525  19.314  1.6071 -0.8024  0.6405
  480TIP3    H225636   5.860   4.473  19.396  1.4469 -3.6736 -1.2501
  481TIP3   OH225637   2.284   5.610  17.633  0.5773  0.1293  0.0570
  481TIP3    H125638   2.344   5.642  17.566 -0.8431  1.3141 -0.6979
  481TIP3    H225639   2.301   5.516  17.638 -0.5008 -0.3363 -3.2611
  482TIP3   OH225640   4.198   3.025  17.108 -0.1598  0.4711  0.0594
  482TIP3    H125641   4.119   3.028  17.055 -1.1063 -3.8495  0.8804
  482TIP3    H225642   4.269   3.011  17.045 -0.1835  2.4951 -0.5037
  483TIP3   OH225643   6.550   5.088  18.971 -0.2422  0.2240  0.0355
  483TIP3    H125644   6.559   4.999  19.003 -1.0408  0.2380  0.3379
  483TIP3    H225645   6.475   5.084  18.910  1.0603  0.2593 -1.6330
  484TIP3   OH225646   3.534   0.878  18.764 -0.1996  0.2969  0.0282
  484TIP3    H125647   3.594   0.923  18.705  0.0177  0.2812  0.2386
  484TIP3    H225648   3.590   0.826  18.822 -0.4045  0.3977  0.3202
  485TIP3   OH225649   0.951   3.365  18.708 -0.2114 -0.0891  0.5017
  485TIP3    H125650   0.921   3.374  18.799  0.8244  0.8018  0.7811
  485TIP3    H225651   1.027   3.424  18.703  1.1608 -1.8551 -0.2965
  486TIP3   OH225652   6.809   4.501  18.723 -0.2036  0.0904 -0.0919
  486TIP3    H125653   6.754   4.549  18.785  2.5647  0.9318  1.9170
  486TIP3    H225654   6.802   4.409  18.751 -0.9033  0.1122 -0.1675
  487TIP3   OH225655   0.275   2.637  17.038 -0.1345 -0.0036 -0.4715
  487TIP3    H125656   0.231   2.575  17.095 -0.4654 -1.8091 -2.5848
  487TIP3    H225657   0.264   2.722  17.082 -1.0210 -1.1730  1.7115
  488TIP3   OH225658   4.833   6.935  19.259 -0.3707 -0.4999  0.3482
  488TIP3    H125659   4.881   6.857  19.231  0.5661  0.4163 -0.6946
  488TIP3    H225660   4.789   6.966  19.180 -0.5073  0.1862  0.6851
  489TIP3   OH225661   4.900   5.909  18.223 -0.3480 -0.2489  0.6257
  489TIP3    H125662   4.846   5.842  18.265  0.1861 -0.9540  0.2100
  489TIP3    H225663   4.939   5.958  18.295 -0.2538 -0.7868  0.9392
  490TIP3   OH225664   7.086   6.480  18.715 -0.6695 -0.1512 -0.3397
  490TIP3    H125665   7.013   6.520  18.763 -1.0209 -0.0128 -0.9764
  490TIP3    H225666   7.136   6.434  18.782 -1.3295 -0.2267  0.1125
  491TIP3   OH225667   3.988   5.739  18.435 -0.4802 -0.1389 -0.1986
  491TIP3    H125668   3.938   5.804  18.485 -0.6567 -0.0096 -0.5326
  491TIP3    H225669   4.077   5.744  18.470 -1.1342 -1.8626  1.8567
  492TIP3   OH225670   1.408   3.027  16.691  0.2193 -0.2349 -0.1002
  492TIP3    H125671   1.405   3.066  16.604  1.2172  0.5540  0.1989
  492TIP3    H225672   1.489   2.977  16.692 -0.1946 -0.9130  0.1115
  493TIP3   OH225673   5.273   5.057  19.697  0.4380 -0.1056  0.3577
  493TIP3    H125674   5.310   4.977  19.660 -1.1940 -0.5136 -0.4792
  493TIP3    H225675   5.341   5.123  19.682  0.5009 -0.6040 -1.9932
  494TIP3   OH225676   4.193   1.507  19.237 -0.1221 -0.7470 -0.0107
  494TIP3    H125677   4.097   1.507  19.232 -0.2269 -2.2495  1.0761
  494TIP3    H225678   4.219   1.590  19.199 -1.9561  0.4109  1.0757
  495TIP3   OH225679   4.614   4.423  17.338  0.0106  0.6067 -0.5645
  495TIP3    H125680   4.545   4.480  17.372  0.7974  1.0656  0.3415
  495TIP3    H225681   4.640   4.463  17.256 -0.1252  0.9929 -0.4219
  496TIP3   OH225682   2.294   7.305  17.369 -0.6283 -0.1402  0.4554
  496TIP3    H125683   2.375   7.255  17.354 -0.6065  0.2168 -0.7870
  496TIP3    H225684   2.224   7.245  17.344 -0.6308  0.2277 -0.4656
  497TIP3   OH225685   3.604   4.417  17.714 -0.2096 -0.6013  0.5467
  497TIP3    H125686   3.594   4.504  17.753 -0.1069 -1.3507  2.3418
  497TIP3    H225687   3.609   4.433  17.619 -0.3652  1.3157  0.8304
  498TIP3   OH225688   5.445   1.377  17.754 -0.4173 -0.5239  0.1418
  498TIP3    H125689   5.402   1.436  17.692 -0.5496 -0.7808 -0.0101
  498TIP3    H225690   5.379   1.312  17.776  0.0514 -1.2326 -0.4990
  499TIP3   OH225691   0.208   6.618  19.623  0.0919  0.1033 -0.2565
  499TIP3    H125692   0.293   6.590  19.657 -1.2339 -2.3671  1.3132
  499TIP3    H225693   0.210   6.594  19.531  0.9108 -0.4328 -0.1179
  500TIP3   OH225694   1.923   2.314  17.363 -0.5184 -0.1551  0.3130
  500TIP3    H125695   1.837   2.338  17.397 -0.6000  0.5715 -0.3828
  500TIP3    H225696   1.959   2.395  17.326 -0.3221 -0.8374 -1.0724
  501TIP3   OH225697   2.948   3.054  18.666 -0.0634  0.3067 -0.0137
  501TIP3    H125698   2.935   3.126  18.604 -1.0316  0.8074  0.7444
  501TIP3    H225699   2.880   2.990  18.643  1.8817 -1.2628 -1.8535
  502TIP3   OH225700   5.195   3.505  16.668  0.6471 -0.1240  0.5144
  502TIP3    H125701   5.258   3.565  16.630 -0.6141  0.3772 -0.8969
  502TIP3    H225702   5.174   3.542  16.754  1.2487  0.4248  0.4247
  503TIP3   OH225703   3.830   2.404  17.911 -0.2821 -0.5563 -0.3746
  503TIP3    H125704   3.895   2.473  17.897  0.8933 -1.4408  0.5425
  503TIP3    H225705   3.848   2.340  17.842  0.0142 -0.9409  0.0567
  504TIP3   OH225706   5.803   3.082  17.363  0.0576  0.2988 -0.0007
  504TIP3    H125707   5.837   3.168  17.391 -0.3410  0.2144  0.7640
  504TIP3    H225708   5.710   3.085  17.386  0.0077 -0.2747 -0.1256
  505TIP3   OH225709   5.594   1.035  19.170  0.2339 -0.4639 -0.1965
  505TIP3    H125710   5.665   0.972  19.157  0.4914 -0.0404 -0.9373
  505TIP3    H225711   5.532   1.017  19.099 -0.3831 -0.8022  0.4234
  506TIP3   OH225712   1.205   3.423  17.377 -0.6675  0.4689 -0.9525
  506TIP3    H125713   1.140   3.360  17.348 -1.0936  0.4331  0.0463
  506TIP3    H225714   1.288   3.374  17.376 -1.4003 -1.2375  2.9280
  507TIP3   OH225715   0.795   6.298  17.712  0.0800  0.3151 -0.7312
  507TIP3    H125716   0.813   6.244  17.789  1.8046  0.8556 -0.7046
  507TIP3    H225717   0.708   6.272  17.684 -0.7765  0.3663  1.6215
  508TIP3   OH225718   0.121   2.381  17.430 -0.1768  0.0366  0.1643
  508TIP3    H125719   0.080   2.455  17.474 -2.4274 -0.2923 -1.1904
  508TIP3    H225720   0.153   2.416  17.347 -1.0097 -0.4093 -0.3635
  509TIP3   OH225721   6.077   3.579  17.180 -0.0849 -0.0536  0.5341
  509TIP3    H125722   6.059   3.534  17.097 -0.6055 -1.2529  1.2722
  509TIP3    H225723   6.002   3.638  17.192 -0.9248 -1.1757  0.9986
  510TIP3   OH225724   2.377   0.100  17.107 -0.0206  0.0750  0.4298
  510TIP3    H125725   2.380   0.018  17.155 -0.8830 -0.5946 -0.5945
  510TIP3    H225726   2.457   0.102  17.055 -1.0211 -1.3041 -1.3103
  511TIP3   OH225727   6.482   4.863  19.130 -0.7536 -0.4420  0.1067
  511TIP3    H125728   6.562   4.853  19.182 -0.4753 -0.3685 -0.3092
  511TIP3    H225729   6.435   4.780  19.143 -0.2816 -0.7629 -0.2091
  512TIP3   OH225730   6.930   6.350  17.073  0.0974 -0.5497  0.1976
  512TIP3    H125731   6.890   6.263  17.066 -2.5135  0.4401  1.8025
  512TIP3    H225732   6.891   6.400  17.002  0.0439 -0.1377  0.5154
  513TIP3   OH225733   5.124   3.923  18.773 -0.0195  0.4807 -0.3303
  513TIP3    H125734   5.080   3.955  18.852  1.0293  0.1959  0.3797
  513TIP3    H225735   5.149   4.002  18.725 -0.8282  0.6508 -0.4898
  514TIP3   OH225736   7.297   3.952  16.587 -0.1692 -0.4828  0.3158
  514TIP3    H125737   7.305   3.952  16.492 -2.6748 -0.5242  0.0447
  514TIP3    H225738   7.242   3.876  16.607 -0.2051 -0.1137  1.7459
  515TIP3   OH225739   0.949   6.749  18.516 -0.8669 -0.5693 -0.1692
  515TIP3    H125740   1.022   6.811  18.511 -0.8166 -0.6068  0.1074
  515TIP3    H225741   0.895   6.770  18.440  0.3405 -1.6850 -1.4044
  516TIP3   OH225742   5.065   0.828  18.194 -0.1060  0.0756 -0.2452
  516TIP3    H125743   5.147   0.781  18.177 -0.1197  0.2600 -0.8147
  516TIP3    H225744   5.086   0.920  18.180 -0.9456 -0.0194 -2.6616
  517TIP3   OH225745   4.356   0.911  17.854  0.2566  0.0314  0.1848
  517TIP3    H125746   4.303   0.946  17.926  2.2554  1.2514  1.1423
  517TIP3    H225747   4.320   0.824  17.838 -0.4402 -0.1776  2.4909
  518TIP3   OH225748   3.374   1.508  17.038 -0.2606  0.3859  0.5880
  518TIP3    H125749   3.295   1.561  17.026  0.3430  1.1992  0.1581
  518TIP3    H225750   3.347   1.419  17.016 -1.1038  0.6262  0.6246
  519TIP3   OH225751   3.420   2.542  19.308  0.0356  0.1871 -0.3993
  519TIP3    H125752   3.426   2.580  19.220  0.3832  0.4429 -0.2666
  519TIP3    H225753   3.490   2.585  19.358 -0.0336 -0.0980 -0.0496
  520TIP3   OH225754   2.322   4.283  18.921  0.2002  0.0711 -0.2300
  520TIP3    H125755   2.246   4.301  18.976 -1.8641 -1.9165 -2.1719
  520TIP3    H225756   2.333   4.363  18.870 -2.7385 -0.5291 -2.1018
  521TIP3   OH225757   3.528   0.414  18.559  0.0995  0.3139  0.6412
  521TIP3    H125758   3.550   0.381  18.472  1.4558 -0.2449  1.1801
  521TIP3    H225759   3.544   0.509  18.553  1.8930  0.0514  0.7503
  522TIP3   OH225760   0.393   1.315  18.809 -0.9190  0.3396  0.0134
  522TIP3    H125761   0.354   1.229  18.792 -0.6785  0.3721 -0.7094
  522TIP3    H225762   0.479   1.312  18.766 -0.3375  0.4646  1.1228
  523TIP3   OH225763   1.108   3.113  18.742  0.1027  0.2706  0.2688
  523TIP3    H125764   1.040   3.053  18.709  1.5255 -1.5922  0.5714
  523TIP3    H225765   1.098   3.192  18.688 -1.3846 -0.4830 -0.6399
  524TIP3   OH225766   1.958   0.626  18.944  0.9483 -0.2893 -0.3874
  524TIP3    H125767   1.955   0.705  18.890 -0.9181 -1.4336 -2.1497
  524TIP3    H225768   2.050   0.615  18.966  1.5040  1.3716 -1.6390
  525TIP3   OH225769   5.992   5.927  17.861  0.2941  0.2059  0.0607
  525TIP3    H125770   5.987   5.988  17.934  0.0626  0.6581 -0.3252
  525TIP3    H225771   6.085   5.905  17.854  0.4792  1.0475 -0.2266
  526TIP3   OH225772   4.274   6.918  18.764  0.2160 -0.3499 -0.4590
  526TIP3    H125773   4.200   6.887  18.817  0.6436 -0.4767  0.0657
  526TIP3    H225774   4.233   6.951  18.684 -0.4593  0.0805  0.0540
  527TIP3   OH225775   1.694   4.428  18.317 -0.7080  0.4066  0.4325
  527TIP3    H125776   1.604   4.455  18.301 -0.8525 -0.0555  0.4583
  527TIP3    H225777   1.688   4.335  18.339 -0.3170  0.5682  1.2795
  528TIP3   OH225778   6.028   5.482  17.380 -0.2605  0.2226 -0.8621
  528TIP3    H125779   5.984   5.506  17.461  2.7811 -0.2851  1.0622
  528TIP3    H225780   6.036   5.564  17.331 -0.0936  0.9709  0.3918
  529TIP3   OH225781   1.231   4.856  18.951  0.3681  0.5493  0.3276
  529TIP3    H125782   1.315   4.813  18.968 -0.7312 -1.0241  2.2003
  529TIP3    H225783   1.193   4.807  18.878 -0.4713 -1.2101  1.8613
  530TIP3   OH225784   7.018   1.052  19.277  0.2004 -0.0089  1.0939
  530TIP3    H125785   6.987   1.073  19.189  0.6333  1.2206  1.2221
  530TIP3    H225786   7.052   0.963  19.270  0.1821  0.0577  0.0297
  531TIP3   OH225787   2.700   3.306  18.614  0.3656 -0.0557 -0.3665
  531TIP3    H125788   2.605   3.303  18.600  0.2235  0.3936  0.4069
  531TIP3    H225789   2.727   3.389  18.575  0.3238  0.1314 -0.0109
  532TIP3   OH225790   5.172   1.709  17.370  0.6661  0.2974 -0.0066
  532TIP3    H125791   5.158   1.628  17.418  2.3428  0.4595  0.8131
  532TIP3    H225792   5.098   1.714  17.309 -0.0341 -1.2835  0.6688
  533TIP3   OH225793   2.714   1.216  16.729 -0.2779  0.3814 -0.0606
  533TIP3    H125794   2.714   1.127  16.763 -0.8955  0.8385  1.1973
  533TIP3    H225795   2.792   1.221  16.674  0.8474 -0.3613  1.3978
  534TIP3   OH225796   6.883   4.070  19.086  0.0736  0.2068  0.3570
  534TIP3    H125797   6.838   3.990  19.060 -0.5039  0.3062  0.9924
  534TIP3    H225798   6.967   4.068  19.040  0.9436 -1.7556  1.8915
  535TIP3   OH225799   2.659   2.586  17.841 -0.1291  0.6333  0.2845
  535TIP3    H125800   2.682   2.679  17.837 -1.9646  1.0878 -0.5944
  535TIP3    H225801   2.672   2.562  17.932  0.6119  1.6690  0.4724
  536TIP3   OH225802   3.741   3.449  16.895 -0.1904  0.2372 -0.0904
  536TIP3    H125803   3.812   3.482  16.840  0.8217  0.3299  1.2338
  536TIP3    H225804   3.762   3.356  16.908  0.5071  0.5932  1.4950
  537TIP3   OH225805   5.982   1.451  19.262 -0.7322  0.3552  0.2489
  537TIP3    H125806   5.993   1.356  19.270 -1.4858  0.2051 -0.3448
  537TIP3    H225807   6.069   1.487  19.277 -0.7839 -0.2770  2.5018
  538TIP3   OH225808   0.684   0.037  18.140  0.0097 -0.2284  0.3127
  538TIP3    H125809   0.778   0.056  18.151 -0.1787  1.1291 -0.2765
  538TIP3    H225810   0.679  -0.059  18.141  1.5789 -0.3691 -1.0299
  539TIP3   OH225811   7.539   3.448  17.948 -0.2679 -0.2380 -0.0341
  539TIP3    H125812   7.553   3.390  18.023  0.7215 -0.1302 -0.1217
  539TIP3    H225813   7.456   3.418  17.909 -0.1427 -1.1107  0.3573
  540TIP3   OH225814   6.191   7.632  18.123  0.2520 -0.0797 -0.4184
  540TIP3    H125815   6.137   7.565  18.165  0.2915  0.7605  1.0296
  540TIP3    H225816   6.267   7.583  18.090 -0.0787 -0.8564 -0.0596
  541TIP3   OH225817   5.989   2.504  18.599  0.5117 -0.3867  0.4859
  541TIP3    H125818   5.961   2.531  18.686  2.7060 -0.7544  1.3568
  541TIP3    H225819   5.997   2.587  18.551 -2.5018 -0.2803 -0.0505
  542TIP3   OH225820   1.500   5.635  17.949  0.0279 -0.6540  0.0958
  542TIP3    H125821   1.417   5.644  17.903  0.2824  1.2535 -0.0427
  542TIP3    H225822   1.555   5.706  17.916  0.7871 -0.2162  2.1218
  543TIP3   OH225823   2.737   3.995  18.004  0.4333 -0.1608 -0.0110
  543TIP3    H125824   2.769   3.917  17.959  0.0200  0.8200 -2.1062
  543TIP3    H225825   2.663   4.025  17.952 -1.3711 -0.0437  2.4403
  544TIP3   OH225826   6.446   5.125  18.339  0.0045 -0.9053  0.6121
  544TIP3    H125827   6.483   5.038  18.354  2.6079  0.0341  0.1952
  544TIP3    H225828   6.469   5.174  18.418  0.5166 -0.0080 -0.0858
  545TIP3   OH225829   5.411   3.057  16.800  0.2346 -0.3739  0.3909
  545TIP3    H125830   5.382   2.968  16.818 -0.0354  0.1008  2.5660
  545TIP3    H225831   5.330   3.107  16.791  0.2873  0.2625  2.7748
  546TIP3   OH225832   6.668   3.123  16.770  0.1367 -0.0902 -0.3561
  546TIP3    H125833   6.598   3.160  16.716  0.2999 -0.9834 -1.1972
  546TIP3    H225834   6.623   3.091  16.848 -0.0898  1.2630  0.1039
  547TIP3   OH225835   5.255   0.436  16.707 -0.0225 -0.0711 -0.2353
  547TIP3    H125836   5.200   0.399  16.638 -1.1991  1.2321 -0.0545
  547TIP3    H225837   5.279   0.361  16.761 -2.1197 -0.6474 -0.0159
  548TIP3   OH225838   4.342   4.277  19.377  0.1638 -0.3607  0.2934
  548TIP3    H125839   4.278   4.347  19.369 -0.2516 -0.2862  3.0947
  548TIP3    H225840   4.294   4.197  19.357 -0.0122 -0.0755 -0.4492
  549TIP3   OH225841   3.452   0.275  17.938 -0.0815  0.5578 -0.5854
  549TIP3    H125842   3.488   0.322  17.863  1.0968  0.9164  0.1721
  549TIP3    H225843   3.371   0.321  17.959 -0.8802 -0.0689 -2.1364
  550TIP3   OH225844   6.296   4.837  19.562 -0.0922  0.1398  0.2067
  550TIP3    H125845   6.279   4.762  19.504  1.8479  1.1100 -1.7803
  550TIP3    H225846   6.278   4.804  19.650 -2.0598 -1.7756 -0.8232
  551TIP3   OH225847   2.759   4.558  18.289 -0.0958 -0.0207  0.2782
  551TIP3    H125848   2.723   4.495  18.352  0.1865 -0.3837  0.0810
  551TIP3    H225849   2.705   4.636  18.299  1.1197  0.6136  2.3203
  552TIP3   OH225850   0.973   0.009  17.585 -0.0548  0.2808 -0.1320
  552TIP3    H125851   1.012   0.024  17.500 -0.8222  0.3882 -0.4703
  552TIP3    H225852   0.911   0.081  17.597  0.9160  0.9650  1.0576
  553TIP3   OH225853   0.203   1.890  19.412  0.2372  0.2190 -0.4883
  553TIP3    H125854   0.268   1.830  19.376  0.5020  1.0807 -1.5016
  553TIP3    H225855   0.254   1.963  19.446 -0.1544  0.5065 -0.5103
  554TIP3   OH225856   1.287   6.689  18.335  0.0310 -0.1761 -0.3569
  554TIP3    H125857   1.212   6.636  18.361  0.3972 -0.5580 -0.0804
  554TIP3    H225858   1.281   6.694  18.240 -1.0351  0.8133 -0.2685
  555TIP3   OH225859   6.478   1.814  16.833  0.1038 -0.0276  0.3206
  555TIP3    H125860   6.566   1.790  16.802  1.1210  1.7179  1.6110
  555TIP3    H225861   6.491   1.900  16.874 -2.0804 -0.0888  1.2366
  556TIP3   OH225862   0.194   3.233  18.013  0.1482 -0.2091  0.8022
  556TIP3    H125863   0.105   3.262  18.031 -0.2243 -0.3553 -0.6940
  556TIP3    H225864   0.184   3.155  17.959  1.1711 -0.0430  0.3350
  557TIP3   OH225865   2.925   1.762  17.270  0.0122 -0.7114  0.4506
  557TIP3    H125866   3.001   1.736  17.321 -0.2910 -0.6958  0.9189
  557TIP3    H225867   2.958   1.776  17.182  0.5566 -0.6562  0.6644
  558TIP3   OH225868   4.062   3.314  18.545  0.6181  0.1323 -0.1531
  558TIP3    H125869   4.155   3.308  18.524  0.2713 -0.4363 -1.5907
  558TIP3    H225870   4.045   3.408  18.553  1.2221  0.2567 -0.2975
  559TIP3   OH225871   5.373   3.673  18.386  0.3977 -0.0958 -0.2048
  559TIP3    H125872   5.326   3.756  18.396 -0.9093 -1.0439  2.2359
  559TIP3    H225873   5.390   3.666  18.292 -1.2794  1.9516 -0.7186
  560TIP3   OH225874   4.423   1.067  18.254 -0.2207  0.1801  0.3700
  560TIP3    H125875   4.350   1.128  18.248  0.3448  0.8226 -0.1475
  560TIP3    H225876   4.483   1.094  18.184  1.3839  0.8687  1.9143
  561TIP3   OH225877   4.285   2.207  17.672 -0.3915 -0.6647  0.3470
  561TIP3    H125878   4.226   2.142  17.633  0.5041 -1.1401 -0.2703
  561TIP3    H225879   4.292   2.182  17.764  1.0769 -2.3753 -0.1712
  562TIP3   OH225880   7.114   6.984  18.474 -0.1358 -0.1198  0.5928
  562TIP3    H125881   7.129   6.897  18.512  0.2685 -0.4339 -0.2354
  562TIP3    H225882   7.104   6.967  18.380  0.8787  0.8111  0.2892
  563TIP3   OH225883   2.256   2.604  18.857  0.0563  0.4358  0.2807
  563TIP3    H125884   2.346   2.624  18.835  0.6242  0.4620  2.3925
  563TIP3    H225885   2.209   2.687  18.845  0.3410  0.4731 -0.6156
  564TIP3   OH225886   2.756   5.059  18.138 -0.0597 -0.1104 -0.3614
  564TIP3    H125887   2.801   5.144  18.140 -0.2067 -0.0424  0.7631
  564TIP3    H225888   2.813   5.000  18.186  0.4091 -0.8633 -1.8021
  565TIP3   OH225889   2.621   3.762  19.434  0.3310  0.2013 -0.1665
  565TIP3    H125890   2.689   3.727  19.376 -0.1992  0.5978 -1.0567
  565TIP3    H225891   2.658   3.843  19.470  0.4866  0.2058 -0.3387
  566TIP3   OH225892   7.051   4.311  18.554  0.3818 -0.1325 -0.0179
  566TIP3    H125893   7.040   4.220  18.580 -0.7510  0.1134  0.4295
  566TIP3    H225894   7.123   4.309  18.491  1.0720 -1.1801  0.7623
  567TIP3   OH225895   1.920   6.918  19.379 -0.1969 -0.6267  0.2221
  567TIP3    H125896   1.936   6.935  19.472  0.9499  0.7762 -0.1967
  567TIP3    H225897   2.002   6.940  19.336 -1.4606  1.2930 -1.4140
  568TIP3   OH225898   0.211   3.357  19.120 -0.0805  0.1094 -0.6205
  568TIP3    H125899   0.241   3.438  19.079  0.9885 -0.9347 -2.0392
  568TIP3    H225900   0.137   3.329  19.065  0.2543 -0.4141 -0.8141
  569TIP3   OH225901   5.866   4.815  19.105  0.1239  0.3723  0.4600
  569TIP3    H125902   5.882   4.765  19.025  0.1365 -0.0718  0.7358
  569TIP3    H225903   5.902   4.902  19.087 -0.5167  0.4970 -0.2720
  570TIP3   OH225904   1.700   3.535  18.670  0.7890  0.1767  0.0360
  570TIP3    H125905   1.711   3.449  18.630  0.2085  0.5820 -1.0400
  570TIP3    H225906   1.660   3.588  18.601  2.3831  1.6950  0.1947
  571TIP3   OH225907   5.357   4.850  19.494 -0.0723 -0.5483 -0.1991
  571TIP3    H125908   5.452   4.852  19.485 -0.0420  0.4865  0.1438
  571TIP3    H225909   5.324   4.894  19.416 -0.1751  0.6565  0.4933
  572TIP3   OH225910   7.088   1.387  18.182  0.0511 -0.2232  0.5201
  572TIP3    H125911   7.062   1.378  18.274 -0.8851 -0.5033  0.2290
  572TIP3    H225912   7.129   1.302  18.161  1.3781  0.2582  1.0085
  573TIP3   OH225913   1.733   0.373  18.057 -0.1721 -0.3925 -0.1470
  573TIP3    H125914   1.688   0.323  17.989  0.2612  0.4300 -1.0519
  573TIP3    H225915   1.727   0.317  18.135  0.4157 -1.9386 -1.1531
  574TIP3   OH225916   7.154   5.861  18.580  0.0298 -0.1478 -0.7951
  574TIP3    H125917   7.183   5.852  18.489 -0.2319 -1.4174 -0.7657
  574TIP3    H225918   7.100   5.784  18.596 -2.1823  1.3810 -0.3843
  575TIP3   OH225919   1.831   6.923  18.370 -0.1829 -0.1334 -0.6042
  575TIP3    H125920   1.829   6.828  18.359 -4.5360 -0.2013 -0.8213
  575TIP3    H225921   1.779   6.939  18.448  0.6464  2.0983 -0.4466
  576TIP3   OH225922   4.856   5.007  17.911 -0.2789  0.2610 -0.1375
  576TIP3    H125923   4.841   4.942  17.979 -0.2204 -0.7797 -1.0779
  576TIP3    H225924   4.951   5.023  17.914 -0.2763  0.2120  0.0263
  577TIP3   OH225925   2.614   0.047  17.692 -0.0694  0.5895  0.3295
  577TIP3    H125926   2.618   0.134  17.731  2.8148  0.6884  0.0371
  577TIP3    H225927   2.668  -0.007  17.750  0.8604 -0.2047 -1.2103
  578TIP3   OH225928   5.042   3.298  18.739  0.2402 -0.2434 -0.0084
  578TIP3    H125929   5.049   3.255  18.824 -0.2276  2.2707  1.4067
  578TIP3    H225930   4.950   3.288  18.714  0.3442 -0.8486 -0.1601
  579TIP3   OH225931   5.755   6.944  17.359  0.0460  0.1568 -0.2859
  579TIP3    H125932   5.759   6.993  17.277 -0.0022  2.0848  0.8093
  579TIP3    H225933   5.846   6.920  17.376  0.2263  0.8274 -0.2857
  580TIP3   OH225934   4.588   2.012  19.310  0.1382  0.3338 -0.1027
  580TIP3    H125935   4.591   1.996  19.404 -0.4717 -0.6374 -0.2340
  580TIP3    H225936   4.646   2.087  19.296  0.3818  0.3631  1.0153
  581TIP3   OH225937   6.970   2.603  17.785  0.3284 -0.0523  0.6749
  581TIP3    H125938   6.933   2.651  17.859 -3.6781 -0.9671 -0.4830
  581TIP3    H225939   6.992   2.671  17.721  0.8041  0.5540  1.4644
  582TIP3   OH225940   6.750   0.068  16.890 -0.5058 -0.1009 -0.2979
  582TIP3    H125941   6.655   0.057  16.898 -0.1988 -2.3712  0.8407
  582TIP3    H225942   6.782  -0.018  16.864  1.2844  0.5763 -0.4540
  583TIP3   OH225943   1.834   1.682  18.839  1.0017 -0.1214  0.4079
  583TIP3    H125944   1.928   1.664  18.842  0.9964 -0.0730  2.5025
  583TIP3    H225945   1.808   1.686  18.931 -0.9933  0.2195 -0.1312
  584TIP3   OH225946   6.302   2.519  18.558 -0.9042  0.3095 -0.4367
  584TIP3    H125947   6.274   2.583  18.493  0.4972 -1.0196 -2.4703
  584TIP3    H225948   6.360   2.460  18.511  0.1905 -0.7652  2.0448
  585TIP3   OH225949   6.708   4.441  18.466  0.4890 -0.2670  0.0355
  585TIP3    H125950   6.756   4.466  18.545  0.3099 -1.8470  0.6787
  585TIP3    H225951   6.727   4.348  18.454 -1.6431 -0.7242 -0.2234
  586TIP3   OH225952   4.620   3.062  18.495 -0.2009 -0.9798  0.3094
  586TIP3    H125953   4.628   3.075  18.590  1.5745  0.9871 -0.0500
  586TIP3    H225954   4.541   3.009  18.485 -2.2251  1.3031  2.7220
  587TIP3   OH225955   1.561   4.609  16.422 -0.8412 -0.0806  0.7400
  587TIP3    H125956   1.566   4.693  16.467 -0.5279  1.2905 -1.6923
  587TIP3    H225957   1.650   4.574  16.428 -1.3837 -1.2963  3.4489
  588TIP3   OH225958   5.169   5.210  18.411  0.2516 -0.3439  0.1502
  588TIP3    H125959   5.203   5.206  18.500  0.5934  0.3644  0.0598
  588TIP3    H225960   5.181   5.301  18.385  0.0137 -0.5101 -0.5663
  589TIP3   OH225961   4.575   5.302  19.486  0.3192 -0.6042  0.1853
  589TIP3    H125962   4.617   5.273  19.567 -0.8176 -1.1510  0.5960
  589TIP3    H225963   4.601   5.237  19.420 -0.2058 -1.1693  0.5305
  590TIP3   OH225964   5.617   3.174  19.460  0.0843 -0.2117 -0.7597
  590TIP3    H125965   5.579   3.160  19.373 -0.7232  0.6802 -0.5750
  590TIP3    H225966   5.569   3.115  19.518 -0.3080  0.1502 -0.7066
  591TIP3   OH225967   1.403   1.087  17.477  0.3310  0.5430 -0.2597
  591TIP3    H125968   1.405   1.182  17.493 -1.2125  0.4877  0.4188
  591TIP3    H225969   1.374   1.079  17.386  0.6020  0.7085 -0.3642
  592TIP3   OH225970   3.156   1.647  18.675  0.0307 -0.4154 -0.3701
  592TIP3    H125971   3.196   1.673  18.758 -0.1570  1.4875 -0.8137
  592TIP3    H225972   3.151   1.552  18.679  0.6621 -0.4128  1.4975
  593TIP3   OH225973   2.328   3.124  17.917  0.4993 -0.7093 -0.0280
  593TIP3    H125974   2.342   3.149  18.009  0.5192  0.4369 -0.3205
  593TIP3    H225975   2.392   3.177  17.868  0.4429 -1.2573 -0.7081
  594TIP3   OH225976   2.688   5.718  17.424 -0.4386 -0.4497 -0.0514
  594TIP3    H125977   2.728   5.733  17.509  0.9405 -1.9061 -0.3881
  594TIP3    H225978   2.684   5.805  17.383  1.7978 -0.1494  0.2792
  595TIP3   OH225979   6.969   1.477  17.965  0.4042  0.6394 -0.3169
  595TIP3    H125980   6.985   1.569  17.984  2.0388  0.1090  1.1354
  595TIP3    H225981   7.019   1.430  18.032 -1.7376 -1.3016  0.0181
  596TIP3   OH225982   2.404   6.422  18.409 -0.0103  0.2289  0.7820
  596TIP3    H125983   2.466   6.436  18.480  0.3483 -0.9368  0.7165
  596TIP3    H225984   2.451   6.368  18.346 -0.8805 -0.1434  0.4299
  597TIP3   OH225985   6.603   1.053  18.058  0.2325 -0.3571  0.0025
  597TIP3    H125986   6.666   0.985  18.034  0.3006 -1.0124  1.8922
  597TIP3    H225987   6.614   1.121  17.990 -0.0682 -2.3082 -2.1100
  598TIP3   OH225988   5.509   2.031  17.789 -0.3105  0.2256  0.0185
  598TIP3    H125989   5.425   1.990  17.811 -0.3519  1.2234  1.9850
  598TIP3    H225990   5.510   2.112  17.841  0.5560  1.8036 -2.3128
  599TIP3   OH225991   0.497   0.806  18.493 -0.7069 -0.1180  0.1493
  599TIP3    H125992   0.511   0.796  18.399 -0.1567 -1.5188  0.3669
  599TIP3    H225993   0.428   0.743  18.515 -0.6989  0.0634  0.7336
  600TIP3   OH225994   4.994   5.452  18.033 -0.5474 -1.0256 -0.4108
  600TIP3    H125995   5.079   5.492  18.052 -1.4268  1.2110 -0.9332
  600TIP3    H225996   5.006   5.360  18.055  1.6423 -0.5444  0.6896
  601TIP3   OH225997   3.107   1.792  17.976  0.3771  0.5898 -0.5935
  601TIP3    H125998   3.175   1.764  17.914  1.7830 -0.7374  1.4109
  601TIP3    H225999   3.111   1.887  17.975  1.3842  0.5603 -1.4766
  602TIP3   OH226000   5.357   5.794  17.220 -0.2304 -0.0388 -0.2219
  602TIP3    H126001   5.267   5.825  17.210 -0.8400 -1.3180  0.9557
  602TIP3    H226002   5.406   5.870  17.251 -0.7117  0.8801 -1.6200
  603TIP3   OH226003   0.514   4.479  17.937  0.0921  0.1079 -0.0796
  603TIP3    H126004   0.572   4.442  18.004 -0.2601 -1.9295 -0.8146
  603TIP3    H226005   0.427   4.446  17.960 -0.3545  1.0050 -0.4403
  604TIP3   OH226006   4.181   3.145  17.550 -0.3114  0.3909 -0.1307
  604TIP3    H126007   4.091   3.176  17.558 -0.4224 -0.4614  4.4468
  604TIP3    H226008   4.232   3.224  17.537 -1.5228  1.2094 -0.1055
  605TIP3   OH226009   4.228   1.873  18.946 -0.6325  0.4479 -0.1165
  605TIP3    H126010   4.254   1.940  19.009 -2.4121 -1.0306  2.3654
  605TIP3    H226011   4.298   1.808  18.950 -0.9404  0.1565  0.6943
  606TIP3   OH226012   4.525   2.483  17.917  0.2475  0.5589 -0.4514
  606TIP3    H126013   4.510   2.577  17.908 -0.9181  0.4898  0.4692
  606TIP3    H226014   4.501   2.463  18.008 -1.0446 -0.8672 -1.0392
  607TIP3   OH226015   1.185   5.323  17.893  0.4099 -0.7403  0.5287
  607TIP3    H126016   1.243   5.251  17.868 -0.7503 -1.5797  0.1662
  607TIP3    H226017   1.100   5.281  17.910 -0.2977  0.5378  0.3161
  608TIP3   OH226018   0.916   6.488  19.083 -0.0272  0.1734  0.4972
  608TIP3    H126019   0.946   6.429  19.152  0.5385  0.8036  0.8028
  608TIP3    H226020   0.961   6.571  19.101  0.3063  0.2844 -0.7519
  609TIP3   OH226021   2.139   0.885  18.798  0.1164 -0.4599 -0.0032
  609TIP3    H126022   2.182   0.804  18.824  0.1129 -1.3416 -2.5232
  609TIP3    H226023   2.202   0.930  18.742 -0.4151  0.6117  0.2136
  610TIP3   OH226024   6.737   2.139  17.813 -0.2252  0.1171  0.8685
  610TIP3    H126025   6.795   2.073  17.774 -0.8309  0.6993 -1.1516
  610TIP3    H226026   6.703   2.097  17.892  0.4542 -1.4664  0.3626
  611TIP3   OH226027   1.164   6.497  18.002  0.0381  0.0816  0.4408
  611TIP3    H126028   1.166   6.436  18.076 -0.0805 -0.2030  0.2087
  611TIP3    H226029   1.089   6.554  18.020  0.7482  0.8154  1.1780
  612TIP3   OH226030   7.272   3.953  16.946 -0.7939 -0.2901 -0.9392
  612TIP3    H126031   7.209   4.023  16.928  0.6255  1.6958  1.1932
  612TIP3    H226032   7.239   3.910  17.024 -0.4745 -0.4462 -0.8865
  613TIP3   OH226033   6.585   0.793  18.898 -0.5172 -0.4019  0.0743
  613TIP3    H126034   6.561   0.884  18.917 -0.3126 -0.1910 -0.6380
  613TIP3    H226035   6.532   0.770  18.821 -0.0590 -0.6639 -0.1613
  614TIP3   OH226036   6.535   3.559  18.306 -0.3941  0.6830  0.3347
  614TIP3    H126037   6.488   3.587  18.385 -0.7767  0.7814  0.0733
  614TIP3    H226038   6.622   3.533  18.338 -1.0394 -0.7299  1.0028
  615TIP3   OH226039   7.324   2.449  18.668 -0.3274  0.1630 -0.3818
  615TIP3    H126040   7.375   2.530  18.659  1.4557 -1.0720 -2.6509
  615TIP3    H226041   7.354   2.395  18.595 -3.1198 -1.6799 -0.3016
  616TIP3   OH226042   1.931   4.479  19.283 -0.8411 -0.6977 -0.1439
  616TIP3    H126043   1.918   4.399  19.232 -2.4740 -0.6123  0.1006
  616TIP3    H226044   1.868   4.473  19.355 -0.5362  0.5118  0.2555
  617TIP3   OH226045   0.804   3.418  18.084 -0.1677  0.6681  0.4408
  617TIP3    H126046   0.883   3.363  18.086 -0.4413  0.2490  0.0128
  617TIP3    H226047   0.757   3.394  18.164 -0.7863 -0.4926 -0.2435
  618TIP3   OH226048   3.703   3.997  18.436 -0.2905  0.0084  0.1238
  618TIP3    H126049   3.749   4.064  18.487  1.5643 -1.6674  0.7686
  618TIP3    H226050   3.728   4.016  18.345  0.9298 -0.2648  0.3760
  619TIP3   OH226051   6.605   6.344  19.732  0.1743  0.1329 -0.0820
  619TIP3    H126052   6.614   6.254  19.763 -0.8462 -0.3278 -1.0440
  619TIP3    H226053   6.520   6.346  19.688 -1.0981  2.2595  2.1742
  620TIP3   OH226054   2.957   2.128  17.490  0.8250 -0.4578 -0.5269
  620TIP3    H126055   3.000   2.056  17.444  0.2595 -0.1401 -1.5898
  620TIP3    H226056   2.983   2.207  17.442  1.0558  0.0043  0.3338
  621TIP3   OH226057   3.872   7.257  16.983  0.2823  0.3488 -0.2272
  621TIP3    H126058   3.921   7.327  16.940  0.9725  0.9031  1.3931
  621TIP3    H226059   3.932   7.182  16.982 -0.3655 -0.1866 -1.7449
  622TIP3   OH226060   5.707   1.480  17.237 -0.2864  0.3981  0.6149
  622TIP3    H126061   5.644   1.537  17.194 -1.3112  0.3425  1.9761
  622TIP3    H226062   5.790   1.528  17.232 -0.3652  0.3968 -1.3408
  623TIP3   OH226063   2.719   7.331  18.720  0.2350  0.0744  0.0694
  623TIP3    H126064   2.764   7.415  18.714  2.1457 -0.6655  2.4176
  623TIP3    H226065   2.779   7.268  18.681  0.6643 -0.7231  1.9085
  624TIP3   OH226066   6.061   0.077  19.492 -0.1347 -0.0927  0.5654
  624TIP3    H126067   6.129   0.132  19.530 -0.5905  0.1812  0.9996
  624TIP3    H226068   6.094   0.054  19.405  0.0700  0.8508  0.3829
  625TIP3   OH226069   1.651   0.622  17.989  0.5518  0.6099  0.4763
  625TIP3    H126070   1.675   0.529  17.996 -0.3081  0.4558  1.6709
  625TIP3    H226071   1.558   0.621  17.966  0.8999  1.2044 -1.1127
  626TIP3   OH226072   2.776   4.162  18.676  0.1794 -0.2745  0.0773
  626TIP3    H126073   2.831   4.151  18.598 -1.7304  2.4499 -1.8357
  626TIP3    H226074   2.823   4.226  18.730  0.0843  0.1452 -0.3315
  627TIP3   OH226075   6.482   7.428  18.337 -0.7044 -0.4301  0.3171
  627TIP3    H126076   6.537   7.350  18.334 -2.2014 -1.5085 -0.0291
  627TIP3    H226077   6.444   7.427  18.425 -0.5251  0.0781  0.4047
  628TIP3   OH226078   1.404   2.121  18.798  0.5119  0.2313  0.1687
  628TIP3    H126079   1.347   2.147  18.726  0.8732  1.4093  0.2833
  628TIP3    H226080   1.485   2.171  18.784  0.9149 -0.1962  0.8994
  629TIP3   OH226081   3.652   3.594  17.916  0.6081 -0.1042  0.1074
  629TIP3    H126082   3.634   3.637  17.833  0.8581  1.4747  0.8419
  629TIP3    H226083   3.681   3.506  17.891 -2.3029 -0.7871 -1.3286
  630TIP3   OH226084   0.891   6.234  18.113 -0.1981 -0.2110 -0.1533
  630TIP3    H126085   0.844   6.156  18.085  0.1209 -0.5931  0.3518
  630TIP3    H226086   0.966   6.201  18.162 -0.4348  0.4180  0.6612
  631TIP3   OH226087   2.705   0.517  16.689  0.3195 -0.0027  1.0770
  631TIP3    H126088   2.727   0.603  16.652  0.2743 -0.9151 -1.2567
  631TIP3    H226089   2.629   0.488  16.638  1.1181 -1.9479  0.8898
  632TIP3   OH226090   6.081   7.648  18.516  0.2386  0.0802  0.1440
  632TIP3    H126091   6.149   7.685  18.571  0.5614 -0.7721  0.3284
  632TIP3    H226092   6.112   7.560  18.494 -0.4686 -0.0571 -0.3565
  633TIP3   OH226093   4.600   5.178  18.135 -0.3382  0.0558 -0.2164
  633TIP3    H126094   4.518   5.173  18.183 -0.1339 -0.7514  0.0590
  633TIP3    H226095   4.638   5.262  18.161 -1.2065  0.5856 -0.5869
  634TIP3   OH226096   3.363   4.572  18.978  0.6155 -0.2323 -0.0843
  634TIP3    H126097   3.271   4.578  18.955 -0.5327 -1.3874  3.4947
  634TIP3    H226098   3.394   4.493  18.934 -0.5150 -0.6551 -0.1566
  635TIP3   OH226099   4.905   0.424  19.481  0.1559 -0.2554  0.1226
  635TIP3    H126100   4.865   0.338  19.474  1.0701 -0.6718 -0.1488
  635TIP3    H226101   4.906   0.443  19.575  1.1226 -1.1187  0.2995
  636TIP3   OH226102   3.711   4.680  18.969  0.0316 -0.6331 -0.6810
  636TIP3    H126103   3.675   4.609  18.915  1.6046  0.2911 -3.0912
  636TIP3    H226104   3.684   4.760  18.925  1.3502  0.1587 -0.1032
  637TIP3   OH226105   6.850   1.798  17.485 -0.0930 -0.2493 -0.2945
  637TIP3    H126106   6.927   1.852  17.469 -0.2826 -0.0990 -0.7144
  637TIP3    H226107   6.870   1.715  17.442  0.5995 -0.8692  1.1560
  638TIP3   OH226108   3.515   4.934  18.314 -0.1040  0.1190  0.7292
  638TIP3    H126109   3.604   4.902  18.299  0.7167  2.2573  0.7175
  638TIP3    H226110   3.473   4.932  18.228  0.5840  0.9463  0.3734
  639TIP3   OH226111   5.682   2.525  19.457 -0.1439  0.2683  0.5829
  639TIP3    H126112   5.750   2.583  19.492 -0.2999  0.5737  0.3843
  639TIP3    H226113   5.603   2.579  19.458 -0.0888  0.3892 -0.5527
  640TIP3   OH226114   6.804   4.724  17.950 -0.7231 -0.3378 -0.0745
  640TIP3    H126115   6.832   4.762  17.866 -1.6878  1.6736  0.4586
  640TIP3    H226116   6.883   4.682  17.984  0.3151  0.8076 -0.9420
  641TIP3   OH226117   5.835   7.024  19.741 -0.8018 -0.0221  0.4396
  641TIP3    H126118   5.770   6.956  19.759 -3.0879  1.6137 -1.1068
  641TIP3    H226119   5.893   6.985  19.676 -0.1896 -1.4961  1.7940
  642TIP3   OH226120   4.647   2.014  18.871 -0.4775  0.2890 -0.7592
  642TIP3    H126121   4.677   1.927  18.846 -1.8872 -0.0138 -1.4626
  642TIP3    H226122   4.682   2.072  18.803  2.5263  0.7334  0.9551
  643TIP3   OH226123   1.705   0.212  18.997 -0.0686 -0.0589 -0.4046
  643TIP3    H126124   1.776   0.275  18.990 -0.1196 -0.1623 -2.2135
  643TIP3    H226125   1.651   0.228  18.920 -1.0170 -1.1702  0.0081
  644TIP3   OH226126   0.657   7.017  18.990 -0.2417 -0.0523  1.1740
  644TIP3    H126127   0.599   7.037  18.916  2.8681  0.1837 -1.4216
  644TIP3    H226128   0.650   7.093  19.047 -2.2514  0.0700  0.8308
  645TIP3   OH226129   1.455   1.504  16.866  0.2562 -0.4442 -0.4644
  645TIP3    H126130   1.457   1.569  16.936 -0.9458 -0.5519 -0.3007
  645TIP3    H226131   1.381   1.531  16.811 -0.4654 -1.8400 -0.2179
  646TIP3   OH226132   0.944   0.475  19.270  0.0461 -0.4426  0.1719
  646TIP3    H126133   0.935   0.569  19.254  1.6475 -0.5017 -1.3374
  646TIP3    H226134   0.977   0.469  19.360  1.3312  0.5431 -0.2085
  647TIP3   OH226135   2.692   5.306  17.870  0.0197  0.2240 -0.2969
  647TIP3    H126136   2.672   5.336  17.958  0.5183 -0.7736  0.1760
  647TIP3    H226137   2.687   5.385  17.816  2.9020  1.5344  1.1459
  648TIP3   OH226138   7.551   0.715  16.582 -0.1859 -0.1006  0.4139
  648TIP3    H126139   7.580   0.804  16.561 -0.1027 -0.4023 -0.7687
  648TIP3    H226140   7.456   0.723  16.591 -0.2714 -0.0549 -0.5218
  649TIP3   OH226141   6.129   7.245  17.896 -0.0078 -0.4050 -0.0582
  649TIP3    H126142   6.188   7.271  17.967  1.2132 -1.7415 -0.5139
  649TIP3    H226143   6.041   7.255  17.932  0.5001  1.0534  0.8635
  650TIP3   OH226144   4.493   3.595  18.433  0.0842 -0.4571 -0.2735
  650TIP3    H126145   4.498   3.592  18.529  2.4494  2.4477 -0.1502
  650TIP3    H226146   4.532   3.512  18.405  0.5936 -0.7949  1.2970
  651TIP3   OH226147   5.635   2.616  17.929 -0.3425 -0.4171  0.0643
  651TIP3    H126148   5.711   2.644  17.878  0.3303 -0.3461  1.0730
  651TIP3    H226149   5.633   2.677  18.003 -0.8328 -1.0011  0.5385
  652TIP3   OH226150   1.241   4.349  16.593 -0.8599  0.5347 -0.0689
  652TIP3    H126151   1.154   4.334  16.558 -1.0994  1.4083  0.1349
  652TIP3    H226152   1.300   4.334  16.519 -1.3534  2.2524 -0.8506
  653TIP3   OH226153   7.568   1.131  17.667  0.2155  0.8784 -0.2251
  653TIP3    H126154   7.616   1.085  17.737 -1.7751 -0.5690  0.2765
  653TIP3    H226155   7.586   1.224  17.683  1.4767  0.4726  0.9342
  654TIP3   OH226156   1.196   2.686  19.220  0.0112  0.5932  0.3487
  654TIP3    H126157   1.150   2.690  19.304 -2.0136  0.1676 -0.6915
  654TIP3    H226158   1.237   2.600  19.219 -0.6729  0.2654  0.5442
  655TIP3   OH226159   7.159   5.087  19.493  0.3139  0.0111 -0.5650
  655TIP3    H126160   7.063   5.091  19.498  0.2238  0.1055 -1.9853
  655TIP3    H226161   7.187   5.178  19.493  0.4238 -0.0217  0.1210
  656TIP3   OH226162   6.083   1.810  19.171  0.4165  0.0102 -0.3016
  656TIP3    H126163   5.999   1.764  19.161 -0.0140  0.8679 -0.8504
  656TIP3    H226164   6.120   1.810  19.082  0.6877  0.1965 -0.1877
  657TIP3   OH226165   1.131   0.128  18.416  0.2564  0.3501  0.3175
  657TIP3    H126166   1.089   0.095  18.336  0.3831 -0.9213  0.7546
  657TIP3    H226167   1.168   0.050  18.458  2.2642  1.2865  0.4217
  658TIP3   OH226168   0.584   4.630  19.349 -0.1233  0.0976  0.1238
  658TIP3    H126169   0.663   4.635  19.403 -0.3859 -0.1772  0.5439
  658TIP3    H226170   0.536   4.710  19.371 -0.1574  0.0600  0.1888
  659TIP3   OH226171   0.540   6.949  18.143  0.6522 -0.1227  0.2349
  659TIP3    H126172   0.467   6.900  18.181 -0.2592  1.6547  0.8764
  659TIP3    H226173   0.531   7.037  18.179  1.8190  0.7196 -1.4178
  660TIP3   OH226174   3.108   0.020  19.279  0.1160  0.0141  1.3095
  660TIP3    H126175   3.197   0.041  19.251 -0.2030  0.2723  0.4733
  660TIP3    H226176   3.117  -0.060  19.330  0.6084 -0.9277 -0.2079
  661TIP3   OH226177   2.371   4.145  18.687 -0.5185  0.2793  0.1291
  661TIP3    H126178   2.356   4.061  18.730 -0.2009 -0.3368 -0.9215
  661TIP3    H226179   2.375   4.208  18.759 -1.2302 -0.5264  0.9017
  662TIP3   OH226180   5.876   5.113  18.480 -0.1541 -0.2698  0.1442
  662TIP3    H126181   5.962   5.155  18.478  0.6564 -1.8599 -1.5550
  662TIP3    H226182   5.817   5.181  18.511  1.4507  1.3837 -0.2446
  663TIP3   OH226183   4.291   6.448  17.685  0.0248 -0.0377  0.5423
  663TIP3    H126184   4.206   6.489  17.700 -0.4430  0.1955 -2.2901
  663TIP3    H226185   4.299   6.443  17.590  2.0472 -2.4758  0.7429
  664TIP3   OH226186   2.466   0.724  18.606  0.1342  0.0653  0.2198
  664TIP3    H126187   2.498   0.682  18.526  0.9046 -0.1578  0.6350
  664TIP3    H226188   2.374   0.743  18.588  0.5322  0.9220 -1.0952
  665TIP3   OH226189   6.589   2.855  17.025  0.5954 -0.2467  0.6700
  665TIP3    H126190   6.615   2.834  17.115  0.8736  0.9882  0.8885
  665TIP3    H226191   6.536   2.934  17.033  2.2447  1.0368 -0.4168
  666TIP3   OH226192   0.522   3.226  18.697 -0.3094 -1.1060  0.0060
  666TIP3    H126193   0.536   3.279  18.776 -2.7751  0.7959 -0.7226
  666TIP3    H226194   0.610   3.217  18.659  0.7485 -0.9743  2.2411
  667TIP3   OH226195   7.618   7.029  19.112 -0.0870  0.3761 -0.0255
  667TIP3    H126196   7.647   7.030  19.203 -0.6736 -2.9054  0.3040
  667TIP3    H226197   7.698   7.012  19.062 -0.0033  0.7070 -0.0105
  668TIP3   OH226198   1.018   4.352  18.263  0.0496  0.1018 -0.7401
  668TIP3    H126199   0.977   4.324  18.345  0.2718  2.3195  0.1975
  668TIP3    H226200   0.946   4.392  18.214  0.1585 -0.1907 -1.1417
  669TIP3   OH226201   1.070   7.520  17.852 -0.3936 -0.0758  0.0104
  669TIP3    H126202   1.110   7.603  17.877 -0.3840 -0.0396 -0.1204
  669TIP3    H226203   1.104   7.456  17.915 -0.3464  0.0065  0.0678
  670TIP3   OH226204   2.499   4.912  19.223 -0.5115  0.4348  0.0102
  670TIP3    H126205   2.473   4.920  19.314 -0.8735 -0.1058 -0.0425
  670TIP3    H226206   2.476   4.996  19.183 -2.0721  0.0196 -0.0085
  671TIP3   OH226207   0.435   0.408  18.910  0.1543  1.0996  0.5837
  671TIP3    H126208   0.514   0.460  18.921  0.7900  0.1104  0.8433
  671TIP3    H226209   0.417   0.372  18.997  1.7865 -1.9485 -0.1982
  672TIP3   OH226210   3.177   0.184  17.417  0.2414  0.4020  0.5032
  672TIP3    H126211   3.082   0.197  17.415 -0.0884 -1.7332  0.0353
  672TIP3    H226212   3.211   0.248  17.354 -0.7955  1.6440  1.1471
  673TIP3   OH226213   4.943   4.516  18.069 -0.2817  0.0708  0.1474
  673TIP3    H126214   4.854   4.487  18.087 -0.0158 -1.0270 -0.2599
  673TIP3    H226215   4.989   4.507  18.153 -0.2339 -0.5695  0.0527
  674TIP3   OH226216   5.974   0.923  19.370  0.0619 -0.0505 -0.0329
  674TIP3    H126217   5.927   0.864  19.311  0.8121 -0.4621 -0.2224
  674TIP3    H226218   6.029   0.866  19.423  0.2551  0.4200  0.2815
  675TIP3   OH226219   6.376   4.122  17.934 -0.0120 -0.1344 -0.2771
  675TIP3    H126220   6.307   4.057  17.930 -0.6090  0.4582  0.1018
  675TIP3    H226221   6.438   4.089  17.999 -1.6703  0.9129  1.9887
  676TIP3   OH226222   4.831   3.792  17.040 -0.2347  0.1647 -0.1578
  676TIP3    H126223   4.904   3.852  17.023 -0.6595  0.6386 -0.3165
  676TIP3    H226224   4.753   3.840  17.013 -0.8739  0.5818  2.2064
  677TIP3   OH226225   0.632   7.186  16.609 -0.0083 -0.8407  0.3005
  677TIP3    H126226   0.663   7.271  16.578  0.8030 -1.2993 -0.1822
  677TIP3    H226227   0.602   7.203  16.698 -1.0962  0.2157 -0.2339
  678TIP3   OH226228   4.448   5.376  18.302  0.2505 -0.2078  0.6721
  678TIP3    H126229   4.509   5.352  18.371  1.3973  0.8038  0.0426
  678TIP3    H226230   4.392   5.299  18.292  0.4490 -0.5928  2.2897
  679TIP3   OH226231   3.540   2.400  18.773 -0.2408 -0.0172 -0.2741
  679TIP3    H126232   3.467   2.355  18.731 -0.7590  0.7777 -0.2574
  679TIP3    H226233   3.604   2.413  18.703 -0.8907  0.8696 -0.7187
  680TIP3   OH226234   7.225   5.645  18.274  0.4240 -0.2676  0.1116
  680TIP3    H126235   7.313   5.614  18.254  0.4182 -0.2217  0.0092
  680TIP3    H226236   7.182   5.571  18.316  0.2922 -0.5328 -0.4693
  681TIP3   OH226237   5.256   2.047  18.386  0.0024 -0.9108  0.2107
  681TIP3    H126238   5.279   2.122  18.441 -1.1142  0.3422 -0.9441
  681TIP3    H226239   5.214   1.985  18.444  2.1301 -1.2888  1.4688
  682TIP3   OH226240   5.676   3.685  19.787 -0.5723 -0.1779  0.2429
  682TIP3    H126241   5.706   3.700  19.877 -0.1272 -1.5037  0.3389
  682TIP3    H226242   5.755   3.688  19.734 -0.2144 -3.2270  0.4364
  683TIP3   OH226243   4.124   4.057  19.284 -0.6082  0.3053  0.3430
  683TIP3    H126244   4.040   4.102  19.291 -1.2882 -0.5286 -1.7162
  683TIP3    H226245   4.139   4.021  19.371 -2.2833  0.6404  0.8067
  684TIP3   OH226246   1.886   4.236  19.173 -0.3467  0.3348  0.1350
  684TIP3    H126247   1.936   4.196  19.102  0.9128  2.9105 -0.5671
  684TIP3    H226248   1.810   4.274  19.129 -0.7192  0.0623  0.5367
  685TIP3   OH226249   4.136   3.746  19.685 -0.0413 -0.0838 -0.3653
  685TIP3    H126250   4.138   3.705  19.599  1.4290 -3.0031  0.9173
  685TIP3    H226251   4.046   3.735  19.715 -0.0667 -0.9603 -0.7182
  686TIP3   OH226252   6.873   3.886  17.558  0.3225  0.0336  0.1082
  686TIP3    H126253   6.801   3.929  17.604  0.4054 -0.8503  1.0921
  686TIP3    H226254   6.840   3.799  17.536  0.1506  0.5627 -1.8935
  687TIP3   OH226255   1.158   3.397  18.033 -0.1988 -0.7518 -0.3015
  687TIP3    H126256   1.244   3.408  18.075 -1.4270 -0.5772  2.3650
  687TIP3    H226257   1.140   3.483  17.994  0.1572 -0.2962  0.5099
  688TIP3   OH226258   0.508   4.697  16.542 -0.4211  0.0666  0.1128
  688TIP3    H126259   0.578   4.698  16.477  1.2864 -3.4868  1.5944
  688TIP3    H226260   0.541   4.752  16.614  0.0154 -0.1305  0.0638
  689TIP3   OH226261   1.266   2.724  18.778 -0.3778  0.4883  0.0258
  689TIP3    H126262   1.357   2.716  18.749 -0.6242  1.6101 -1.1727
  689TIP3    H226263   1.250   2.645  18.829  1.4880  0.6120  0.8964
  690TIP3   OH226264   6.664   5.425  17.225  0.7905 -0.1294  0.4415
  690TIP3    H126265   6.582   5.381  17.248 -0.7434  2.6849  0.8066
  690TIP3    H226266   6.692   5.383  17.144 -1.6571 -0.4429 -0.3158
  691TIP3   OH226267   5.513   2.210  19.234 -0.0417 -0.5626  0.1327
  691TIP3    H126268   5.584   2.235  19.293  0.2425 -1.4845  0.1986
  691TIP3    H226269   5.544   2.130  19.192 -0.9300 -0.8248 -0.0338
  692TIP3   OH226270   1.050   3.033  17.488  0.3253  0.5868 -0.3879
  692TIP3    H126271   1.012   3.117  17.513 -0.1321  0.3406 -0.2324
  692TIP3    H226272   0.997   2.968  17.536  0.3128  0.1813 -0.9391
  693TIP3   OH226273   1.900   1.257  16.696  0.1414 -0.2020  0.3912
  693TIP3    H126274   1.850   1.339  16.696 -1.4963 -1.1592  0.8761
  693TIP3    H226275   1.841   1.192  16.658  2.0412 -0.8585 -1.7313
  694TIP3   OH226276   7.594   6.255  19.455  0.0102 -0.0305  0.0926
  694TIP3    H126277   7.601   6.336  19.506 -0.4755 -0.2972  0.5940
  694TIP3    H226278   7.527   6.204  19.500 -1.5353  0.3585 -1.6585
  695TIP3   OH226279   7.049   5.525  17.523 -0.3360  0.2657 -0.0918
  695TIP3    H126280   7.123   5.463  17.517 -0.9796 -0.4974 -0.3785
  695TIP3    H226281   6.992   5.488  17.590 -2.2034 -1.1331 -2.2942
  696TIP3   OH226282   3.170   6.337  18.132 -0.2025  0.5374  0.8569
  696TIP3    H126283   3.157   6.287  18.052  0.3843 -0.2151  1.2175
  696TIP3    H226284   3.191   6.271  18.199  0.5944  1.2547  1.3394
  697TIP3   OH226285   5.308   3.495  19.259  0.2391  0.2378  0.0250
  697TIP3    H126286   5.304   3.416  19.312 -1.7353 -0.3022 -0.8305
  697TIP3    H226287   5.389   3.487  19.208  1.0267 -0.2834  1.3082
  698TIP3   OH226288   6.681   1.320  17.159  0.3828 -0.2824  0.2051
  698TIP3    H126289   6.625   1.248  17.190 -1.2611  1.4519  1.4892
  698TIP3    H226290   6.655   1.332  17.067  0.3433 -1.0238  0.1121
  699TIP3   OH226291   0.208   4.958  17.745 -0.2292 -0.2641  0.1078
  699TIP3    H126292   0.301   4.983  17.746 -0.4771  0.6888  0.8320
  699TIP3    H226293   0.206   4.877  17.795  0.1320  0.0728  0.6891
  700TIP3   OH226294   6.704   6.175  17.842 -0.0135  0.0509 -0.2535
  700TIP3    H126295   6.701   6.085  17.875  0.5573  0.5226  1.1462
  700TIP3    H226296   6.793   6.185  17.809 -0.3782 -0.1988 -1.3577
  701TIP3   OH226297   0.824   4.015  18.955  0.3493 -0.0410 -0.1138
  701TIP3    H126298   0.844   4.041  19.045 -1.0233 -0.0715  0.2255
  701TIP3    H226299   0.853   3.924  18.949  1.2942  0.2413 -0.0055
  702TIP3   OH226300   2.171   7.112  17.877  0.4403 -0.1733  0.0625
  702TIP3    H126301   2.132   7.156  17.952  0.0514 -1.9078  0.9199
  702TIP3    H226302   2.251   7.072  17.911  0.6949 -0.2883 -0.6442
  703TIP3   OH226303   3.129   4.018  17.982  0.2171 -0.4362  0.4911
  703TIP3    H126304   3.130   3.968  18.064 -0.7141 -2.2000 -0.5094
  703TIP3    H226305   3.052   3.985  17.935 -0.0010  1.4418 -0.5738
  704TIP3   OH226306   6.795   4.214  18.755  0.3883 -0.0818  0.1275
  704TIP3    H126307   6.738   4.145  18.791 -0.9125  0.9231  0.0547
  704TIP3    H226308   6.858   4.167  18.701 -0.7076 -1.2032 -0.2240
  705TIP3   OH226309   6.134   2.275  17.832  0.3595 -0.6341 -0.6941
  705TIP3    H126310   6.198   2.292  17.901  0.6174  0.1878 -1.1230
  705TIP3    H226311   6.093   2.360  17.816  1.2715 -0.4990 -2.5200
  706TIP3   OH226312   3.506   2.198  19.013 -0.2653  0.0371 -0.0363
  706TIP3    H126313   3.537   2.142  18.942  0.4350  0.9490 -0.4666
  706TIP3    H226314   3.586   2.219  19.062 -0.7794 -0.8433  1.2249
  707TIP3   OH226315   6.803   3.404  18.838 -1.5489  0.0615  0.0004
  707TIP3    H126316   6.724   3.404  18.892 -1.1549 -1.6809  0.6351
  707TIP3    H226317   6.789   3.334  18.773 -0.5485 -0.2746  0.1213
  708TIP3   OH226318   4.196   1.905  17.584  0.0845 -0.2862  0.1510
  708TIP3    H126319   4.207   1.962  17.508 -1.9351  0.6531  0.5103
  708TIP3    H226320   4.115   1.857  17.567 -0.4243 -0.0500  1.6907
  709TIP3   OH226321   6.216   3.848  19.205 -0.2765 -0.1235  0.3437
  709TIP3    H126322   6.311   3.852  19.196 -0.3852  1.4706 -0.3227
  709TIP3    H226323   6.202   3.818  19.295  0.8590  0.0413  0.5895
  710TIP3   OH226324   2.244   6.667  16.781 -0.3716  0.6680  0.0074
  710TIP3    H126325   2.170   6.607  16.789 -0.0425 -0.0811 -1.9551
  710TIP3    H226326   2.205   6.754  16.783 -0.9611  0.4084  1.9276
  711TIP3   OH226327   3.457   5.574  17.965  0.8179  0.1904 -0.1096
  711TIP3    H126328   3.389   5.512  17.939  0.1197  0.7344  0.3761
  711TIP3    H226329   3.413   5.659  17.964  1.9969  0.8367 -1.7159
  712TIP3   OH226330   2.846   0.721  19.078  0.2613  0.1726  0.1340
  712TIP3    H126331   2.908   0.706  19.007  0.6111 -0.8585  0.6380
  712TIP3    H226332   2.857   0.645  19.136 -1.1885  0.1706  0.4364
  713TIP3   OH226333   6.949   2.339  18.283  0.7601  0.4708  0.4830
  713TIP3    H126334   6.946   2.426  18.243 -1.8995  0.4900  0.5493
  713TIP3    H226335   6.961   2.279  18.210 -0.6361  0.7217  0.0245
  714TIP3   OH226336   2.619   3.583  18.026  0.1204  0.1126 -0.1546
  714TIP3    H126337   2.655   3.542  18.105  0.4869  1.7964  0.6000
  714TIP3    H226338   2.594   3.671  18.054 -0.3391  0.5349 -1.7772
  715TIP3   OH226339   2.103   5.701  16.842 -0.2219  0.1218 -0.3635
  715TIP3    H126340   2.096   5.765  16.913 -1.3543  0.2766 -0.5846
  715TIP3    H226341   2.197   5.694  16.824  0.0090  0.7327  0.5565
  716TIP3   OH226342   0.141   0.511  16.892 -0.5453  0.4215  0.4823
  716TIP3    H126343   0.194   0.513  16.813 -0.3692  0.1643  0.5924
  716TIP3    H226344   0.080   0.585  16.882  0.2966  1.1634  0.6804
  717TIP3   OH226345   5.612   1.612  18.540  0.2926  0.1556  0.1891
  717TIP3    H126346   5.532   1.650  18.576 -1.0940 -1.5455 -0.9813
  717TIP3    H226347   5.648   1.682  18.485 -0.8153  0.6655  0.0816
  718TIP3   OH226348   6.037   1.575  18.676  0.1469 -0.0271 -0.2245
  718TIP3    H126349   6.053   1.622  18.594 -1.7119  0.8031 -0.1617
  718TIP3    H226350   5.961   1.520  18.657 -0.4134  0.3140  0.9964
  719TIP3   OH226351   7.190   0.862  16.811  0.1182  1.0015  0.6254
  719TIP3    H126352   7.184   0.943  16.759 -1.2608  0.1567 -0.6087
  719TIP3    H226353   7.114   0.811  16.784  2.6822 -2.2347 -1.3112
  720TIP3   OH226354   1.094   2.158  19.228 -0.1439 -0.4422  0.2405
  720TIP3    H126355   1.185   2.166  19.200 -0.6052  0.1102 -1.2210
  720TIP3    H226356   1.051   2.234  19.189 -1.5535 -1.5770 -0.5286
  721TIP3   OH226357   3.232   6.093  16.993  0.3273 -0.6022  0.1084
  721TIP3    H126358   3.155   6.146  16.975  1.4954  0.4329 -2.2819
  721TIP3    H226359   3.198   6.011  17.029 -1.7606  0.3067  0.3186
  722TIP3   OH226360   4.250   7.127  18.228 -0.1260 -0.6329 -0.0500
  722TIP3    H126361   4.337   7.153  18.258  0.2411 -0.0530 -1.5578
  722TIP3    H226362   4.265   7.074  18.150 -1.1176 -0.5711 -0.3032
  723TIP3   OH226363   4.377   4.753  18.851  0.2167 -0.5339 -0.5476
  723TIP3    H126364   4.342   4.791  18.931 -0.2671 -0.9031 -0.5854
  723TIP3    H226365   4.452   4.809  18.829  0.1702 -0.2549 -0.0058
  724TIP3   OH226366   6.341   0.848  18.156 -0.0255 -0.0981 -0.4320
  724TIP3    H126367   6.396   0.910  18.203  2.2698 -1.6723 -0.8745
  724TIP3    H226368   6.376   0.847  18.067 -2.4739  0.7216 -1.4985
  725TIP3   OH226369   1.552   4.600  17.260 -0.1461  0.0204  0.4511
  725TIP3    H126370   1.630   4.629  17.307 -0.9847  1.2622  1.1449
  725TIP3    H226371   1.524   4.521  17.307 -0.4761  0.7556  1.5281
  726TIP3   OH226372   0.181   3.716  16.680  0.1776 -0.0506  0.2227
  726TIP3    H126373   0.171   3.758  16.765  0.9739  0.6496 -0.0120
  726TIP3    H226374   0.196   3.624  16.699  0.1590  0.0713  0.8292
  727TIP3   OH226375   4.434   0.542  17.299 -0.3301 -0.3348 -0.1985
  727TIP3    H126376   4.468   0.506  17.218 -1.6220  2.4861 -2.1624
  727TIP3    H226377   4.511   0.565  17.350  0.5598 -0.4335 -1.4612
  728TIP3   OH226378   7.295   4.933  19.310 -0.7916 -0.3053 -0.0573
  728TIP3    H126379   7.253   4.979  19.383 -1.1195 -1.3916  0.4497
  728TIP3    H226380   7.387   4.958  19.317 -0.9953  0.4447  0.0779
  729TIP3   OH226381   5.584   2.211  18.449  0.4631 -0.1986  0.2338
  729TIP3    H126382   5.567   2.164  18.530 -0.6349  0.8671  0.6607
  729TIP3    H226383   5.504   2.262  18.434  0.3548 -0.9058 -1.9036
  730TIP3   OH226384   5.392   0.684  17.034 -0.2405  0.3202  0.5946
  730TIP3    H126385   5.453   0.753  17.061  0.8686 -1.0510  1.7899
  730TIP3    H226386   5.394   0.686  16.938  0.8735  1.0112  0.6088
  731TIP3   OH226387   6.764   0.056  19.431 -0.1690  0.2034  0.6292
  731TIP3    H126388   6.802   0.065  19.344  0.5883 -0.6436  0.8606
  731TIP3    H226389   6.839   0.058  19.491 -0.8047  2.8391  1.4686
  732TIP3   OH226390   3.141   3.779  18.865 -0.4218  0.4476 -0.2908
  732TIP3    H126391   3.226   3.819  18.886 -0.2116 -0.4673  0.6780
  732TIP3    H226392   3.124   3.806  18.774  0.8711  0.6959 -0.4823
  733TIP3   OH226393   7.577   2.745  17.257  0.2689 -0.2556 -0.4109
  733TIP3    H126394   7.522   2.674  17.223  0.8442 -0.4864 -0.8860
  733TIP3    H226395   7.555   2.820  17.202  0.6959 -0.4467 -0.8478
  734TIP3   OH226396   1.046   5.144  18.912 -0.2220 -0.1719  0.0188
  734TIP3    H126397   1.065   5.056  18.879  0.1569  0.2691 -0.9716
  734TIP3    H226398   0.959   5.136  18.951  0.1242 -1.1643  0.6384
  735TIP3   OH226399   6.017   6.362  18.015  0.0361  0.1192 -0.2475
  735TIP3    H126400   6.067   6.366  17.933 -1.4312 -0.9871 -1.2718
  735TIP3    H226401   6.045   6.279  18.055  0.7824  0.6803  0.4139
  736TIP3   OH226402   7.134   6.186  17.573 -0.3096 -0.0394  0.2103
  736TIP3    H126403   7.206   6.136  17.535  0.5810  1.7683 -0.6472
  736TIP3    H226404   7.176   6.248  17.633 -1.5557 -1.6743  2.9734
  737TIP3   OH226405   0.570   5.357  17.066  0.2499  0.9383 -0.1287
  737TIP3    H126406   0.643   5.407  17.102 -0.9457  2.7898 -0.1509
  737TIP3    H226407   0.571   5.377  16.972  0.0893  0.4420 -0.2445
  738TIP3   OH226408   4.745   0.236  17.725  0.2582 -0.3795 -0.4368
  738TIP3    H126409   4.660   0.243  17.768  0.9383 -0.5201  0.9726
  738TIP3    H226410   4.731   0.172  17.655 -0.7467 -0.5066 -0.1360
  739TIP3   OH226411   3.817   6.481  16.863 -0.0592 -0.0107  0.1158
  739TIP3    H126412   3.881   6.424  16.822  0.3755  1.2777 -1.0748
  739TIP3    H226413   3.737   6.467  16.813  0.5225  1.7071 -1.3916
  740TIP3   OH226414   2.120   0.874  17.484  0.1807 -0.7373  0.0633
  740TIP3    H126415   2.164   0.931  17.421  0.8638 -0.4366  0.7948
  740TIP3    H226416   2.175   0.796  17.488  0.9930 -0.1418  1.3784
  741TIP3   OH226417   0.003   1.716  18.147  0.1406 -0.2429 -0.0792
  741TIP3    H126418   0.003   1.646  18.212  0.6492  0.4312  0.6688
  741TIP3    H226419  -0.011   1.796  18.199  0.3122  0.2787 -0.8258
  742TIP3   OH226420   2.154   1.484  17.116  0.1974 -0.2033  0.2534
  742TIP3    H126421   2.099   1.478  17.038  0.1285  1.8725  0.0963
  742TIP3    H226422   2.225   1.542  17.091  0.8805 -0.5365  1.3578
  743TIP3   OH226423   2.822   1.161  19.001 -0.1877  0.1979 -0.1683
  743TIP3    H126424   2.767   1.120  19.068 -0.6128 -1.1973 -1.3151
  743TIP3    H226425   2.813   1.104  18.925  2.2467  0.3588 -0.6543
  744TIP3   OH226426   6.045   6.510  17.039  0.2349  0.1363  0.4169
  744TIP3    H126427   6.001   6.429  17.062  0.6521 -0.0924  0.4135
  744TIP3    H226428   5.984   6.579  17.066  0.4251 -0.1370  1.5808
  745TIP3   OH226429   3.182   1.031  17.297 -0.2061 -0.0445 -0.5429
  745TIP3    H126430   3.220   1.022  17.384 -2.5504 -1.5870  0.4150
  745TIP3    H226431   3.225   0.963  17.245 -0.0529 -0.2827 -0.1115
  746TIP3   OH226432   0.360   0.926  17.576 -0.2468  0.0469  0.2829
  746TIP3    H126433   0.395   0.946  17.489 -0.2612  2.0561  0.6865
  746TIP3    H226434   0.408   0.984  17.635 -1.0829 -0.4161  1.4562
  747TIP3   OH226435   6.509   2.082  16.945 -0.3272 -0.7723 -0.1509
  747TIP3    H126436   6.564   2.131  16.884  2.0868 -1.0951  1.6121
  747TIP3    H226437   6.423   2.124  16.939  1.1117  2.5210 -0.0619
  748TIP3   OH226438   4.261   4.324  18.816  0.6078 -0.7162  0.0044
  748TIP3    H126439   4.273   4.318  18.722  0.6136  1.2915 -0.1651
  748TIP3    H226440   4.349   4.316  18.853  0.4320 -3.5012  0.0537
  749TIP3   OH226441   0.529   2.506  18.432 -0.0082 -0.3310 -0.0577
  749TIP3    H126442   0.574   2.580  18.391 -0.9112 -0.7044 -1.8464
  749TIP3    H226443   0.437   2.528  18.426 -0.2493 -1.2555  0.0864
  750TIP3   OH226444   4.028   3.701  19.066 -0.4215 -0.0177  0.0418
  750TIP3    H126445   3.947   3.743  19.095 -1.1984 -0.9077 -0.7740
  750TIP3    H226446   4.005   3.661  18.983  0.8430 -0.3801 -0.1435
  751TIP3   OH226447   3.608   2.695  17.464 -0.5420  0.1770 -0.5351
  751TIP3    H126448   3.573   2.694  17.554 -0.6560 -0.6393 -0.5800
  751TIP3    H226449   3.680   2.757  17.468  0.9321 -1.4882  0.7161
  752TIP3   OH226450   7.437   7.173  19.671  0.3172 -0.3187  0.3086
  752TIP3    H126451   7.342   7.173  19.661 -0.0446 -0.1346  2.9410
  752TIP3    H226452   7.456   7.089  19.712  1.1028  0.2239  1.0784
  753TIP3   OH226453   0.313   1.052  19.478 -0.2038 -0.1872 -0.2514
  753TIP3    H126454   0.282   1.039  19.389  0.6800  2.3316 -1.0369
  753TIP3    H226455   0.405   1.023  19.477 -0.1743 -0.0991 -0.1770
  754TIP3   OH226456   1.765   5.610  17.663 -0.1354  0.0170  0.5315
  754TIP3    H126457   1.697   5.667  17.627 -1.2474 -0.8801  1.1320
  754TIP3    H226458   1.803   5.661  17.735 -0.8997  0.1423  0.8591
  755TIP3   OH226459   0.964   5.153  17.585 -0.0893 -1.1628 -0.1521
  755TIP3    H126460   0.948   5.224  17.646  1.3573 -0.6346 -0.3636
  755TIP3    H226461   1.019   5.191  17.517  0.1352 -2.3020 -0.6315
  756TIP3   OH226462   6.439   6.505  18.659  0.6701  0.1282  0.4006
  756TIP3    H126463   6.374   6.575  18.651 -0.5813 -1.1452 -1.3891
  756TIP3    H226464   6.388   6.429  18.689  1.4806 -0.6849 -0.2418
  757TIP3   OH226465   4.351   5.347  17.544 -0.2511  0.1139 -0.0132
  757TIP3    H126466   4.273   5.339  17.488 -1.0727 -0.5981  1.1934
  757TIP3    H226467   4.316   5.368  17.631  0.9022 -0.2798  0.5625
  758TIP3   OH226468   4.893   2.335  17.512  0.4487  0.5366  0.4244
  758TIP3    H126469   4.969   2.283  17.487  0.1836  0.8861 -1.1808
  758TIP3    H226470   4.834   2.272  17.553  0.8840 -0.0693  0.1433
  759TIP3   OH226471   4.536   1.151  19.275  0.6925  0.0814 -0.2071
  759TIP3    H126472   4.449   1.179  19.304  0.2232 -2.6885  1.5168
  759TIP3    H226473   4.543   1.060  19.306  3.4487 -0.4517 -2.0117
  760TIP3   OH226474   0.071   4.971  17.090 -1.5161 -0.5827  0.9126
  760TIP3    H126475   0.051   4.878  17.093 -0.8451 -0.7074  1.7130
  760TIP3    H226476   0.122   4.988  17.169 -0.0951  0.1072 -0.1128
  761TIP3   OH226477   6.009   5.688  17.201 -0.6993 -0.2136 -0.5894
  761TIP3    H126478   6.032   5.780  17.216 -2.4169  0.0858  0.4821
  761TIP3    H226479   6.031   5.673  17.109  1.3136  0.7138 -0.3094
  762TIP3   OH226480   1.725   4.414  19.442 -0.0730  0.0403 -0.0348
  762TIP3    H126481   1.662   4.431  19.512 -0.6554 -4.1861  0.7174
  762TIP3    H226482   1.672   4.386  19.367  0.7322 -2.0346  0.1041
  763TIP3   OH226483   4.706   1.693  18.878 -0.5404 -0.4335  0.0213
  763TIP3    H126484   4.673   1.733  18.959  1.1029  2.3940 -0.5637
  763TIP3    H226485   4.756   1.617  18.908  1.9618  1.7808  2.0618
  764TIP3   OH226486   6.000   5.054  17.563 -0.1853  0.0394 -0.3325
  764TIP3    H126487   6.002   5.055  17.467  0.2555 -1.7705 -0.3781
  764TIP3    H226488   5.970   5.142  17.587 -0.5474  0.4543 -2.1240
  765TIP3   OH226489   0.783   6.474  18.285 -0.3411  0.4311 -0.2204
  765TIP3    H126490   0.875   6.469  18.309 -0.3674  2.1927  0.4051
  765TIP3    H226491   0.782   6.461  18.191  0.5243  0.1373 -0.1953
  766TIP3   OH226492   2.809   3.563  18.561  0.0955  0.0766  0.3316
  766TIP3    H126493   2.759   3.642  18.539  0.9573  0.3955 -0.4996
  766TIP3    H226494   2.822   3.569  18.656  1.5610  1.7936  0.0692
  767TIP3   OH226495   2.921   3.565  17.629  0.1189 -0.7844 -0.3002
  767TIP3    H126496   2.969   3.482  17.633 -0.2819 -1.0433 -0.7881
  767TIP3    H226497   2.934   3.595  17.539 -0.5236 -0.7885 -0.3966
  768TIP3   OH226498   3.266   1.893  17.123 -0.0171 -0.4672  0.1342
  768TIP3    H126499   3.280   1.944  17.043  1.2217 -1.2500 -0.1900
  768TIP3    H226500   3.230   1.810  17.092  0.1319 -0.6404  0.4228
  769TIP3   OH226501   6.308   0.458  18.874 -0.5907  0.1980  0.2721
  769TIP3    H126502   6.309   0.478  18.968 -1.9977  0.8752  0.1726
  769TIP3    H226503   6.399   0.467  18.846 -0.2425  0.5500  1.4534
  770TIP3   OH226504   1.758   6.932  17.409 -0.0297  0.0036  0.1050
  770TIP3    H126505   1.731   6.868  17.475 -0.7594 -0.7957 -0.9316
  770TIP3    H226506   1.754   6.884  17.326  0.9086  0.9673 -0.5267
  771TIP3   OH226507   7.569   4.604  17.794 -0.3942 -0.6759  0.4570
  771TIP3    H126508   7.663   4.584  17.789 -0.0272  0.8803  0.6228
  771TIP3    H226509   7.528   4.542  17.733  1.1806  1.1679 -2.7600
  772TIP3   OH226510   3.898   2.412  18.428 -0.1386 -0.1472  0.9854
  772TIP3    H126511   3.838   2.338  18.429  0.3417 -0.6014 -0.6618
  772TIP3    H226512   3.971   2.383  18.372  0.0301  1.5689  0.2608
  773TIP3   OH226513   6.741   1.614  17.652 -0.9519 -1.0701 -0.4147
  773TIP3    H126514   6.801   1.659  17.592 -0.8007  0.1484  0.6024
  773TIP3    H226515   6.777   1.526  17.662 -0.5105 -1.0153 -1.4261
  774TIP3   OH226516   3.348   7.357  18.488  0.5398  0.0635 -0.2544
  774TIP3    H126517   3.300   7.431  18.451  1.3604  0.4423 -0.5919
  774TIP3    H226518   3.315   7.349  18.578  0.1875  0.6099 -0.3317
  775TIP3   OH226519   6.183   1.312  18.253 -0.6940 -0.1532 -0.1279
  775TIP3    H126520   6.183   1.405  18.275 -1.4828 -0.1272 -0.2086
  775TIP3    H226521   6.249   1.274  18.311 -0.3743  0.4511 -0.0854
  776TIP3   OH226522   6.590   0.468  17.418 -0.1738 -0.2454 -0.2768
  776TIP3    H126523   6.541   0.392  17.386  0.3129 -0.8330  0.3398
  776TIP3    H226524   6.622   0.441  17.504 -1.7431  1.3922  0.9261
  777TIP3   OH226525   0.457   4.547  19.129 -0.4451  0.0399  0.1561
  777TIP3    H126526   0.496   4.485  19.068  0.8965  0.5355  0.4703
  777TIP3    H226527   0.499   4.528  19.213 -2.5785 -0.9373  1.0916
  778TIP3   OH226528   5.786   1.424  18.639 -0.3572 -0.5236 -0.0532
  778TIP3    H126529   5.788   1.342  18.590 -0.4995 -0.6133  0.0870
  778TIP3    H226530   5.712   1.472  18.602 -0.9924 -0.9470  0.6258
  779TIP3   OH226531   1.119   6.973  17.583 -0.3366  0.7268  0.7519
  779TIP3    H126532   1.096   6.885  17.611 -0.3135  0.1760 -0.8813
  779TIP3    H226533   1.206   6.965  17.545  0.4815  1.8348  2.2803
  780TIP3   OH226534   1.617   2.004  17.673  0.1035  0.3876 -0.6765
  780TIP3    H126535   1.667   2.019  17.593  0.2366  0.5555 -0.5622
  780TIP3    H226536   1.654   1.924  17.710 -1.0194 -0.6088 -1.6046
  781TIP3   OH226537   5.315   2.133  18.840 -0.2460 -0.4837  0.0061
  781TIP3    H126538   5.284   2.139  18.750 -0.4624 -2.1240 -0.0603
  781TIP3    H226539   5.245   2.086  18.886 -0.0795  0.2269  1.0054
  782TIP3   OH226540   5.183   6.560  17.030  0.0227 -0.1205 -0.6152
  782TIP3    H126541   5.105   6.546  16.977 -0.2350 -0.7945 -0.0730
  782TIP3    H226542   5.240   6.614  16.975 -0.3500 -0.5627 -1.4581
  783TIP3   OH226543   3.973   4.168  16.545 -0.3542 -0.0971  0.1928
  783TIP3    H126544   3.886   4.174  16.584  0.8063 -1.8303  3.5591
  783TIP3    H226545   4.021   4.243  16.581 -0.4453  0.9567 -1.7849
  784TIP3   OH226546   4.533   1.225  18.772  0.3765  0.0154 -0.2059
  784TIP3    H126547   4.504   1.189  18.688 -1.2557 -0.2565  0.4218
  784TIP3    H226548   4.555   1.316  18.753  1.1417 -0.3503 -1.1297
  785TIP3   OH226549   6.713   4.823  18.726 -0.5206  0.1941 -0.2920
  785TIP3    H126550   6.666   4.770  18.790 -0.8359  1.1857  0.3140
  785TIP3    H226551   6.805   4.801  18.739 -0.6627 -0.3226 -0.1559
  786TIP3   OH226552   2.144   3.575  16.444 -0.3232 -0.0759  0.6556
  786TIP3    H126553   2.182   3.494  16.410  0.7631  0.9220 -0.6003
  786TIP3    H226554   2.068   3.591  16.388 -0.4708 -0.1534  0.8301
  787TIP3   OH226555   0.760   2.320  17.517  0.0032  0.0130 -0.5275
  787TIP3    H126556   0.854   2.327  17.501 -0.4221  0.5454 -3.3818
  787TIP3    H226557   0.747   2.233  17.554  1.6560  0.1201  0.3467
  788TIP3   OH226558   1.711   0.899  17.903  0.1652 -0.3088  0.1201
  788TIP3    H126559   1.696   0.807  17.925 -2.1745  0.0709  0.3799
  788TIP3    H226560   1.682   0.907  17.812 -0.5747  0.3435  0.4026
  789TIP3   OH226561   7.455   7.428  19.560  0.2355 -0.2162  0.3058
  789TIP3    H126562   7.464   7.389  19.473  0.6128  2.1872 -0.8164
  789TIP3    H226563   7.466   7.354  19.620 -0.4925 -2.0489 -1.6543
  790TIP3   OH226564   6.335   1.251  18.488  0.6595  0.4561 -0.3304
  790TIP3    H126565   6.304   1.316  18.551 -1.4278 -0.6208 -0.1363
  790TIP3    H226566   6.419   1.284  18.458  0.5798  2.2216  1.2186
  791TIP3   OH226567   7.103   2.513  19.131 -0.2310 -0.0010  0.0839
  791TIP3    H126568   7.056   2.596  19.134  0.0380  0.2156 -0.9926
  791TIP3    H226569   7.196   2.537  19.138 -0.2053 -0.3143  0.9272
  792TIP3   OH226570   2.324   3.642  18.177  0.2275 -0.3913  0.0804
  792TIP3    H126571   2.397   3.643  18.239 -0.2188  0.6808  0.6215
  792TIP3    H226572   2.324   3.554  18.141  0.8371 -0.8760  1.2192
  793TIP3   OH226573   1.640   2.154  16.628  0.5069 -0.3339  0.1209
  793TIP3    H126574   1.546   2.171  16.637  0.3311 -0.1875 -1.6410
  793TIP3    H226575   1.649   2.060  16.646  0.1918 -0.1581  1.2791
  794TIP3   OH226576   3.135   6.862  18.706 -0.4794  0.0069  0.1667
  794TIP3    H126577   3.110   6.856  18.614 -1.2068 -2.5260  0.4452
  794TIP3    H226578   3.229   6.840  18.706  0.0486  2.0669 -0.1198
  795TIP3   OH226579   6.038   2.826  16.709  0.4581 -0.1753  0.2458
  795TIP3    H126580   6.012   2.912  16.676  0.4469 -0.2551  0.0442
  795TIP3    H226581   6.134   2.829  16.710  0.4514  0.1394  1.0448
  796TIP3   OH226582   4.877   3.503  17.172  0.0708 -0.6010  0.3401
  796TIP3    H126583   4.836   3.532  17.253 -0.2616 -0.4191  0.1093
  796TIP3    H226584   4.873   3.579  17.114 -1.8546 -1.4241 -0.6731
  797TIP3   OH226585   1.920   4.440  17.668  0.7291  0.2163  0.0927
  797TIP3    H126586   1.975   4.489  17.607  0.6062  1.6894  1.0938
  797TIP3    H226587   1.852   4.401  17.614  0.7243  1.3367 -0.7402
  798TIP3   OH226588   1.983   0.458  18.058 -0.1578 -0.1100  0.1077
  798TIP3    H126589   1.892   0.429  18.052 -0.8906  1.6302  1.7151
  798TIP3    H226590   1.991   0.526  17.991 -0.1581 -0.0248  0.1923
  799TIP3   OH226591   1.072   1.312  17.700  0.3644 -0.4431  0.0651
  799TIP3    H126592   1.136   1.245  17.723  1.0194  0.4330  0.8636
  799TIP3    H226593   0.987   1.270  17.713  0.7534 -0.8987  1.2521
  800TIP3   OH226594   4.177   5.757  17.875 -0.7196  0.3469  0.0206
  800TIP3    H126595   4.189   5.666  17.904  1.4926  0.7419  0.5802
  800TIP3    H226596   4.145   5.750  17.785 -0.9935 -0.9776  0.2007
  801TIP3   OH226597   6.214   3.221  19.116  0.0418  0.5376 -0.2490
  801TIP3    H126598   6.252   3.303  19.087  0.5291  0.0130 -1.1476
  801TIP3    H226599   6.266   3.153  19.073 -0.4990 -0.2439  0.2784
  802TIP3   OH226600   4.446   4.701  19.548 -0.1094 -0.3032  0.5674
  802TIP3    H126601   4.360   4.665  19.569  0.2034 -0.8402  0.9641
  802TIP3    H226602   4.507   4.647  19.599  0.4450  0.1763  0.4174
  803TIP3   OH226603   3.788   3.790  18.606 -0.5486 -1.0545 -0.0470
  803TIP3    H126604   3.726   3.734  18.559 -0.2410 -0.6984 -0.8906
  803TIP3    H226605   3.789   3.872  18.557 -0.4907 -0.5321  0.7943
  804TIP3   OH226606   1.478   4.789  18.221 -0.2548  0.5714 -0.1404
  804TIP3    H126607   1.471   4.702  18.260  2.3129  0.1536 -0.4605
  804TIP3    H226608   1.390   4.807  18.187 -0.8018 -1.9913 -0.2722
  805TIP3   OH226609   6.136   5.307  19.219  0.2124  0.1079  0.2012
  805TIP3    H126610   6.080   5.275  19.290 -0.3276  0.8559  0.1122
  805TIP3    H226611   6.216   5.254  19.228  0.2621  0.3686  1.5404
  806TIP3   OH226612   5.270   6.412  18.104 -0.1580 -0.0698  0.0197
  806TIP3    H126613   5.263   6.332  18.158  1.2931 -0.3491 -0.1623
  806TIP3    H226614   5.352   6.452  18.132 -0.9506  1.4793  0.2197
  807TIP3   OH226615   5.961   6.855  19.534 -0.3213 -0.0906  0.4036
  807TIP3    H126616   5.885   6.803  19.509 -0.3033  0.1894 -0.2511
  807TIP3    H226617   6.005   6.874  19.451 -0.6118  1.4107  0.5590
  808TIP3   OH226618   6.417   4.728  17.318  0.1761  0.1463 -0.4774
  808TIP3    H126619   6.390   4.752  17.229  0.3084  0.8492 -0.3321
  808TIP3    H226620   6.431   4.633  17.314  0.0230  0.1460 -1.1621
  809TIP3   OH226621   5.595   5.377  18.999  0.2541 -0.1832 -0.0779
  809TIP3    H126622   5.672   5.384  18.942  0.2296  1.5699  0.0550
  809TIP3    H226623   5.524   5.352  18.941  0.5169  0.1923 -0.5690
  810TIP3   OH226624   3.238   7.136  17.075 -0.1500 -0.2567  0.2000
  810TIP3    H126625   3.231   7.221  17.119 -0.6901  0.8705 -1.9543
  810TIP3    H226626   3.282   7.079  17.139  0.4492  1.6973  1.6030
  811TIP3   OH226627   4.152   6.698  18.035 -0.1783 -0.2498 -0.0955
  811TIP3    H126628   4.196   6.783  18.044  2.4842 -1.4798 -0.5410
  811TIP3    H226629   4.150   6.662  18.123 -0.7420 -0.0018 -0.0034
  812TIP3   OH226630   3.302   2.516  18.120  0.2277 -0.2980  0.6828
  812TIP3    H126631   3.333   2.435  18.080 -0.6450 -1.2425  1.8246
  812TIP3    H226632   3.380   2.556  18.159  0.6483 -0.6293  0.1873
  813TIP3   OH226633   7.513   4.264  17.668 -0.2214  0.4461  0.3708
  813TIP3    H126634   7.441   4.250  17.729  0.2638  1.9039  1.3133
  813TIP3    H226635   7.556   4.178  17.663  0.1742  0.4451  2.6771
  814TIP3   OH226636   0.769   3.374  17.822  0.0785  0.2323  0.1375
  814TIP3    H126637   0.751   3.446  17.762 -0.1108 -1.1299 -1.5357
  814TIP3    H226638   0.785   3.416  17.906  0.4668  2.2359 -0.8757
  815TIP3   OH226639   6.878   1.639  18.248  0.0280  0.0302  0.3569
  815TIP3    H126640   6.823   1.569  18.214 -0.1209  0.5764 -0.5676
  815TIP3    H226641   6.903   1.610  18.335 -0.7654 -0.7580  0.3338
  816TIP3   OH226642   2.609   2.406  17.254  0.5799 -0.2733 -0.8411
  816TIP3    H126643   2.528   2.430  17.209  0.7725  0.0624 -1.0109
  816TIP3    H226644   2.672   2.474  17.228  1.2803 -1.2248 -1.7438
  817TIP3   OH226645   1.540   7.073  19.047  0.4808  0.3768 -0.8243
  817TIP3    H126646   1.605   7.023  19.097 -1.5602 -0.6407  0.9801
  817TIP3    H226647   1.470   7.092  19.110 -1.2279  0.9721 -2.7725
  818TIP3   OH226648   5.022   6.330  18.757  0.1547  0.5251 -0.7024
  818TIP3    H126649   5.052   6.244  18.787 -0.9875 -0.2068 -1.5297
  818TIP3    H226650   5.101   6.373  18.724  0.5458 -0.7830 -1.5765
  819TIP3   OH226651   0.239   7.204  16.909  0.1929 -0.1396 -0.0959
  819TIP3    H126652   0.201   7.126  16.949 -0.0967 -0.5458 -1.1344
  819TIP3    H226653   0.201   7.277  16.958 -1.4974 -0.5561 -0.7036
  820TIP3   OH226654   5.837   7.589  19.494  0.3309 -0.0352  0.4917
  820TIP3    H126655   5.903   7.654  19.519 -2.2975  2.0774  2.5547
  820TIP3    H226656   5.832   7.529  19.568 -1.6168  1.2585  1.4927
  821TIP3   OH226657   0.527   6.481  18.405 -0.0728  0.0602 -0.8808
  821TIP3    H126658   0.618   6.474  18.377 -0.4867 -1.3813 -1.9496
  821TIP3    H226659   0.528   6.450  18.496  0.3338 -1.0611 -1.2535
  822TIP3   OH226660   2.237   3.303  17.010  0.6835  0.3535 -0.5016
  822TIP3    H126661   2.222   3.394  16.984  0.9587  0.4345 -0.3820
  822TIP3    H226662   2.305   3.272  16.950 -0.2658 -0.1594 -1.3549
  823TIP3   OH226663   4.364   4.570  17.365  0.1901 -0.1172  0.2372
  823TIP3    H126664   4.302   4.499  17.378 -2.9635  2.5273  0.7548
  823TIP3    H226665   4.365   4.585  17.270 -1.2508  0.7955  0.3348
  824TIP3   OH226666   6.563   5.725  16.508 -0.0869  0.3109  0.3125
  824TIP3    H126667   6.480   5.692  16.472 -0.3662  1.2014  0.1054
  824TIP3    H226668   6.595   5.654  16.564 -0.0083 -0.8169 -1.1059
  825TIP3   OH226669   5.877   1.679  19.411 -0.0987  0.0376  0.7718
  825TIP3    H126670   5.915   1.601  19.370 -1.7345  0.1009 -1.0217
  825TIP3    H226671   5.791   1.650  19.441 -0.8724  1.2023 -0.2338
  826TIP3   OH226672   3.402   6.059  17.429  0.0775  0.6138  0.2564
  826TIP3    H126673   3.330   6.041  17.490  1.5855 -1.5608  1.5549
  826TIP3    H226674   3.477   6.078  17.485  1.4753 -1.2892 -0.8298
  827TIP3   OH226675   6.544   0.331  19.165  0.6950  0.1077 -0.0367
  827TIP3    H126676   6.583   0.273  19.100  0.6186  0.3076 -0.2643
  827TIP3    H226677   6.528   0.413  19.117  1.1249  0.4320  0.3688
  828TIP3   OH226678   2.201   6.365  18.997 -0.1827  0.3725 -0.2816
  828TIP3    H126679   2.147   6.334  19.070 -0.7393  2.0654  0.0689
  828TIP3    H226680   2.214   6.287  18.942  0.1741 -0.9239  1.5503
  829TIP3   OH226681   6.718   7.035  18.708 -0.4667 -0.1547  0.2129
  829TIP3    H126682   6.753   7.124  18.719 -0.0438 -0.3260  0.2546
  829TIP3    H226683   6.734   7.014  18.616  2.6174 -1.5069  0.9152
  830TIP3   OH226684   7.114   0.863  16.462 -0.2239  0.0762  0.2079
  830TIP3    H126685   7.190   0.919  16.449 -0.3189  0.3303  0.7506
  830TIP3    H226686   7.151   0.779  16.490 -0.1022 -0.0430 -0.2964
  831TIP3   OH226687   5.120   6.488  17.507  0.7909  0.0931 -0.2290
  831TIP3    H126688   5.043   6.516  17.456  0.7057 -0.8208 -0.6251
  831TIP3    H226689   5.093   6.405  17.546  0.9094  0.7187  1.2088
  832TIP3   OH226690   1.322   5.647  17.089 -0.1524  0.4960 -0.0472
  832TIP3    H126691   1.293   5.599  17.012 -1.1042  0.3298  0.3975
  832TIP3    H226692   1.253   5.712  17.104  1.0300  1.9221 -0.5464
  833TIP3   OH226693   1.361   3.561  17.594 -0.2498 -0.4682 -0.7217
  833TIP3    H126694   1.292   3.541  17.531  0.5647  1.3899 -2.3405
  833TIP3    H226695   1.409   3.479  17.605 -0.7832 -0.9929 -2.1019
  834TIP3   OH226696   2.455   4.820  16.873  0.1229  0.1317 -0.7279
  834TIP3    H126697   2.400   4.816  16.795 -0.7323  0.8974 -0.1818
  834TIP3    H226698   2.409   4.879  16.933 -0.2942 -2.0017  1.2060
  835TIP3   OH226699   1.153   3.545  18.623  0.4751 -0.1899  0.4518
  835TIP3    H126700   1.128   3.518  18.534  1.6569  2.7586 -0.9145
  835TIP3    H226701   1.217   3.480  18.650 -1.2741 -2.2309  0.0021
  836TIP3   OH226702   1.162   3.956  17.370 -0.1195 -0.0602  0.6182
  836TIP3    H126703   1.242   3.906  17.355  0.0393 -0.4449  2.5143
  836TIP3    H226704   1.192   4.038  17.409 -0.4461  1.2057 -1.6528
  837TIP3   OH226705   0.089   0.559  17.669  0.2715 -0.1491 -0.5361
  837TIP3    H126706   0.124   0.487  17.720 -1.0316 -0.0630  0.5282
  837TIP3    H226707  -0.005   0.559  17.688 -0.0367  0.7441 -1.8758
  838TIP3   OH226708   6.180   4.090  17.624 -0.2182  0.5741  0.3699
  838TIP3    H126709   6.220   4.030  17.561 -0.2870  0.6867  0.2176
  838TIP3    H226710   6.195   4.050  17.709  0.5156  0.7806  0.3460
  839TIP3   OH226711   2.046   5.693  18.986  0.1190  0.3116 -0.1442
  839TIP3    H126712   2.066   5.674  18.894  1.3269  0.8706 -0.0151
  839TIP3    H226713   2.100   5.633  19.036 -1.0121 -0.4349  0.2236
  840TIP3   OH226714   5.255   2.779  18.703 -0.0976  0.1604  0.4137
  840TIP3    H126715   5.241   2.858  18.756 -0.7174 -1.0159  2.0535
  840TIP3    H226716   5.270   2.709  18.766 -1.6776 -1.4710 -0.9049
  841TIP3   OH226717   4.712   6.830  19.506 -0.2470  0.3305  0.3387
  841TIP3    H126718   4.764   6.851  19.428 -0.7925 -0.5155 -0.2728
  841TIP3    H226719   4.743   6.743  19.532 -2.2305 -0.7793 -0.8093
  842TIP3   OH226720   4.723   6.662  17.826 -0.0043  0.3153 -0.3461
  842TIP3    H126721   4.807   6.619  17.810  0.1923  0.1911  0.9613
  842TIP3    H226722   4.737   6.752  17.797  0.4784  0.2098 -0.4498
  843TIP3   OH226723   5.911   7.332  17.493  0.8531  0.0450 -0.2731
  843TIP3    H126724   5.926   7.268  17.562  0.6535  1.7231  1.3945
  843TIP3    H226725   5.821   7.362  17.507  0.7322  0.2778 -1.4116
  844TIP3   OH226726   1.637   5.804  19.269 -0.5835 -0.0245 -0.3719
  844TIP3    H126727   1.576   5.748  19.316 -0.8163  0.8544  0.4020
  844TIP3    H226728   1.722   5.786  19.307 -0.6103 -0.0736 -0.3350
  845TIP3   OH226729   2.775   1.064  18.535 -0.1420 -0.3297 -0.0964
  845TIP3    H126730   2.786   1.159  18.539  0.6204 -0.4371  0.6177
  845TIP3    H226731   2.712   1.045  18.604 -0.1266 -0.3609 -0.0908
  846TIP3   OH226732   0.284   1.509  18.120  0.0331 -0.4311 -0.2858
  846TIP3    H126733   0.246   1.566  18.188 -0.9961  0.7653 -1.8082
  846TIP3    H226734   0.217   1.443  18.104 -0.5394  0.4042 -1.4437
  847TIP3   OH226735   4.300   1.756  18.497 -0.1449  0.0466 -0.0463
  847TIP3    H126736   4.344   1.816  18.437  1.2125  0.0945  0.9469
  847TIP3    H226737   4.212   1.746  18.461  0.3357  0.7983 -1.5118
  848TIP3   OH226738   3.948   4.601  19.287 -0.1026  0.4819  0.1891
  848TIP3    H126739   3.890   4.672  19.315 -0.2984  0.0058  1.0114
  848TIP3    H226740   3.890   4.537  19.246 -0.2636 -0.2401  1.4854
  849TIP3   OH226741   0.135   5.851  18.351 -0.9016  0.6002 -0.0336
  849TIP3    H126742   0.162   5.912  18.281  1.9430 -2.1240 -1.5569
  849TIP3    H226743   0.063   5.802  18.312 -1.4536  1.2069  0.2039
  850TIP3   OH226744   3.035   3.916  17.693 -0.6838  0.6088 -0.0098
  850TIP3    H126745   3.066   3.825  17.698 -0.5925  0.6660  0.6313
  850TIP3    H226746   3.095   3.959  17.634 -1.4596 -0.0374 -1.3148
  851TIP3   OH226747   3.666   4.973  17.085 -0.1514 -0.2558  0.1371
  851TIP3    H126748   3.650   4.889  17.128 -1.8243 -0.7119 -1.2549
  851TIP3    H226749   3.730   4.954  17.017  1.1346  0.1008  1.1940
  852TIP3   OH226750   2.623   7.335  17.528 -0.4599  0.4189 -0.5998
  852TIP3    H126751   2.677   7.368  17.456  1.3818 -3.3678 -1.1649
  852TIP3    H226752   2.556   7.281  17.486  0.7832 -2.0449  0.4140
  853TIP3   OH226753   5.732   6.337  18.038  0.5636  0.8205  0.3703
  853TIP3    H126754   5.709   6.302  17.952  0.4265  0.1378  0.6784
  853TIP3    H226755   5.827   6.344  18.036  0.5672  0.7328  0.1932
  854TIP3   OH226756   1.263   5.742  19.337  0.3082  0.6329  0.5473
  854TIP3    H126757   1.217   5.788  19.407 -1.5091 -1.4439  0.8585
  854TIP3    H226758   1.346   5.715  19.375 -0.3082  0.2472  1.6565
  855TIP3   OH226759   6.543   0.236  19.435  0.2407  0.5768 -0.3778
  855TIP3    H126760   6.620   0.181  19.450 -1.1983 -2.0085 -1.8418
  855TIP3    H226761   6.552   0.267  19.345 -0.0797  0.8776 -0.3091
  856TIP3   OH226762   7.565   5.161  18.996  0.4369 -0.6277 -0.0516
  856TIP3    H126763   7.498   5.221  18.964  1.2684  0.4215  0.1361
  856TIP3    H226764   7.606   5.126  18.917  0.0266 -0.8767 -0.1590
  857TIP3   OH226765   1.067   3.622  17.688 -0.1780 -0.2959 -0.0786
  857TIP3    H126766   1.002   3.612  17.757  1.2093 -0.0346  1.3219
  857TIP3    H226767   1.137   3.563  17.712 -0.1864 -1.1631 -1.9836
  858TIP3   OH226768   2.920   1.259  17.428  0.1717  0.0927 -0.0673
  858TIP3    H126769   2.929   1.182  17.372  2.0562  1.0521 -1.2006
  858TIP3    H226770   3.010   1.282  17.451 -0.4300  1.2153  1.3022
  859TIP3   OH226771   1.658   5.595  17.331 -0.4531 -0.0397 -0.1129
  859TIP3    H126772   1.632   5.561  17.417 -3.0831  2.1136  0.1077
  859TIP3    H226773   1.665   5.690  17.344 -0.4476  0.2937 -2.1552
  860TIP3   OH226774   0.309   2.038  18.817  0.0321  1.1636 -0.0776
  860TIP3    H126775   0.284   2.021  18.908 -1.7669 -0.0158 -0.7380
  860TIP3    H226776   0.264   2.120  18.795 -1.1647  0.4272 -0.4613
  861TIP3   OH226777   3.408   6.706  18.364 -0.2539  0.4736 -0.1979
  861TIP3    H126778   3.462   6.729  18.288  0.7403 -0.3248  0.2309
  861TIP3    H226779   3.364   6.625  18.338  2.3424 -1.5029  1.0118
  862TIP3   OH226780   1.499   2.997  18.689 -0.1623 -0.1719  0.7315
  862TIP3    H126781   1.513   3.072  18.631  2.5599 -0.8322  0.4005
  862TIP3    H226782   1.442   3.030  18.758 -1.5301  1.3123 -1.0252
  863TIP3   OH226783   1.972   1.124  17.058  0.4082  0.0103  0.4928
  863TIP3    H126784   1.915   1.188  17.100 -1.4503 -1.2303 -0.0178
  863TIP3    H226785   1.975   1.051  17.119 -0.1558 -0.7223 -0.3307
  864TIP3   OH226786   2.130   2.226  17.658 -0.1035 -0.0136 -0.1981
  864TIP3    H126787   2.077   2.243  17.581  0.4332 -1.7064 -1.0004
  864TIP3    H226788   2.069   2.188  17.722 -0.1681 -0.5505 -0.5692
  865TIP3   OH226789   5.864   3.911  16.829 -0.3435 -0.1887 -0.1127
  865TIP3    H126790   5.937   3.850  16.820 -0.2561  0.0711 -1.2305
  865TIP3    H226791   5.900   3.983  16.882  0.1985 -0.0900 -0.6064
  866TIP3   OH226792   7.669   0.458  16.637  0.7362  0.0932  0.4085
  866TIP3    H126793   7.623   0.527  16.590  1.3753  0.0689 -0.2709
  866TIP3    H226794   7.675   0.490  16.727 -0.6997  0.0399  0.5450
  867TIP3   OH226795   2.564   5.846  17.873 -0.1438 -0.5904 -0.6488
  867TIP3    H126796   2.589   5.902  17.947 -2.5900  0.1393 -0.2784
  867TIP3    H226797   2.508   5.779  17.912  0.1411 -1.4000 -1.5832
  868TIP3   OH226798   4.618   5.613  17.688 -0.4296 -0.3844 -0.0381
  868TIP3    H126799   4.704   5.571  17.694 -0.0025  0.3159 -0.9564
  868TIP3    H226800   4.578   5.597  17.774  0.8955 -0.1173  0.6653
  869TIP3   OH226801   1.711   3.007  18.213 -0.5145 -0.4582 -0.0627
  869TIP3    H126802   1.706   3.090  18.165 -0.7065 -1.4319 -1.8139
  869TIP3    H226803   1.619   2.986  18.233 -0.7264 -1.4164 -1.8162
  870TIP3   OH226804   5.451   1.120  17.078  0.0708  0.3307  0.1522
  870TIP3    H126805   5.502   1.047  17.111  0.0464  0.4631  0.4915
  870TIP3    H226806   5.516   1.185  17.051  0.0904  0.2348 -0.0324
  871TIP3   OH226807   2.956   5.657  17.364 -0.2035  0.0691 -0.2688
  871TIP3    H126808   2.918   5.629  17.281  0.3037 -0.9131 -0.1901
  871TIP3    H226809   2.889   5.636  17.429 -0.0775 -0.4051 -0.2847
  872TIP3   OH226810   5.816   1.084  17.781  0.1039 -0.2394 -0.4294
  872TIP3    H126811   5.758   1.035  17.839  1.4557 -0.0072  1.1972
  872TIP3    H226812   5.763   1.159  17.752 -1.1360 -1.2568 -0.8717
  873TIP3   OH226813   5.312   3.317  19.488 -0.0547 -0.0561 -0.4272
  873TIP3    H126814   5.364   3.363  19.554  0.1971 -0.5462 -0.2737
  873TIP3    H226815   5.245   3.271  19.539  0.8338 -1.3557 -0.3895
  874TIP3   OH226816   2.293   6.111  17.137 -0.3249 -0.3231 -0.3440
  874TIP3    H126817   2.322   6.200  17.154 -1.5408  0.4830 -2.2221
  874TIP3    H226818   2.332   6.088  17.052 -1.3498 -0.9580 -0.6601
  875TIP3   OH226819   0.611   4.808  17.982 -0.2863 -0.8886  0.2604
  875TIP3    H126820   0.577   4.825  18.070  0.5885  0.4214  0.3836
  875TIP3    H226821   0.703   4.788  17.996  0.3120  1.1526 -0.4637
  876TIP3   OH226822   7.640   2.467  18.850  0.0460  0.2953 -0.7535
  876TIP3    H126823   7.600   2.553  18.862 -0.2422  0.1941 -0.9785
  876TIP3    H226824   7.688   2.474  18.768 -1.5654 -0.3395 -1.7892
  877TIP3   OH226825   3.632   3.869  18.844 -0.8431  0.0892  0.2065
  877TIP3    H126826   3.618   3.877  18.750 -1.4408  1.3461  0.3850
  877TIP3    H226827   3.695   3.938  18.866 -0.2689 -0.5576  0.6523
  878TIP3   OH226828   3.217   1.142  18.736 -0.6487 -0.1659 -0.2170
  878TIP3    H126829   3.253   1.231  18.739 -0.6178 -0.1850  0.0118
  878TIP3    H226830   3.151   1.140  18.805  0.8045 -0.9330  1.2512
  879TIP3   OH226831   1.667   4.526  16.975  0.1415  0.0798  0.4559
  879TIP3    H126832   1.604   4.570  16.917  3.2044  1.1533 -2.4047
  879TIP3    H226833   1.679   4.587  17.048  0.7363  1.8058 -1.0026
  880TIP3   OH226834   6.555   5.736  18.470 -1.1052  0.3273 -0.0825
  880TIP3    H126835   6.504   5.691  18.538  1.0543  0.5306  1.7709
  880TIP3    H226836   6.557   5.674  18.397 -2.3994 -0.4512  0.4999
  881TIP3   OH226837   2.908   0.567  17.663 -0.8301  0.5930 -0.1160
  881TIP3    H126838   2.834   0.628  17.664 -0.6927  0.7765 -0.6356
  881TIP3    H226839   2.871   0.485  17.630 -0.3880  1.2702 -2.4393
  882TIP3   OH226840   5.475   5.694  18.163  0.0109  0.3135  0.0420
  882TIP3    H126841   5.561   5.708  18.201 -0.1248  0.8880  0.1482
  882TIP3    H226842   5.415   5.743  18.220 -0.3487  0.1430 -0.1857
  883TIP3   OH226843   0.656   2.900  17.895 -0.5064 -0.1940  0.5333
  883TIP3    H126844   0.584   2.883  17.834  0.5501 -0.4161 -0.7179
  883TIP3    H226845   0.621   2.962  17.958 -1.5904  0.2200 -0.4400
  884TIP3   OH226846   7.465   6.044  17.806 -0.3585  0.1371 -0.2706
  884TIP3    H126847   7.400   5.974  17.810 -2.1352  1.7369 -0.2163
  884TIP3    H226848   7.415   6.124  17.789  1.7350  1.2475 -1.7214
  885TIP3   OH226849   2.369   1.742  18.050  0.2403 -0.4024 -0.1479
  885TIP3    H126850   2.356   1.649  18.032 -0.4284 -0.5240  0.8475
  885TIP3    H226851   2.463   1.750  18.069  0.4163 -0.7580 -0.8486
  886TIP3   OH226852   6.974   5.414  19.398  0.1411 -0.2877  0.5976
  886TIP3    H126853   6.910   5.452  19.338 -0.8776 -0.7660  1.3459
  886TIP3    H226854   6.967   5.320  19.386 -0.3315 -0.4150  1.6718
  887TIP3   OH226855   5.109   4.556  18.295 -0.2323 -0.3616  0.6801
  887TIP3    H126856   5.160   4.555  18.376 -0.5245  0.2013  0.8748
  887TIP3    H226857   5.172   4.585  18.228 -0.3802  0.7129  0.9885
  888TIP3   OH226858   6.016   0.765  18.210 -0.2413  0.4279  0.8301
  888TIP3    H126859   6.111   0.772  18.196 -0.4892  1.7054 -0.5590
  888TIP3    H226860   5.996   0.673  18.191  0.4886  0.5495 -0.7850
  889TIP3   OH226861   1.221   5.107  17.085  0.1570 -0.3172  0.1600
  889TIP3    H126862   1.150   5.060  17.129 -0.3943 -0.3405 -0.7257
  889TIP3    H226863   1.229   5.189  17.133 -0.6888 -0.1826  0.0818
  890TIP3   OH226864   1.977   5.247  18.578  0.3207 -0.1242 -0.2560
  890TIP3    H126865   1.911   5.312  18.600 -1.3008 -1.2893 -1.3707
  890TIP3    H226866   2.019   5.225  18.661 -0.7436  0.6011  0.4959
  891TIP3   OH226867   5.470   1.987  18.210  0.0134  0.2464 -0.5133
  891TIP3    H126868   5.488   2.072  18.169 -0.1934 -0.1005 -1.3424
  891TIP3    H226869   5.380   1.995  18.243 -0.5725 -0.1557 -1.9505
  892TIP3   OH226870   5.233   3.319  17.624 -0.6254  0.2909 -0.2164
  892TIP3    H126871   5.249   3.244  17.567  1.5263 -0.4154  1.2015
  892TIP3    H226872   5.279   3.391  17.580 -0.1664  0.0759 -0.0958
  893TIP3   OH226873   2.562   2.235  17.900  0.2516 -0.1019 -0.4130
  893TIP3    H126874   2.559   2.147  17.862 -1.5793 -0.0300 -0.5029
  893TIP3    H226875   2.473   2.268  17.892  1.0588  2.1045 -1.1142
  894TIP3   OH226876   5.417   4.520  19.540 -0.4240  0.0070  0.3544
  894TIP3    H126877   5.359   4.589  19.573  0.5001  1.0946 -0.2580
  894TIP3    H226878   5.491   4.520  19.601 -0.8593 -1.1158  0.9080
  895TIP3   OH226879   5.687   6.758  17.737  0.7126 -0.0352 -0.4687
  895TIP3    H126880   5.664   6.705  17.813 -0.1682 -0.4871 -1.0369
  895TIP3    H226881   5.767   6.805  17.764 -0.0466  0.4645  1.0216
  896TIP3   OH226882   4.102   5.388  19.103 -0.3214 -0.1220  0.1174
  896TIP3    H126883   4.184   5.364  19.062  0.9358  2.1720  1.0820
  896TIP3    H226884   4.034   5.347  19.049  1.4026 -1.3670 -1.1863
  897TIP3   OH226885   4.431   7.214  17.963  0.3168 -0.1132  0.0311
  897TIP3    H126886   4.476   7.184  18.042  0.8818 -1.0342 -0.6280
  897TIP3    H226887   4.472   7.166  17.891  0.5037  1.4358 -0.9628
  898TIP3   OH226888   6.245   7.251  19.851  0.4408 -0.0702  0.0346
  898TIP3    H126889   6.296   7.268  19.930 -0.8915 -1.8752  1.3889
  898TIP3    H226890   6.299   7.189  19.801  0.0487 -1.2371  1.0028
  899TIP3   OH226891   6.299   2.576  17.797 -0.0539 -0.1946 -0.3390
  899TIP3    H126892   6.265   2.564  17.886 -0.9818  0.8648 -0.5227
  899TIP3    H226893   6.227   2.547  17.741  0.8989 -1.8318 -0.7761
  900TIP3   OH226894   5.795   5.799  17.733 -0.5148  0.3366 -0.2007
  900TIP3    H126895   5.879   5.838  17.758 -0.5644  1.0001 -1.0379
  900TIP3    H226896   5.739   5.816  17.809  0.3362 -0.9293  0.7583
  901TIP3   OH226897   2.973   5.288  18.733  0.0801  0.2698  0.0368
  901TIP3    H126898   2.946   5.215  18.789 -0.8677 -0.0476 -0.7959
  901TIP3    H226899   2.974   5.251  18.645 -0.4211  1.2500 -0.3992
  902TIP3   OH226900   7.503   4.573  19.199 -0.3141  1.0359  0.1124
  902TIP3    H126901   7.418   4.573  19.243  0.3035 -0.2130  1.3728
  902TIP3    H226902   7.567   4.592  19.268  0.7917 -2.1836  0.1534
  903TIP3   OH226903   7.608   5.005  19.224 -0.5268 -0.2652  0.2579
  903TIP3    H126904   7.622   5.082  19.280  0.9579 -1.0986  1.0797
  903TIP3    H226905   7.595   5.042  19.136 -1.7600  1.0060  0.9397
  904TIP3   OH226906   0.424   5.065  19.099  0.1495 -0.6524  0.0481
  904TIP3    H126907   0.395   5.077  19.008 -1.2712  0.1944  0.5744
  904TIP3    H226908   0.385   5.138  19.146  0.3922 -1.3955  1.4546
  905TIP3   OH226909   4.380   0.476  19.019  0.3352 -0.0657 -0.3248
  905TIP3    H126910   4.378   0.457  19.113  1.4261 -1.5003 -0.5571
  905TIP3    H226911   4.307   0.426  18.983 -0.7218  1.3001 -0.1297
  906TIP3   OH226912   5.676   1.846  18.370 -0.0174 -0.2396 -0.2165
  906TIP3    H126913   5.729   1.923  18.391 -1.0566  0.5709 -0.5030
  906TIP3    H226914   5.600   1.881  18.324 -2.2867 -1.0167  2.6178
  907TIP3   OH226915   7.057   5.061  18.298  0.7506  0.4765  0.3557
  907TIP3    H126916   7.128   5.067  18.235 -0.4695  0.7269 -1.0449
  907TIP3    H226917   6.982   5.030  18.247 -0.3824  1.0870  1.5907
  908TIP3   OH226918   2.316   5.759  17.186  0.0319  0.0961 -0.0301
  908TIP3    H126919   2.245   5.789  17.129  0.5239 -2.3057 -2.1168
  908TIP3    H226920   2.396   5.781  17.139  0.4846 -1.2296  0.0803
  909TIP3   OH226921   0.041   4.227  17.399 -0.2602 -0.5580  0.0332
  909TIP3    H126922   0.017   4.245  17.308  1.0671 -1.4047 -0.5224
  909TIP3    H226923  -0.040   4.196  17.439 -0.5971 -1.3491 -1.1976
  910TIP3   OH226924   2.169   6.127  17.399  0.0625 -0.1820  0.1927
  910TIP3    H126925   2.205   6.141  17.311  1.2723 -0.6617  0.5820
  910TIP3    H226926   2.139   6.036  17.397 -0.4703 -0.0083  0.1000
  911TIP3   OH226927   0.502   2.415  17.431 -0.1164  0.3321  0.6820
  911TIP3    H126928   0.465   2.373  17.353 -1.4676 -0.7913  1.8617
  911TIP3    H226929   0.577   2.360  17.454 -1.0751 -0.7330  1.4336
  912TIP3   OH226930   3.134   2.357  18.764 -0.4483  0.0273  0.2228
  912TIP3    H126931   3.051   2.389  18.728 -1.1449 -1.8069  0.0765
  912TIP3    H226932   3.108   2.299  18.836  0.8303  1.4366  1.8895
  913TIP3   OH226933   4.354   2.471  18.524 -0.1660  0.3068 -0.1647
  913TIP3    H126934   4.346   2.484  18.619  1.8280 -0.1189  0.1065
  913TIP3    H226935   4.397   2.551  18.494 -0.3491  0.2243 -0.6435
  914TIP3   OH226936   2.204   7.306  18.860  0.3925 -0.2289  0.4049
  914TIP3    H126937   2.119   7.349  18.865  0.0224 -1.0421  1.6241
  914TIP3    H226938   2.246   7.324  18.945  0.2570 -2.1125  0.9279
  915TIP3   OH226939   6.115   3.684  19.011  0.0780 -0.0006 -0.4304
  915TIP3    H126940   6.185   3.737  19.048 -0.3225  0.4839 -0.3688
  915TIP3    H226941   6.124   3.695  18.916 -0.1374  0.3500 -0.4112
  916TIP3   OH226942   6.437   6.348  19.539  0.3644 -0.1660  0.1943
  916TIP3    H126943   6.354   6.302  19.546  0.1876 -0.0349 -0.9281
  916TIP3    H226944   6.496   6.286  19.497  1.1567 -0.6364  1.9076
  917TIP3   OH226945   4.372   2.067  19.115 -0.2012 -0.0906  0.3733
  917TIP3    H126946   4.407   2.095  19.030  0.2837 -2.2844 -0.2192
  917TIP3    H226947   4.447   2.069  19.173 -0.8798  3.2287  1.3734
  918TIP3   OH226948   6.180   6.226  19.524  0.3765  0.0301 -0.6580
  918TIP3    H126949   6.094   6.260  19.500  0.0441  0.1949  0.6845
  918TIP3    H226950   6.168   6.132  19.533  0.3026  0.0630 -0.3875
  919TIP3   OH226951   7.159   6.639  19.039 -0.4032  0.4744  0.0207
  919TIP3    H126952   7.080   6.610  18.992  0.5960 -0.3393 -1.2036
  919TIP3    H226953   7.154   6.595  19.124 -1.6133  0.9914  0.2429
  920TIP3   OH226954   7.325   5.861  18.136 -0.6961  0.0129  0.1331
  920TIP3    H126955   7.264   5.888  18.067  0.3507 -1.3755 -1.4310
  920TIP3    H226956   7.280   5.792  18.183 -1.1286  0.4390  0.3497
  921TIP3   OH226957   1.602   6.414  18.053  0.3480 -0.3831  0.1161
  921TIP3    H126958   1.564   6.329  18.034 -0.4159  0.0083 -0.1614
  921TIP3    H226959   1.669   6.427  17.985 -1.2037  0.2773 -1.3501
  922TIP3   OH226960   6.642   0.354  17.080 -0.2184  0.3031  0.0248
  922TIP3    H126961   6.704   0.418  17.116 -1.6181  1.7239  0.0382
  922TIP3    H226962   6.639   0.373  16.986 -1.2802  0.8659  0.1562
  923TIP3   OH226963   0.227   1.634  19.274  0.0169  0.0467  0.3207
  923TIP3    H126964   0.289   1.561  19.272  0.7180  0.6012  1.2456
  923TIP3    H226965   0.263   1.697  19.212 -1.3157 -0.9173 -1.5426
  924TIP3   OH226966   7.426   4.780  17.008 -0.4707 -0.3195  0.2507
  924TIP3    H126967   7.363   4.739  16.949 -2.0367  0.1925  1.5107
  924TIP3    H226968   7.503   4.723  17.004 -0.8636 -0.7869 -1.5541
  925TIP3   OH226969   3.244   5.453  19.162 -0.6773 -0.7044  0.3349
  925TIP3    H126970   3.189   5.375  19.170 -0.9087 -0.4677  1.1723
  925TIP3    H226971   3.328   5.426  19.199 -0.1918 -1.0830 -0.9937
  926TIP3   OH226972   7.228   6.077  18.724 -0.3261  0.0216 -0.0164
  926TIP3    H126973   7.179   6.016  18.669  0.6007  0.4393 -1.3496
  926TIP3    H226974   7.196   6.164  18.698 -0.7900  0.1794  1.0298
  927TIP3   OH226975   1.609   2.148  19.084  0.1053  0.6899  0.4393
  927TIP3    H126976   1.633   2.074  19.029 -0.8216  0.6083  0.1216
  927TIP3    H226977   1.675   2.214  19.066 -0.0802  0.5944 -0.6497
  928TIP3   OH226978   6.246   3.497  16.941 -0.7975 -0.3337 -0.1314
  928TIP3    H126979   6.308   3.432  16.975 -0.3649  0.2068  0.1407
  928TIP3    H226980   6.160   3.464  16.964 -0.5625 -0.6414  0.3023
  929TIP3   OH226981   6.693   5.582  18.765 -0.1748 -0.0866 -0.4334
  929TIP3    H126982   6.728   5.503  18.806 -0.4838 -0.1641 -0.3196
  929TIP3    H226983   6.687   5.561  18.672  1.3064  0.3679 -0.6573
  930TIP3   OH226984   2.635   1.851  18.091 -0.5911 -0.2829  0.7790
  930TIP3    H126985   2.630   1.920  18.157  0.1234  0.1002  0.4437
  930TIP3    H226986   2.721   1.863  18.050 -1.0287 -0.5067 -0.2278
  931TIP3   OH226987   1.373   2.467  19.225  0.1782  0.2887  0.3270
  931TIP3    H126988   1.454   2.477  19.175  0.3149  1.4022  0.7298
  931TIP3    H226989   1.389   2.393  19.283  1.2994  1.1057  1.0968
  932TIP3   OH226990   5.444   2.950  17.116  0.0595 -0.3482 -0.5484
  932TIP3    H126991   5.396   2.912  17.190  0.3986  0.0111 -0.1361
  932TIP3    H226992   5.397   2.918  17.039 -1.8239  1.2242 -0.1524
  933TIP3   OH226993   1.371   5.032  19.452  0.2521  0.1226  0.3853
  933TIP3    H126994   1.301   5.010  19.390  0.9850 -2.2680  0.2875
  933TIP3    H226995   1.437   5.077  19.399  0.3260 -0.7908 -0.3195
  934TIP3   OH226996   7.276   2.934  18.243  0.4937 -0.8716  0.8517
  934TIP3    H126997   7.331   2.972  18.176 -0.0498 -1.7169 -0.0984
  934TIP3    H226998   7.186   2.951  18.214  0.2246 -0.0787  2.0466
  935TIP3   OH226999   5.969   7.370  19.256 -0.0588 -0.2310 -0.5099
  935TIP3    H127000   5.979   7.383  19.350 -0.7070 -0.5843 -0.3911
  935TIP3    H227001   5.901   7.433  19.230  0.7489  0.5103 -0.9120
  936TIP3   OH227002   5.017   4.452  19.126  0.0898  0.3186  0.2380
  936TIP3    H127003   4.931   4.465  19.166 -0.6457  0.5603 -1.3461
  936TIP3    H227004   5.079   4.469  19.198 -1.1354  1.5705  1.0707
  937TIP3   OH227005   6.078   7.112  18.870 -0.2787  0.0671  0.4235
  937TIP3    H127006   5.984   7.095  18.869 -0.4507  0.7762  1.6388
  937TIP3    H227007   6.096   7.141  18.960  0.9243  0.8606 -0.0422
  938TIP3   OH227008   6.204   5.469  17.832 -0.2789  0.5581  0.3980
  938TIP3    H127009   6.247   5.394  17.872 -0.0876 -0.6077 -1.8301
  938TIP3    H227010   6.261   5.543  17.851  0.0318 -0.0127  1.8032
  939TIP3   OH227011   1.039   3.900  17.853 -0.1282 -0.1334  0.5056
  939TIP3    H127012   1.080   3.986  17.861  0.6625 -0.5594  1.2578
  939TIP3    H227013   1.031   3.885  17.758  1.0284  0.1700  0.3486
  940TIP3   OH227014   0.636   6.475  17.460  0.0722 -0.1069  0.2963
  940TIP3    H127015   0.556   6.449  17.505 -0.0248  0.3283  0.3802
  940TIP3    H227016   0.606   6.533  17.390  0.3232  0.1234  0.3809
  941TIP3   OH227017   6.413   4.494  17.600  0.1172 -0.0723 -0.1942
  941TIP3    H127018   6.339   4.456  17.552  0.5177 -0.8315 -0.2350
  941TIP3    H227019   6.373   4.551  17.665 -0.5293 -0.7977  0.0605
  942TIP3   OH227020   5.364   5.358  18.809 -0.2146 -0.1514 -0.5131
  942TIP3    H127021   5.394   5.434  18.759 -1.3911 -0.8685 -2.4414
  942TIP3    H227022   5.320   5.303  18.744 -2.5713 -0.7768  1.4730
  943TIP3   OH227023   0.174   0.815  17.049  0.2192 -0.5743 -0.2118
  943TIP3    H127024   0.201   0.803  16.958 -1.0525 -1.3316 -0.5136
  943TIP3    H227025   0.078   0.815  17.046  0.1563 -0.2950  1.0911
  944TIP3   OH227026   3.842   0.279  19.151 -0.3129  0.9065 -0.0784
  944TIP3    H127027   3.812   0.257  19.239 -1.3675  3.1093  0.1730
  944TIP3    H227028   3.781   0.232  19.093  0.4931 -0.6924  0.3046
  945TIP3   OH227029   1.466   7.460  18.271  0.7314 -0.4085  0.1283
  945TIP3    H127030   1.430   7.382  18.229 -3.0262  1.0616  0.2875
  945TIP3    H227031   1.476   7.435  18.363  1.0941 -1.1559 -0.1082
  946TIP3   OH227032   3.739   6.519  17.707  0.0114  0.3792  0.8183
  946TIP3    H127033   3.724   6.592  17.646 -0.5934 -0.6760 -0.3513
  946TIP3    H227034   3.830   6.494  17.693  0.0062  0.4367  0.6802
  947TIP3   OH227035   4.320   4.266  18.554 -0.0630  0.1615 -1.1436
  947TIP3    H127036   4.242   4.281  18.501  0.3277  1.3212 -1.4226
  947TIP3    H227037   4.391   4.258  18.489  0.5493  2.3990 -0.8172
  948TIP3   OH227038   5.000   4.392  18.822 -0.3979  0.5818 -0.2179
  948TIP3    H127039   4.963   4.304  18.824 -0.4879  0.6320  0.8906
  948TIP3    H227040   4.974   4.431  18.905  1.1373  1.0281  0.0790
  949TIP3   OH227041   3.679   5.173  19.256 -0.4694  0.2970  0.6655
  949TIP3    H127042   3.729   5.222  19.191 -0.3368 -0.1891  0.4011
  949TIP3    H227043   3.652   5.093  19.211 -0.9756  0.2773  0.9896
  950TIP3   OH227044   5.475   4.269  18.837  0.0502 -0.3282 -0.3038
  950TIP3    H127045   5.516   4.352  18.860  0.3539 -0.0454 -1.7419
  950TIP3    H227046   5.542   4.203  18.856  1.1897  0.1101 -2.4583
  951TIP3   OH227047   2.660   3.990  18.842 -0.6849 -0.2122  0.3171
  951TIP3    H127048   2.696   4.061  18.790 -0.2054  0.2881  1.3024
  951TIP3    H227049   2.574   4.023  18.871 -1.2938 -0.7923 -0.7561
  952TIP3   OH227050   1.131   6.276  17.299  0.1246 -0.1513  0.4249
  952TIP3    H127051   1.048   6.271  17.347 -0.0765  0.7762  0.2081
  952TIP3    H227052   1.130   6.364  17.260  1.0555 -0.2621  0.1328
  953TIP3   OH227053   5.191   7.085  17.856 -0.2669  0.0240  0.2522
  953TIP3    H127054   5.227   7.042  17.933  0.4985 -1.0245 -0.6465
  953TIP3    H227055   5.234   7.171  17.854 -0.3104  0.0701  0.9899
  954TIP3   OH227056   6.112   4.583  19.604 -0.1600  0.3965  0.0476
  954TIP3    H127057   6.049   4.587  19.532  1.0370  1.0193 -1.0173
  954TIP3    H227058   6.191   4.547  19.565  1.5366  3.5596  0.1875
  955TIP3   OH227059   6.081   3.480  18.678  0.1268  0.1284  0.1155
  955TIP3    H127060   6.004   3.486  18.622 -0.1405  0.8661  0.5466
  955TIP3    H227061   6.068   3.400  18.730  1.2714 -1.6435 -2.1404
  956TIP3   OH227062   1.908   4.836  18.144 -0.3717  0.1913  0.6614
  956TIP3    H127063   1.969   4.905  18.171 -2.2408  1.9434  0.6208
  956TIP3    H227064   1.897   4.782  18.222  0.4513  0.4175  0.9485
  957TIP3   OH227065   7.660   3.293  18.942  0.4044  0.0581 -0.2091
  957TIP3    H127066   7.622   3.257  18.861  1.1701 -0.1467 -0.4874
  957TIP3    H227067   7.600   3.264  19.011  0.4463 -0.8964 -0.5499
  958TIP3   OH227068   4.234   0.693  18.904 -0.2264 -0.3622 -0.0042
  958TIP3    H127069   4.312   0.746  18.887  0.1308 -1.4776 -2.2065
  958TIP3    H227070   4.254   0.645  18.984  0.1527  1.4294  1.0373
  959TIP3   OH227071   7.637   5.970  16.916  0.1809  0.4791 -0.6981
  959TIP3    H127072   7.697   5.919  16.971 -1.8828  0.4741  1.7110
  959TIP3    H227073   7.562   5.911  16.901 -0.8819  1.7302 -0.4660
  960TIP3   OH227074   5.410   1.786  18.615  0.1692 -0.1575  0.1582
  960TIP3    H127075   5.328   1.770  18.662  0.1998 -0.1159  0.2258
  960TIP3    H227076   5.390   1.766  18.524  0.2804 -0.8752  0.2788
  961TIP3   OH227077   1.525   3.746  18.218 -0.0852  0.3195  0.5649
  961TIP3    H127078   1.557   3.711  18.135  0.7541  0.3281  0.8774
  961TIP3    H227079   1.530   3.841  18.208 -2.9240  0.4453 -0.5006
  962TIP3   OH227080   4.952   4.186  18.382  0.0659  0.2825 -0.0515
  962TIP3    H127081   4.873   4.198  18.329 -1.0772  1.2382  1.7748
  962TIP3    H227082   5.024   4.216  18.326 -1.1252  1.5968 -0.9236
  963TIP3   OH227083   3.232   0.271  17.121  0.8438 -0.6436 -0.4264
  963TIP3    H127084   3.248   0.334  17.051 -1.2662 -0.1233 -0.5028
  963TIP3    H227085   3.294   0.200  17.104  2.4383  0.8064 -1.0504
  964TIP3   OH227086   3.920   4.033  17.897 -0.1339  0.2319  0.1626
  964TIP3    H127087   3.884   3.966  17.956 -0.5549  0.9612  0.7546
  964TIP3    H227088   3.843   4.080  17.864  0.1031 -0.1158 -0.9251
  965TIP3   OH227089   6.267   3.754  19.473  0.2241 -0.8734 -0.5025
  965TIP3    H127090   6.192   3.698  19.493 -1.9080  1.1231 -2.4161
  965TIP3    H227091   6.254   3.831  19.528  2.0632 -1.2933  0.6252
  966TIP3   OH227092   4.247   5.106  17.272  0.2335 -0.3555 -0.6170
  966TIP3    H127093   4.175   5.045  17.289 -1.2426  0.5860 -3.0484
  966TIP3    H227094   4.322   5.067  17.317 -1.5050 -1.9404  1.1172
  967TIP3   OH227095   3.204   4.699  18.554  0.1580 -0.1301  0.3043
  967TIP3    H127096   3.215   4.753  18.475 -1.1951  0.0988  0.2627
  967TIP3    H227097   3.277   4.637  18.550 -0.7676 -1.1773 -2.0016
  968TIP3   OH227098   2.861   0.494  19.238 -0.2009  0.6288  0.1919
  968TIP3    H127099   2.910   0.422  19.279 -2.2128 -1.7607 -1.2994
  968TIP3    H227100   2.772   0.484  19.270 -1.5390 -0.4362 -3.3848
  969TIP3   OH227101   1.068   2.728  17.040  0.0209 -0.1123  0.5689
  969TIP3    H127102   1.032   2.745  16.953 -2.4345  0.9494  1.7113
  969TIP3    H227103   1.085   2.815  17.076  0.0413 -0.5036  1.5251
  970TIP3   OH227104   3.815   7.241  17.957  0.7404  0.2587  0.5836
  970TIP3    H127105   3.830   7.153  17.921  0.4944 -0.9649  3.1927
  970TIP3    H227106   3.828   7.300  17.884 -0.8308 -2.0559 -1.7459
  971TIP3   OH227107   3.828   6.020  17.819  0.3991 -0.7113 -0.0139
  971TIP3    H127108   3.733   6.018  17.833  0.3525  1.9735  0.6990
  971TIP3    H227109   3.840   6.079  17.744  1.5363  1.1659  1.5361
  972TIP3   OH227110   6.713   3.193  18.323 -0.5313  0.8494 -0.1008
  972TIP3    H127111   6.734   3.101  18.309  1.8901  1.3316 -0.0620
  972TIP3    H227112   6.696   3.227  18.235 -0.4130  0.5902 -0.2262
  973TIP3   OH227113   4.977   7.228  18.418 -0.0206 -0.1216 -0.0609
  973TIP3    H127114   5.023   7.156  18.460 -0.7924 -0.8212 -0.3874
  973TIP3    H227115   5.045   7.276  18.370  0.4439 -0.8434 -0.1366
  974TIP3   OH227116   7.222   0.356  17.256  0.4883  0.5903  0.2318
  974TIP3    H127117   7.218   0.368  17.161  0.8606  2.5672  0.4176
  974TIP3    H227118   7.252   0.266  17.268 -1.3950 -0.3545 -1.4898
  975TIP3   OH227119   2.827   2.331  18.396 -0.6850  0.1423  0.3481
  975TIP3    H127120   2.903   2.274  18.391  0.2258  1.3868 -0.6843
  975TIP3    H227121   2.782   2.319  18.312 -1.6018 -0.5344  0.9233
  976TIP3   OH227122   0.750   1.891  18.326 -0.4099 -0.2029 -0.0937
  976TIP3    H127123   0.832   1.909  18.279  0.0877 -0.7949  0.5133
  976TIP3    H227124   0.684   1.942  18.281 -0.0102 -1.0152 -1.6552
  977TIP3   OH227125   0.414   5.794  17.474  0.3895 -0.2542 -0.1150
  977TIP3    H127126   0.367   5.823  17.552 -0.4080  0.9012 -0.9912
  977TIP3    H227127   0.500   5.767  17.506 -0.0883 -0.2597  1.2140
  978TIP3   OH227128   1.095   0.028  19.135  0.2952 -0.9641  0.2546
  978TIP3    H127129   1.052   0.108  19.104  0.2323 -1.8438 -2.0727
  978TIP3    H227130   1.023  -0.033  19.152  0.3263 -0.5225  2.2749
  979TIP3   OH227131   1.757   3.747  18.832  0.1627 -0.1509  0.0737
  979TIP3    H127132   1.710   3.738  18.915  0.6864 -0.6291  0.3212
  979TIP3    H227133   1.724   3.676  18.777  1.6567 -1.4381  0.7682
  980TIP3   OH227134   4.235   2.031  17.326 -0.1128  0.0888  0.1632
  980TIP3    H127135   4.246   1.977  17.248  1.0696  1.8615 -0.9714
  980TIP3    H227136   4.161   2.089  17.305  0.8930  1.3175 -0.1569
  981TIP3   OH227137   4.709   5.244  16.801  0.2362  0.4722  0.3085
  981TIP3    H127138   4.664   5.160  16.787  0.2735  0.2518  1.4605
  981TIP3    H227139   4.800   5.226  16.779  0.6100 -0.3202  2.3061
  982TIP3   OH227140   3.019   6.557  18.208 -0.3596 -0.1071 -1.0963
  982TIP3    H127141   3.070   6.477  18.203  0.6446  0.4944 -0.7502
  982TIP3    H227142   3.059   6.607  18.278 -0.7751  0.8348 -1.5101
  983TIP3   OH227143   1.351   7.622  18.746 -0.3121  0.3617 -0.0454
  983TIP3    H127144   1.361   7.565  18.822 -0.7436 -0.0525 -0.2943
  983TIP3    H227145   1.340   7.709  18.783 -0.6694  0.1418  0.3783
  984TIP3   OH227146   5.321   7.235  19.090 -0.2048  0.2578 -0.3780
  984TIP3    H127147   5.293   7.293  19.162 -0.5920  1.5421 -1.5187
  984TIP3    H227148   5.360   7.160  19.134  0.5120  1.4732  1.1798
  985TIP3   OH227149   0.331   1.072  17.083  0.3349  0.0521  0.2559
  985TIP3    H127150   0.269   0.999  17.075 -0.5113  0.9121 -1.4622
  985TIP3    H227151   0.404   1.047  17.027  0.3195  0.2588  0.1448
  986TIP3   OH227152   7.659   2.854  18.426  0.2529 -0.4089 -0.1673
  986TIP3    H127153   7.728   2.789  18.422  0.8613  0.1638  0.7143
  986TIP3    H227154   7.676   2.902  18.507 -0.8513  0.1012 -0.2210
  987TIP3   OH227155   1.776   3.966  16.951  0.9774 -0.1204 -0.2226
  987TIP3    H127156   1.841   3.967  17.021  1.9452  0.7314 -1.0932
  987TIP3    H227157   1.817   4.014  16.879 -1.6289  2.9580  0.0925
  988TIP3   OH227158   6.454   2.148  17.569 -0.2750  0.2061 -0.0552
  988TIP3    H127159   6.485   2.065  17.605 -1.0344  0.2339  0.6883
  988TIP3    H227160   6.364   2.132  17.544 -1.0622  1.2738  1.8486
  989TIP3   OH227161   0.444   4.236  19.450 -0.8454 -0.2051  0.0760
  989TIP3    H127162   0.405   4.160  19.494  0.5792 -0.4440  0.9983
  989TIP3    H227163   0.391   4.310  19.479 -1.0739 -0.6090  0.7112
  990TIP3   OH227164   7.557   5.283  18.459  0.4123  0.2258  0.2734
  990TIP3    H127165   7.622   5.267  18.528  1.1446  0.8678 -0.2538
  990TIP3    H227166   7.606   5.276  18.378 -0.5030 -0.7928 -0.2213
  991TIP3   OH227167   1.672   0.001  17.037 -0.2075 -0.2991 -0.3270
  991TIP3    H127168   1.726  -0.058  17.089  0.7788 -0.9259 -1.9890
  991TIP3    H227169   1.588   0.002  17.082 -0.1143 -2.6233  0.0366
  992TIP3   OH227170   4.291   0.834  18.344  0.1172  0.8117  0.0952
  992TIP3    H127171   4.347   0.907  18.318  1.4181  0.1538  0.9480
  992TIP3    H227172   4.289   0.777  18.266  0.3496  1.0132 -0.0589
  993TIP3   OH227173   7.115   0.587  19.077  0.2034  0.0617 -0.6660
  993TIP3    H127174   7.151   0.605  18.991 -0.9460  0.7088 -1.0381
  993TIP3    H227175   7.075   0.501  19.068  0.6382 -0.1494 -0.5906
  994TIP3   OH227176   4.966   3.311  19.496 -0.0103  0.0014 -0.3937
  994TIP3    H127177   4.873   3.329  19.512  0.4239  1.4107  0.7968
  994TIP3    H227178   4.979   3.330  19.404 -0.3338  2.7010  0.0337
  995TIP3   OH227179   2.796   2.402  16.678 -0.5516  0.4468 -0.0732
  995TIP3    H127180   2.805   2.319  16.631 -0.2714  2.2936 -3.5348
  995TIP3    H227181   2.707   2.432  16.658 -0.0970  1.7345 -0.2341
  996TIP3   OH227182   6.444   5.057  17.166 -0.1268 -0.2143 -0.1181
  996TIP3    H127183   6.533   5.022  17.176 -0.0184 -0.7754 -2.5758
  996TIP3    H227184   6.389   4.980  17.153 -0.4562  0.2816 -1.8771
  997TIP3   OH227185   7.612   5.862  17.628 -0.2522  0.1714  0.1728
  997TIP3    H127186   7.691   5.886  17.580  0.5202  0.4952  1.5537
  997TIP3    H227187   7.589   5.940  17.677 -0.3062 -0.4986  1.2533
  998TIP3   OH227188   5.847   7.576  16.718 -0.0119  0.2676 -0.4060
  998TIP3    H127189   5.877   7.666  16.702 -1.6716  1.0836  0.7473
  998TIP3    H227190   5.926   7.523  16.711  1.3908  2.0703  0.7560
  999TIP3   OH227191   2.578   4.112  17.836  0.0513 -0.0785  0.2617
  999TIP3    H127192   2.489   4.147  17.842  0.3235  0.5917  0.3810
  999TIP3    H227193   2.592   4.100  17.742 -0.2017 -0.2839  0.2487
 1000TIP3   OH227194   6.376   3.270  19.412 -0.1570 -0.1202  0.1325
 1000TIP3    H127195   6.441   3.335  19.386  0.8108 -1.2529 -0.3627
 1000TIP3    H227196   6.325   3.254  19.333 -0.8731  0.5502  0.4444
 1001TIP3   OH227197   4.663   5.866  18.674 -0.1832  0.1141 -0.4833
 1001TIP3    H127198   4.574   5.886  18.701 -0.6388 -0.4771 -1.4607
 1001TIP3    H227199   4.654   5.787  18.620  0.8128  0.5476 -1.3167
 1002TIP3   OH227200   0.689   4.314  19.293 -0.4162  0.3066 -0.1597
 1002TIP3    H127201   0.612   4.290  19.344  0.3254 -0.1256  0.7922
 1002TIP3    H227202   0.730   4.384  19.343  1.8684 -1.9769  1.4589
 1003TIP3   OH227203   4.771   4.949  16.741  0.4351 -0.0772 -0.6822
 1003TIP3    H127204   4.675   4.953  16.750  0.4888 -0.1008 -0.0739
 1003TIP3    H227205   4.797   4.877  16.798  0.8565  0.1996 -0.5285
 1004TIP3   OH227206   2.689   0.990  17.866  0.2060 -0.0186  0.9195
 1004TIP3    H127207   2.647   0.950  17.942 -2.1566  1.0850  0.2785
 1004TIP3    H227208   2.645   1.074  17.854 -1.6432 -1.3073 -3.2982
 1005TIP3   OH227209   3.744   6.029  18.452 -0.1308  0.1467 -0.1025
 1005TIP3    H127210   3.757   5.973  18.376 -0.2141  0.0763 -0.0662
 1005TIP3    H227211   3.822   6.014  18.506 -0.4741 -0.4742  0.2436
 1006TIP3   OH227212   1.879   5.448  16.767  0.6181 -0.4032 -0.5924
 1006TIP3    H127213   1.915   5.479  16.850  1.5739  2.1328 -1.8356
 1006TIP3    H227214   1.841   5.363  16.787  0.3633  0.3418  2.5343
 1007TIP3   OH227215   3.490   7.392  17.974 -0.4366 -0.1604 -0.4737
 1007TIP3    H127216   3.413   7.336  17.964 -0.1904 -0.3579 -1.3217
 1007TIP3    H227217   3.459   7.480  17.953 -0.5281 -0.1769 -0.4048
 1008TIP3   OH227218   7.068   1.669  18.709 -0.0829  0.0047 -0.0523
 1008TIP3    H127219   7.147   1.658  18.762 -0.4156 -0.9286  0.2698
 1008TIP3    H227220   7.005   1.710  18.767 -0.2229 -0.3770  0.0694
 1009TIP3   OH227221   2.012   0.408  18.632  0.3621 -0.1140 -0.3961
 1009TIP3    H127222   1.957   0.346  18.679  0.1196 -0.6124 -1.3256
 1009TIP3    H227223   1.975   0.412  18.544  1.0876  0.4563 -0.6859
 1010TIP3   OH227224   5.787   2.066  17.727  0.0515 -0.3659  0.8507
 1010TIP3    H127225   5.700   2.028  17.738 -0.8433  0.6442 -1.8758
 1010TIP3    H227226   5.774   2.160  17.738  0.7683 -0.1870  0.2977
 1011TIP3   OH227227   4.986   1.147  17.895  0.4480 -0.2032 -0.3130
 1011TIP3    H127228   4.895   1.122  17.881  0.2384  0.0258  0.6071
 1011TIP3    H227229   5.020   1.082  17.957  1.3703 -1.2094 -1.8031
 1012TIP3   OH227230   1.606   5.193  18.453  0.0481 -0.2852 -0.1792
 1012TIP3    H127231   1.612   5.110  18.500  0.8959  0.6778  1.5135
 1012TIP3    H227232   1.538   5.242  18.499  0.7246  0.5962 -0.0899
 1013TIP3   OH227233   5.412   4.505  19.265  0.0230  0.4000  0.4537
 1013TIP3    H127234   5.316   4.507  19.257  0.0633 -0.9645 -0.6982
 1013TIP3    H227235   5.427   4.507  19.359 -1.1219  0.9796  0.6517
 1014TIP3   OH227236   2.648   1.541  19.084 -0.0585  0.0441 -0.1249
 1014TIP3    H127237   2.576   1.485  19.113 -0.2234  0.0991 -0.4205
 1014TIP3    H227238   2.723   1.482  19.077 -0.1603 -0.0837 -0.1496
 1015TIP3   OH227239   3.248   0.851  17.947 -0.9198 -0.6223  0.3018
 1015TIP3    H127240   3.209   0.927  17.989 -2.8534 -0.2585 -1.9840
 1015TIP3    H227241   3.189   0.830  17.875  0.9301 -2.7122 -0.7221
 1016TIP3   OH227242   0.255   5.848  16.906  0.0245 -0.1560  0.1111
 1016TIP3    H127243   0.178   5.792  16.900 -1.0277  1.1842  0.5209
 1016TIP3    H227244   0.319   5.797  16.956 -0.2721 -1.6136 -0.9546
 1017TIP3   OH227245   3.511   7.545  16.926  0.0159  0.5681 -0.3530
 1017TIP3    H127246   3.443   7.495  16.880 -0.2063  1.6023 -1.1855
 1017TIP3    H227247   3.593   7.513  16.890 -0.0736  0.1623 -0.2094
 1018TIP3   OH227248   1.844   3.961  17.754 -0.8414 -0.0326 -0.2218
 1018TIP3    H127249   1.890   4.042  17.731  0.1922  0.0008  1.7853
 1018TIP3    H227250   1.767   3.990  17.804 -1.2265 -0.2418 -0.6821
 1019TIP3   OH227251   4.090   1.982  16.918 -0.7530  0.0401  0.0645
 1019TIP3    H127252   4.016   2.011  16.972 -1.8645 -1.1012 -0.8001
 1019TIP3    H227253   4.142   1.927  16.977 -1.5673 -0.6064  0.2112
 1020TIP3   OH227254   2.287   2.681  19.642  0.1698 -0.2969  0.1021
 1020TIP3    H127255   2.310   2.615  19.706 -1.9953 -0.8160  0.4081
 1020TIP3    H227256   2.192   2.678  19.637 -0.0750  3.0755  0.4320
 1021TIP3   OH227257   2.677   4.415  18.852  0.5527 -0.0065 -0.1553
 1021TIP3    H127258   2.706   4.492  18.804  1.7411  0.1983  0.8105
 1021TIP3    H227259   2.583   4.409  18.835  0.8051  0.4634 -1.8756
 1022TIP3   OH227260   5.304   0.371  17.095 -0.0748 -0.0374 -0.0481
 1022TIP3    H127261   5.325   0.435  17.026  2.7350 -1.3454 -0.5656
 1022TIP3    H227262   5.215   0.392  17.121 -0.4965  1.8634 -2.6166
 1023TIP3   OH227263   5.802   7.569  18.852 -0.5342  0.3399  0.2107
 1023TIP3    H127264   5.790   7.476  18.831 -0.7187 -0.0681  1.9561
 1023TIP3    H227265   5.717   7.609  18.830  0.8399  1.1481 -5.0195
 1024TIP3   OH227266   1.036   2.983  18.415 -0.0318 -0.2356  0.5555
 1024TIP3    H127267   0.944   2.968  18.391 -0.0193  1.6377 -0.9332
 1024TIP3    H227268   1.066   2.899  18.448 -1.7239 -1.4600 -0.8188
 1025TIP3   OH227269   6.857   4.810  17.709  0.5203 -0.2713  0.1067
 1025TIP3    H127270   6.770   4.837  17.679 -0.2378 -1.6038  1.0047
 1025TIP3    H227271   6.890   4.752  17.640 -0.1031 -1.2279  0.5914
 1026TIP3   OH227272   3.918   4.141  19.085 -0.2765  0.2802  0.0672
 1026TIP3    H127273   3.858   4.174  19.018 -0.8074 -0.2434  0.2794
 1026TIP3    H227274   3.910   4.046  19.081 -0.7254  0.2513  1.2380
 1027TIP3   OH227275   5.477   7.028  17.871  0.0300 -0.0130 -0.5141
 1027TIP3    H127276   5.495   7.059  17.782  2.0629  0.7480  0.1011
 1027TIP3    H227277   5.519   7.093  17.928 -1.8151 -0.1068  1.0501
 1028TIP3   OH227278   1.468   1.046  18.477  0.0653 -0.1168 -0.0677
 1028TIP3    H127279   1.518   1.127  18.467  1.7976 -0.9480  1.1466
 1028TIP3    H227280   1.535   0.978  18.486 -1.3244 -1.7606 -1.3633
 1029TIP3   OH227281   2.622   2.602  19.076 -0.0569 -0.2233  0.2295
 1029TIP3    H127282   2.665   2.571  19.156 -0.2959 -1.7908 -0.2014
 1029TIP3    H227283   2.663   2.551  19.006 -0.0344  0.9421 -0.6247
 1030TIP3   OH227284   0.011   0.823  18.731  0.2872 -0.1802  0.1260
 1030TIP3    H127285   0.060   0.894  18.690  1.3066 -1.0552 -0.2322
 1030TIP3    H227286  -0.068   0.815  18.678  0.0335  0.8467  0.3312
 1031TIP3   OH227287   1.488   1.779  18.074 -0.3532  0.1564  0.4684
 1031TIP3    H127288   1.510   1.704  18.129 -1.5688 -0.7340 -0.2003
 1031TIP3    H227289   1.531   1.853  18.116  0.4244 -0.8148  1.4601
 1032TIP3   OH227290   0.796   2.893  18.273 -0.1643 -0.0797 -0.1109
 1032TIP3    H127291   0.815   2.975  18.226 -1.6214  0.0229 -0.5685
 1032TIP3    H227292   0.718   2.913  18.324  1.4084 -0.1675  2.4739
 1033TIP3   OH227293   0.401   7.577  17.963 -0.4386  0.2355  0.1551
 1033TIP3    H127294   0.382   7.666  17.993 -0.6580  0.0889  0.4519
 1033TIP3    H227295   0.426   7.588  17.871 -1.1980  0.5216 -0.0233
 1034TIP3   OH227296   4.500   0.088  17.343 -0.2696 -0.2766  0.1829
 1034TIP3    H127297   4.452   0.126  17.270  2.4790 -0.4426 -1.8532
 1034TIP3    H227298   4.466  -0.002  17.349 -0.8640 -0.1154 -0.5483
 1035TIP3   OH227299   4.138   6.063  17.643  0.1949 -0.5027  0.4928
 1035TIP3    H127300   4.175   6.067  17.731 -0.4244  3.7277  0.7537
 1035TIP3    H227301   4.208   6.095  17.586 -0.4030 -0.2188 -0.0939
 1036TIP3   OH227302   3.537   7.049  17.935  0.0957  0.9585  0.4238
 1036TIP3    H127303   3.589   6.969  17.932  1.2453  1.7020 -1.3396
 1036TIP3    H227304   3.453   7.024  17.897 -0.1458  0.2376  1.3797
 1037TIP3   OH227305   1.120   1.969  17.846  0.3113 -0.1306  0.4756
 1037TIP3    H127306   1.166   1.890  17.875 -1.8974 -1.6295  0.1009
 1037TIP3    H227307   1.147   2.036  17.909  1.9687 -1.2338  1.0177
 1038TIP3   OH227308   3.924   6.715  17.866  0.2699 -0.3774 -0.0781
 1038TIP3    H127309   3.962   6.743  17.783  1.3482 -0.9823  0.1940
 1038TIP3    H227310   3.988   6.743  17.932 -1.0305  0.9745  0.6715
 1039TIP3   OH227311   2.684   5.057  18.989  0.2313  0.2532  0.2484
 1039TIP3    H127312   2.626   5.014  18.926  1.5943  0.2855 -1.0958
 1039TIP3    H227313   2.739   4.986  19.022 -0.9594  0.1083  2.0037
 1040TIP3   OH227314   5.992   0.265  19.086  0.2123  0.0101 -0.0159
 1040TIP3    H127315   6.011   0.358  19.094  3.1474 -0.2334 -2.3838
 1040TIP3    H227316   5.924   0.259  19.019 -1.1237  0.4576  1.2535
 1041TIP3   OH227317   2.971   3.062  19.224 -0.3215 -0.4873 -0.0773
 1041TIP3    H127318   2.908   3.111  19.171  0.6175 -0.2059 -0.9851
 1041TIP3    H227319   2.947   2.971  19.210  0.3488 -0.4627 -1.6285
 1042TIP3   OH227320   4.319   5.162  19.179  0.0231  0.4278 -0.0266
 1042TIP3    H127321   4.259   5.151  19.253  1.0089 -0.2336  0.7095
 1042TIP3    H227322   4.344   5.072  19.155  2.9535  0.6505  1.6359
 1043TIP3   OH227323   1.736   5.213  16.584  0.2036 -0.0640  0.3474
 1043TIP3    H127324   1.800   5.162  16.534 -0.6616  0.1135 -0.9839
 1043TIP3    H227325   1.742   5.301  16.547 -1.5854 -0.2964 -0.5899
 1044TIP3   OH227326   2.226   5.101  17.765 -0.3727  0.2671 -0.0805
 1044TIP3    H127327   2.292   5.031  17.758 -0.7513 -0.3505  1.8709
 1044TIP3    H227328   2.273   5.180  17.740  0.2369 -0.5665 -1.7597
 1045TIP3   OH227329   1.399   0.197  18.395  0.2897 -0.2431  1.0058
 1045TIP3    H127330   1.304   0.194  18.408 -0.0787  0.7052 -1.0339
 1045TIP3    H227331   1.435   0.155  18.473 -1.8393 -1.6853  1.3014
 1046TIP3   OH227332   6.084   3.738  16.824  0.3131 -0.1296  0.6957
 1046TIP3    H127333   6.131   3.805  16.775  0.5629 -0.6321  0.2388
 1046TIP3    H227334   6.151   3.673  16.846 -0.0686 -0.5972  0.4859
 1047TIP3   OH227335   6.899   5.914  18.810  0.3114 -0.1884 -0.0640
 1047TIP3    H127336   6.917   5.932  18.718 -1.7999 -1.6918 -0.8497
 1047TIP3    H227337   6.979   5.873  18.842  0.7374 -0.5708 -1.5275
 1048TIP3   OH227338   6.609   0.438  18.714  0.2057  0.0268 -0.4400
 1048TIP3    H127339   6.695   0.423  18.752 -0.3044 -0.7193  0.4694
 1048TIP3    H227340   6.586   0.353  18.674 -0.6954 -0.2150  0.5629
 1049TIP3   OH227341   2.531   1.355  19.348  0.2291  0.3038  0.8379
 1049TIP3    H127342   2.606   1.338  19.405  1.8277  0.3342 -1.1528
 1049TIP3    H227343   2.486   1.270  19.343  0.0131  0.3181  2.1491
 1050TIP3   OH227344   5.451   0.174  17.221 -0.1236  0.3465  0.3606
 1050TIP3    H127345   5.536   0.197  17.184  0.3420 -1.5240  0.1940
 1050TIP3    H227346   5.394   0.248  17.198  0.9465  0.7194 -1.2560
 1051TIP3   OH227347   2.780   4.022  16.858  0.0752  0.3534  0.1748
 1051TIP3    H127348   2.869   3.988  16.849  0.7435  1.8473  0.7637
 1051TIP3    H227349   2.756   4.003  16.948 -0.5498 -0.7985 -0.2202
 1052TIP3   OH227350   0.429   5.234  18.123 -0.1633  0.2248  0.4012
 1052TIP3    H127351   0.357   5.172  18.130  1.3619 -1.5485  1.4422
 1052TIP3    H227352   0.506   5.180  18.108  0.9657  2.0463 -0.8127
 1053TIP3   OH227353   7.275   5.806  17.212  0.2896 -0.0830  0.2135
 1053TIP3    H127354   7.335   5.834  17.281  1.4526  0.3339 -0.9301
 1053TIP3    H227355   7.299   5.716  17.194 -0.9867 -0.6737  1.3274
 1054TIP3   OH227356   5.429   5.995  17.407  0.3429 -0.2463  0.1468
 1054TIP3    H127357   5.465   5.910  17.431  0.1543  0.0579  1.5957
 1054TIP3    H227358   5.419   6.041  17.490  0.7848  1.3325 -0.6366
 1055TIP3   OH227359   6.651   1.254  17.783 -0.0179 -0.6322 -0.4322
 1055TIP3    H127360   6.746   1.264  17.770  0.3395 -0.4512  1.8743
 1055TIP3    H227361   6.622   1.202  17.708  1.5960  0.6660 -2.0600
 1056TIP3   OH227362   3.536   6.076  19.125  0.0925  0.0450 -0.0041
 1056TIP3    H127363   3.521   5.984  19.143 -1.2681  0.3112  0.3433
 1056TIP3    H227364   3.582   6.109  19.202 -0.9638  0.0186  0.6615
 1057TIP3   OH227365   6.796   2.133  19.435 -0.1603 -0.1794  0.6343
 1057TIP3    H127366   6.872   2.184  19.409 -0.3665  1.2040  2.5384
 1057TIP3    H227367   6.806   2.049  19.389  1.4058  0.7013 -0.7384
 1058TIP3   OH227368   2.994   7.649  18.494  0.1085  0.3619 -0.5300
 1058TIP3    H127369   3.086   7.672  18.493  0.6716 -1.3344  1.9733
 1058TIP3    H227370   2.993   7.553  18.490 -1.3453  0.2097  1.5660
 1059TIP3   OH227371   0.545   0.981  16.919  0.0705 -0.3120 -0.5180
 1059TIP3    H127372   0.591   1.032  16.851  0.5739  2.2639  1.5612
 1059TIP3    H227373   0.615   0.943  16.972 -0.3083 -1.3153 -0.7147
 1060TIP3   OH227374   6.706   0.116  17.229  0.1069  0.5754  0.2116
 1060TIP3    H127375   6.687   0.200  17.185 -1.1538 -0.8014 -2.0844
 1060TIP3    H227376   6.766   0.071  17.169 -0.2219 -0.6662  0.7837
 1061TIP3   OH227377   7.630   4.634  16.701 -0.0351 -0.0562  0.2423
 1061TIP3    H127378   7.648   4.700  16.634  0.7940 -0.7077 -0.1989
 1061TIP3    H227379   7.620   4.552  16.652 -0.7066 -0.3233  0.8100
 1062TIP3   OH227380   3.144   1.006  18.513  0.3204 -0.7100 -0.0585
 1062TIP3    H127381   3.230   1.031  18.479  1.2359 -1.6131  1.4671
 1062TIP3    H227382   3.133   1.058  18.592 -0.8083 -0.2050 -0.5186
 1063TIP3   OH227383   3.564   5.047  17.502  0.6073  0.3736  0.1153
 1063TIP3    H127384   3.492   5.088  17.550  0.5421  0.9605 -0.4644
 1063TIP3    H227385   3.586   5.110  17.433  1.4900  0.0771  0.1095
 1064TIP3   OH227386   6.532   3.843  19.532 -0.0260 -0.4129  0.1744
 1064TIP3    H127387   6.530   3.826  19.627  0.1035 -0.9383  0.0887
 1064TIP3    H227388   6.445   3.816  19.502 -0.3899  0.6025  0.2744
 1065TIP3   OH227389   1.799   3.521  17.798  0.1392  0.7821 -0.7905
 1065TIP3    H127390   1.735   3.582  17.835  0.3875  0.4613  0.2177
 1065TIP3    H227391   1.750   3.475  17.730 -1.8345 -1.7239  2.0129
 1066TIP3   OH227392   6.243   2.710  18.376  0.0612 -0.1726  0.4858
 1066TIP3    H127393   6.164   2.675  18.336 -0.5870  0.1068  1.4916
 1066TIP3    H227394   6.308   2.709  18.305 -0.1590 -2.5471  0.2194
 1067TIP3   OH227395   5.851   5.987  17.325  0.4387  0.1697 -0.1461
 1067TIP3    H127396   5.914   5.967  17.256  1.2553  1.6587  0.1248
 1067TIP3    H227397   5.815   6.073  17.302  0.5145  0.5634  1.0954
 1068TIP3   OH227398   5.079   7.630  17.476  0.1338  0.1531  0.7507
 1068TIP3    H127399   5.022   7.577  17.420  0.3616 -0.0586  0.7154
 1068TIP3    H227400   5.111   7.700  17.419 -0.2782  0.4103  0.8360
 1069TIP3   OH227401   5.693   6.207  17.222  0.2436  0.0445  0.6127
 1069TIP3    H127402   5.671   6.292  17.259  0.4914  0.5139 -0.2933
 1069TIP3    H227403   5.608   6.166  17.205  0.1258  0.0492  1.1902
 1070TIP3   OH227404   2.702   6.134  18.757  0.2769  0.0049  0.1641
 1070TIP3    H127405   2.725   6.088  18.838 -0.0181 -1.7402 -0.7041
 1070TIP3    H227406   2.607   6.124  18.750 -0.0072  1.9271  0.6097
 1071TIP3   OH227407   6.098   0.308  18.248  0.4821 -0.2960 -0.0448
 1071TIP3    H127408   6.180   0.263  18.267  1.4688  0.4921 -2.1689
 1071TIP3    H227409   6.031   0.254  18.290  2.0584 -0.8662  1.8994
 1072TIP3   OH227410   1.758   3.697  16.935  0.5414  0.2090 -0.5669
 1072TIP3    H127411   1.848   3.682  16.907  0.2641 -0.1374 -1.3015
 1072TIP3    H227412   1.744   3.791  16.922  0.1851 -0.0601 -2.3659
 1073TIP3   OH227413   2.877   0.198  17.382 -0.0754 -0.0434  0.6979
 1073TIP3    H127414   2.849   0.194  17.290  0.3553  0.9762  0.5152
 1073TIP3    H227415   2.819   0.137  17.427 -0.6884 -0.1000 -0.1481
 1074TIP3   OH227416   3.319   0.706  17.534 -0.9505  0.5049 -0.1847
 1074TIP3    H127417   3.252   0.691  17.468 -1.8644 -1.7071  1.1396
 1074TIP3    H227418   3.348   0.619  17.560  0.5792  1.3419  1.1592
 1075TIP3   OH227419   5.702   7.313  19.238 -0.9657  0.2530  0.0826
 1075TIP3    H127420   5.791   7.284  19.258 -0.7828  0.1632 -0.7989
 1075TIP3    H227421   5.707   7.346  19.148 -1.7259  0.6631  0.1798
 1076TIP3   OH227422   3.412   4.039  17.620 -0.4514  0.3057 -0.4883
 1076TIP3    H127423   3.329   4.006  17.587  0.2055 -1.9177 -0.0633
 1076TIP3    H227424   3.463   4.057  17.541 -0.8671  0.4699 -0.7260
 1077TIP3   OH227425   1.606   4.244  18.746 -0.0087  0.0345 -0.0069
 1077TIP3    H127426   1.658   4.175  18.785 -0.2859 -1.1439 -1.6131
 1077TIP3    H227427   1.637   4.249  18.655 -0.5876  1.4291 -0.1501
 1078TIP3   OH227428   7.050   3.514  18.918 -0.2855 -0.3092 -0.3523
 1078TIP3    H127429   7.050   3.419  18.928 -0.5347 -0.2633  0.0704
 1078TIP3    H227430   6.969   3.534  18.872  0.5462 -0.4550 -1.9698
 1079TIP3   OH227431   2.073   6.750  17.617  0.0683 -0.2515  0.3339
 1079TIP3    H127432   2.155   6.714  17.583  1.5223  1.4863  1.7323
 1079TIP3    H227433   2.064   6.834  17.572 -0.7830 -0.2879  0.4304
 1080TIP3   OH227434   5.902   1.696  17.797  0.3070  0.1574 -0.1124
 1080TIP3    H127435   5.807   1.701  17.807  0.4090  1.7295  0.4592
 1080TIP3    H227436   5.935   1.671  17.883  0.4625  1.0293  0.0998
 1081TIP3   OH227437   0.715   5.725  18.275  0.1320  0.2979  0.3784
 1081TIP3    H127438   0.805   5.696  18.263  0.8413  2.1660  0.7806
 1081TIP3    H227439   0.675   5.658  18.330  0.5326 -1.7835 -1.7081
 1082TIP3   OH227440   0.476   2.794  17.712 -0.1804  0.4320  0.2252
 1082TIP3    H127441   0.390   2.805  17.752 -1.7859 -0.3196 -2.7467
 1082TIP3    H227442   0.508   2.710  17.746 -0.1224  1.1459  2.0569
 1083TIP3   OH227443   3.793   4.807  17.964  0.2666  0.2370 -0.1684
 1083TIP3    H127444   3.752   4.888  17.932  1.3363  0.2818 -1.5160
 1083TIP3    H227445   3.864   4.837  18.021 -0.0842  0.2105  0.2877
 1084TIP3   OH227446   6.935   7.339  17.774  0.2798 -0.2981  0.7183
 1084TIP3    H127447   6.890   7.260  17.803  0.5090 -0.7875 -0.2008
 1084TIP3    H227448   6.960   7.320  17.684 -0.9226  1.3846 -0.0162
 1085TIP3   OH227449   2.201   1.384  18.903 -0.4329 -0.2643  0.1428
 1085TIP3    H127450   2.237   1.396  18.991  0.0994 -1.5508  0.1225
 1085TIP3    H227451   2.191   1.290  18.894  0.2012 -0.2144 -1.4477
 1086TIP3   OH227452   1.632   4.035  17.468 -0.2312  0.0833  0.6569
 1086TIP3    H127453   1.595   4.057  17.383 -0.0660  1.5616  0.9485
 1086TIP3    H227454   1.634   3.939  17.469 -1.1645  0.0300 -0.5885
 1087TIP3   OH227455   1.008   3.786  18.590 -0.2423  0.1463 -0.0302
 1087TIP3    H127456   1.003   3.756  18.680 -0.5665 -1.4472 -0.5526
 1087TIP3    H227457   1.038   3.710  18.540 -0.2078  0.9444 -1.2972
 1088TIP3   OH227458   4.062   7.358  18.054 -0.8312 -0.1691  0.0755
 1088TIP3    H127459   3.971   7.328  18.062 -1.4789  1.8460  1.0587
 1088TIP3    H227460   4.097   7.308  17.980 -2.3569 -1.8552  0.4099
 1089TIP3   OH227461   4.194   6.536  18.275  0.4313 -0.1781 -0.5321
 1089TIP3    H127462   4.274   6.564  18.318  1.0825  0.2088 -1.9564
 1089TIP3    H227463   4.219   6.458  18.226  0.6430  1.3814 -3.0798
 1090TIP3   OH227464   0.335   3.407  17.054  0.3374 -0.1811  0.0162
 1090TIP3    H127465   0.320   3.314  17.039  0.7243 -0.3278  0.5202
 1090TIP3    H227466   0.422   3.424  17.016  0.2665 -0.0213 -0.0794
 1091TIP3   OH227467   3.622   1.414  17.269 -0.2455  0.2486  0.0075
 1091TIP3    H127468   3.593   1.410  17.178 -1.1421 -2.4674  0.3393
 1091TIP3    H227469   3.546   1.387  17.320  0.7962 -0.1497  1.4088
 1092TIP3   OH227470   3.962   6.936  18.780 -0.3203 -0.1188 -0.0208
 1092TIP3    H127471   3.976   7.028  18.756 -0.8718  0.1640  0.7096
 1092TIP3    H227472   3.964   6.889  18.697  2.3210  0.2130 -0.2547
 1093TIP3   OH227473   5.495   3.777  19.192 -0.4059  0.1472  0.3809
 1093TIP3    H127474   5.490   3.681  19.191  0.2420  0.0846  1.3535
 1093TIP3    H227475   5.408   3.806  19.165 -0.9238 -0.7227  1.0462
 1094TIP3   OH227476   2.160   6.748  19.160 -0.3563  0.0021 -0.2111
 1094TIP3    H127477   2.172   6.809  19.233 -0.2095 -0.4627  0.1632
 1094TIP3    H227478   2.232   6.686  19.169  1.2548  1.4197 -2.3061
 1095TIP3   OH227479   3.939   2.779  17.177  0.0384  0.0213 -0.0160
 1095TIP3    H127480   3.854   2.736  17.188 -0.4189  1.4863  2.9310
 1095TIP3    H227481   3.919   2.858  17.125 -0.2627 -0.0083  0.0526
 1096TIP3   OH227482   2.863   6.340  18.877 -0.0734 -0.1836  0.0668
 1096TIP3    H127483   2.860   6.336  18.973 -0.3491 -1.8587  0.0239
 1096TIP3    H227484   2.781   6.298  18.850 -1.0117  2.1116 -0.9218
 1097TIP3   OH227485   2.720   1.500  18.189 -0.1684 -0.1586  0.2607
 1097TIP3    H127486   2.745   1.534  18.275  0.1394 -0.0266  0.1187
 1097TIP3    H227487   2.803   1.484  18.144 -0.2937  1.7230 -0.7747
 1098TIP3   OH227488   3.167   4.335  17.509  0.2468  0.4881  0.2326
 1098TIP3    H127489   3.164   4.283  17.590  0.5384 -0.3134 -0.2632
 1098TIP3    H227490   3.236   4.293  17.457  0.0285  0.9741 -0.4505
 1099TIP3   OH227491   6.499   0.580  19.064  0.5631  0.1132 -0.2764
 1099TIP3    H127492   6.525   0.633  18.988 -1.3682  0.2415 -0.8823
 1099TIP3    H227493   6.508   0.640  19.138 -0.3104  0.9083 -0.7897
 1100TIP3   OH227494   0.925   2.104  17.685  0.4185  0.1737  0.2146
 1100TIP3    H127495   0.840   2.082  17.724  0.1024 -3.3968 -1.9792
 1100TIP3    H227496   0.983   2.033  17.714  1.0305 -0.7164 -2.8048
 1101TIP3   OH227497   3.190   3.645  17.912 -1.0687  0.4270  0.0649
 1101TIP3    H127498   3.204   3.649  17.818  0.4495 -2.0916  0.0884
 1101TIP3    H227499   3.276   3.664  17.950 -1.6771  1.4988  0.9636
 1102TIP3   OH227500   0.120   5.501  19.401 -0.1302 -0.0504 -0.6511
 1102TIP3    H127501   0.051   5.557  19.436  1.3283  1.1150  0.4633
 1102TIP3    H227502   0.128   5.527  19.309 -1.6365 -0.7136 -0.9990
 1103TIP3   OH227503   2.922   0.229  19.357 -0.1173  0.3863 -0.1872
 1103TIP3    H127504   2.997   0.172  19.338  1.0398  1.9189 -0.3524
 1103TIP3    H227505   2.855   0.169  19.391  1.1803 -1.0174  0.0132
 1104TIP3   OH227506   1.239   5.582  18.710  0.5489  0.6241 -0.1106
 1104TIP3    H127507   1.258   5.644  18.780 -2.1729  0.0850  1.2078
 1104TIP3    H227508   1.247   5.496  18.751  1.6078  0.1498 -1.2295
 1105TIP3   OH227509   6.366   7.247  19.265 -0.4424 -0.1635 -0.2040
 1105TIP3    H127510   6.317   7.205  19.336 -2.2571  0.2985 -1.1229
 1105TIP3    H227511   6.402   7.175  19.215 -0.8372 -0.5522  0.0603
 1106TIP3   OH227512   5.479   7.134  18.689 -0.0797  0.1209 -0.4531
 1106TIP3    H127513   5.516   7.119  18.777 -1.2301  2.0326  0.4148
 1106TIP3    H227514   5.434   7.052  18.668 -1.0639  0.1260  1.4222
 1107TIP3   OH227515   5.362   1.691  18.361 -0.1171 -0.0176 -0.2120
 1107TIP3    H127516   5.353   1.763  18.298  1.3580  0.7015  0.3710
 1107TIP3    H227517   5.441   1.644  18.334 -0.3864 -0.7036  0.1459
 1108TIP3   OH227518   3.981   2.227  17.346  0.2036  0.0232 -0.4228
 1108TIP3    H127519   4.010   2.318  17.347  1.5172 -0.3376 -1.6040
 1108TIP3    H227520   3.905   2.225  17.405 -0.7465  2.1710 -1.4397
 1109TIP3   OH227521   7.269   6.408  18.135  0.0818  0.4969 -0.2021
 1109TIP3    H127522   7.336   6.445  18.078  0.3494  0.8453  0.3360
 1109TIP3    H227523   7.313   6.394  18.218  0.1358 -1.5150 -0.5220
 1110TIP3   OH227524   1.437   2.966  16.366 -0.5124  0.4131  0.3557
 1110TIP3    H127525   1.501   2.905  16.404 -0.9015 -0.3417 -0.1794
 1110TIP3    H227526   1.462   2.972  16.274 -0.0645  1.6138  0.5227
 1111TIP3   OH227527   6.220   7.450  19.402  0.7788 -0.7637  0.3153
 1111TIP3    H127528   6.235   7.398  19.481  0.8153 -0.8469  0.2535
 1111TIP3    H227529   6.281   7.414  19.338  0.2631 -1.1587  0.0348
 1112TIP3   OH227530   5.608   1.842  16.772 -0.6121 -0.4246  0.0810
 1112TIP3    H127531   5.666   1.910  16.806 -2.0482  1.5854 -1.2293
 1112TIP3    H227532   5.661   1.794  16.708 -0.3482  1.4265 -1.1675
 1113TIP3   OH227533   3.894   5.921  17.085  0.2981  0.0334  0.5652
 1113TIP3    H127534   3.928   5.910  16.996  0.4686 -0.1713  0.6538
 1113TIP3    H227535   3.946   5.992  17.122 -0.5994  0.9531  0.0926
 1114TIP3   OH227536   3.396   3.462  19.078  0.4212 -0.0364 -0.0140
 1114TIP3    H127537   3.447   3.510  19.013  1.4224 -0.8653  0.1194
 1114TIP3    H227538   3.406   3.370  19.052 -2.2773 -0.1850 -0.8728
 1115TIP3   OH227539   6.136   4.538  18.487  0.0608 -0.2987  0.2545
 1115TIP3    H127540   6.094   4.615  18.449  0.9032  0.4981  0.8866
 1115TIP3    H227541   6.139   4.475  18.416  0.1206  0.5656 -0.5261
 1116TIP3   OH227542   5.914   6.235  19.459 -1.0816  0.6830 -0.0914
 1116TIP3    H127543   5.874   6.287  19.389 -1.7286 -0.9137 -0.9429
 1116TIP3    H227544   5.850   6.168  19.479  0.5015 -0.9893 -0.3829
 1117TIP3   OH227545   1.033   5.469  18.554  0.5035 -0.0485  0.4707
 1117TIP3    H127546   1.046   5.399  18.490  0.4356  0.1201  0.2666
 1117TIP3    H227547   1.118   5.478  18.598 -0.0778 -1.7128  2.0175
 1118TIP3   OH227548   1.731   5.978  18.067  0.0367  0.2880  0.0456
 1118TIP3    H127549   1.674   5.918  18.114 -0.1761  0.9964  0.7219
 1118TIP3    H227550   1.764   5.927  17.993 -1.0042 -0.3135 -0.0271
 1119TIP3   OH227551   5.403   1.064  18.054 -0.0726  0.1417  0.5715
 1119TIP3    H127552   5.357   1.143  18.027 -1.5115 -0.3630  1.4479
 1119TIP3    H227553   5.393   1.062  18.149  2.9330  0.6926  1.0307
 1120TIP3   OH227554   5.726   2.899  18.840 -0.0606 -0.9300  0.0728
 1120TIP3    H127555   5.642   2.877  18.882  0.4726 -1.0782  1.0944
 1120TIP3    H227556   5.712   2.880  18.747 -1.0423 -1.3143  0.2862
 1121TIP3   OH227557   1.353   4.987  18.423  0.2583 -0.0810  0.1559
 1121TIP3    H127558   1.439   4.949  18.406  0.1738 -0.4470  0.5350
 1121TIP3    H227559   1.327   5.026  18.340  0.8700  0.1935  0.0854
 1122TIP3   OH227560   4.617   5.591  18.591 -0.1978 -0.1134  0.6117
 1122TIP3    H127561   4.613   5.497  18.573  0.2909  0.3915 -2.6233
 1122TIP3    H227562   4.533   5.625  18.563  1.1559  0.9358 -2.6854
 1123TIP3   OH227563   1.848   5.348  17.575  0.1099  0.2243  0.4414
 1123TIP3    H127564   1.762   5.304  17.570  0.9272 -1.3747 -0.4234
 1123TIP3    H227565   1.832   5.426  17.627 -1.5322 -0.8935  1.7187
 1124TIP3   OH227566   1.917   5.729  19.258 -0.2896  0.2231  0.3595
 1124TIP3    H127567   1.979   5.795  19.288 -0.9372  1.3128 -0.6023
 1124TIP3    H227568   1.952   5.699  19.174 -1.7260  1.9054 -0.9232
 1125TIP3   OH227569   2.020   6.272  19.172  0.0643  0.8564  0.3018
 1125TIP3    H127570   1.940   6.310  19.209  0.5287  1.0508  1.1386
 1125TIP3    H227571   2.070   6.244  19.249  1.3469  1.8284 -0.1472
 1126TIP3   OH227572   5.234   2.169  17.726  0.2332  0.1532 -0.0191
 1126TIP3    H127573   5.183   2.090  17.715  1.4836 -0.8240  0.8443
 1126TIP3    H227574   5.227   2.189  17.820  2.1367 -0.5611  0.3268
 1127TIP3   OH227575   2.741   3.938  17.125 -0.2775 -0.2656  0.0816
 1127TIP3    H127576   2.762   3.899  17.210 -1.0395 -1.5229 -0.2758
 1127TIP3    H227577   2.652   3.908  17.106  0.5740 -1.6510 -2.0465
 1128TIP3   OH227578   1.780   3.055  17.151 -0.0839 -0.2957 -0.3291
 1128TIP3    H127579   1.862   3.103  17.140  0.6543 -1.3789  0.2389
 1128TIP3    H227580   1.758   3.024  17.063 -0.6838  1.2257 -0.7370
 1129TIP3   OH227581   6.182   3.927  17.886 -0.1761  0.1756  0.5488
 1129TIP3    H127582   6.102   3.877  17.871  1.6268 -2.2463 -2.4195
 1129TIP3    H227583   6.210   3.901  17.974 -2.9334  1.7596  2.0231
 1130TIP3   OH227584   0.255   0.612  19.538  0.8924  0.3835 -0.3963
 1130TIP3    H127585   0.332   0.650  19.496 -0.6183  0.0572 -3.7234
 1130TIP3    H227586   0.265   0.518  19.528  2.1587 -0.0643  3.3449
 1131TIP3   OH227587   6.653   4.754  19.353 -0.8946  0.4830 -0.3883
 1131TIP3    H127588   6.740   4.763  19.315 -0.0863 -3.3975  0.0597
 1131TIP3    H227589   6.642   4.831  19.408  2.0090  1.4138 -0.9318
 1132TIP3   OH227590   3.763   0.489  18.898 -0.0900 -0.5547  0.3864
 1132TIP3    H127591   3.700   0.417  18.899  0.1182 -0.8575 -2.2494
 1132TIP3    H227592   3.841   0.452  18.858  1.1798  0.3252  1.9028
 1133TIP3   OH227593   3.001   7.439  19.042 -0.1352 -0.1256  0.4175
 1133TIP3    H127594   3.064   7.371  19.017 -0.6752 -0.6849  0.5506
 1133TIP3    H227595   3.027   7.515  18.991  0.9804 -0.1791  0.8704
 1134TIP3   OH227596   4.566   6.454  17.665 -0.0037 -0.1663  0.1075
 1134TIP3    H127597   4.477   6.424  17.686 -0.0739 -0.2257 -0.2699
 1134TIP3    H227598   4.584   6.523  17.729  0.4345 -1.4942  1.4889
 1135TIP3   OH227599   3.406   5.735  18.358 -0.3538  0.0999 -0.3213
 1135TIP3    H127600   3.390   5.646  18.387 -0.0926  0.4084  0.7989
 1135TIP3    H227601   3.471   5.770  18.420 -1.0559  1.3245 -0.2416
 1136TIP3   OH227602   6.831   4.846  18.459 -1.0670  0.0953  0.6792
 1136TIP3    H127603   6.893   4.775  18.477 -0.5264  0.0289 -1.1763
 1136TIP3    H227604   6.764   4.806  18.404 -0.3561  1.1325 -1.0273
 1137TIP3   OH227605   7.664   0.533  18.033  0.2048  0.0811  0.0939
 1137TIP3    H127606   7.709   0.540  18.117  0.8916  1.2456 -0.3388
 1137TIP3    H227607   7.611   0.613  18.028  0.1585  0.0121 -0.5684
 1138TIP3   OH227608   6.163   1.795  18.534 -0.0817 -0.1339 -0.0861
 1138TIP3    H127609   6.246   1.749  18.538  0.1225  0.2024 -0.3714
 1138TIP3    H227610   6.179   1.879  18.577 -0.0788  0.2115 -0.7520
 1139TIP3   OH227611   2.242   0.107  19.162  0.0011 -0.2220 -0.1930
 1139TIP3    H127612   2.199   0.060  19.234 -0.4614  0.1796 -0.2063
 1139TIP3    H227613   2.303   0.043  19.126  0.2730 -0.4135  0.5851
 1140TIP3   OH227614   3.998   7.174  17.239  0.5287 -0.6071  0.3845
 1140TIP3    H127615   3.946   7.243  17.281  0.3300  0.7970 -1.9493
 1140TIP3    H227616   3.998   7.198  17.146  0.6991 -3.6467 -0.4986
 1141TIP3   OH227617   6.210   2.039  18.047 -0.2116  0.1070  0.1544
 1141TIP3    H127618   6.115   2.035  18.041 -0.1850  0.3148 -0.5753
 1141TIP3    H227619   6.231   2.131  18.029  0.1376  0.0188  0.1041
 1142TIP3   OH227620   3.469   1.066  19.158  0.2195  0.1013 -1.1005
 1142TIP3    H127621   3.414   0.989  19.139  0.5055 -0.6323  0.8136
 1142TIP3    H227622   3.522   1.038  19.233  0.3465  2.1704 -0.3761
 1143TIP3   OH227623   7.040   2.179  18.053  0.0537 -0.3520  0.1321
 1143TIP3    H127624   7.056   2.104  17.996  0.3564  0.3549 -0.7282
 1143TIP3    H227625   7.118   2.183  18.109  2.2336  1.9236 -2.7656
 1144TIP3   OH227626   0.849   7.312  17.848  0.2311  0.3164  0.7603
 1144TIP3    H127627   0.759   7.282  17.832 -0.0403  0.9463  1.0589
 1144TIP3    H227628   0.904   7.239  17.822 -0.3871 -0.2078  0.9024
 1145TIP3   OH227629   3.883   2.530  18.867 -0.0358 -0.3676 -0.0584
 1145TIP3    H127630   3.825   2.606  18.873  1.3091  0.6144  1.8383
 1145TIP3    H227631   3.915   2.517  18.956  3.9497  0.2588 -1.1793
 1146TIP3   OH227632   0.986   1.644  18.582  0.2032  0.3406  0.2644
 1146TIP3    H127633   1.065   1.662  18.632 -1.2375  1.2702  2.3748
 1146TIP3    H227634   0.952   1.730  18.558 -1.2009  0.1166  1.2371
 1147TIP3   OH227635   6.711   2.488  19.253 -0.0504 -0.0981  0.3429
 1147TIP3    H127636   6.781   2.423  19.247 -0.8640 -0.9465 -0.2882
 1147TIP3    H227637   6.717   2.537  19.171  0.1904  0.2396  0.5596
 1148TIP3   OH227638   5.983   6.914  18.354 -0.3469  0.1518  0.5867
 1148TIP3    H127639   5.945   6.884  18.272 -1.0070 -0.1302  0.9793
 1148TIP3    H227640   6.045   6.846  18.379  0.4133  0.6079 -0.0560
 1149TIP3   OH227641   7.131   4.136  16.701  0.4130 -0.1280 -0.1028
 1149TIP3    H127642   7.049   4.135  16.652 -0.3334 -0.7246  1.0884
 1149TIP3    H227643   7.181   4.062  16.667  0.9910  0.9316 -1.6438
 1150TIP3   OH227644   6.188   0.611  16.609  0.2565  0.0550  0.4533
 1150TIP3    H127645   6.112   0.586  16.557  0.4175  0.2286  0.1325
 1150TIP3    H227646   6.155   0.615  16.699 -0.4373  1.4040  0.1652
 1151TIP3   OH227647   2.393   2.129  19.365  0.0921  0.7540 -0.3237
 1151TIP3    H127648   2.306   2.155  19.333  0.2421  1.0412 -0.5065
 1151TIP3    H227649   2.441   2.212  19.373  1.1369  0.4125 -2.5057
 1152TIP3   OH227650   3.889   2.086  17.092 -0.7333  0.6400  0.5499
 1152TIP3    H127651   3.793   2.090  17.085 -0.5423  2.4460 -2.7042
 1152TIP3    H227652   3.910   2.147  17.163 -1.9700  0.3171  1.2249
 1153TIP3   OH227653   4.199   2.387  19.138 -0.3100  0.1658  0.0773
 1153TIP3    H127654   4.232   2.389  19.228 -0.2374  0.5094  0.0461
 1153TIP3    H227655   4.115   2.433  19.143 -0.4442 -0.0757  0.0244
 1154TIP3   OH227656   5.453   0.589  18.486  0.3502  0.1866 -0.5170
 1154TIP3    H127657   5.424   0.524  18.423  2.2235 -0.0819 -1.1801
 1154TIP3    H227658   5.485   0.662  18.433  2.0313 -0.0754  0.0743
 1155TIP3   OH227659   0.830   1.043  18.343 -0.5151  0.1917  0.0328
 1155TIP3    H127660   0.882   1.123  18.335 -1.6958  1.0459  0.6673
 1155TIP3    H227661   0.888   0.982  18.389  0.5111  0.5597 -0.7341
 1156TIP3   OH227662   4.394   0.548  18.613  0.4128  0.2633  0.2436
 1156TIP3    H127663   4.299   0.560  18.605  0.3565 -0.2706  0.0986
 1156TIP3    H227664   4.429   0.637  18.608 -0.0538  0.4377 -0.0628
 1157TIP3   OH227665   0.239   3.032  17.385 -0.6325  0.5579 -0.4524
 1157TIP3    H127666   0.226   3.001  17.296 -1.1656 -1.0110  0.1265
 1157TIP3    H227667   0.318   2.987  17.415  0.5007  2.3304 -0.6287
 1158TIP3   OH227668   5.903   6.441  19.275  0.5168 -0.5643  0.5534
 1158TIP3    H127669   5.860   6.439  19.190  0.3948  0.8418  0.5488
 1158TIP3    H227670   5.993   6.416  19.257  0.3103 -1.0167  0.1409
 1159TIP3   OH227671   6.926   6.384  19.605 -0.7777  0.2454 -0.4582
 1159TIP3    H127672   6.892   6.465  19.568 -0.4946  0.6857  0.2317
 1159TIP3    H227673   6.873   6.369  19.683  0.1938  0.6290  0.3066
 1160TIP3   OH227674   7.479   6.868  18.432 -0.2037  0.3693  0.0990
 1160TIP3    H127675   7.456   6.820  18.353 -1.6234  0.7018  0.2751
 1160TIP3    H227676   7.463   6.807  18.504 -0.1795  0.4845  0.2036
 1161TIP3   OH227677   2.178   5.663  19.497 -0.0825 -0.2344  0.4208
 1161TIP3    H127678   2.201   5.721  19.570 -0.3829  0.4862 -0.0403
 1161TIP3    H227679   2.214   5.707  19.420  2.1756 -2.0649  0.3276
 1162TIP3   OH227680   0.253   5.825  19.209  0.3681 -0.2195 -0.1197
 1162TIP3    H127681   0.260   5.837  19.114  1.7698  0.2214  0.0226
 1162TIP3    H227682   0.335   5.783  19.234  0.7571  1.1978  1.1128
 1163TIP3   OH227683   0.575   5.426  18.765 -0.1664  0.0904 -0.0124
 1163TIP3    H127684   0.612   5.349  18.722 -0.6870  0.4353 -1.0930
 1163TIP3    H227685   0.604   5.500  18.713  1.3210  0.7849  1.6828
 1164TIP3   OH227686   2.079   4.326  18.293  0.3536  0.3652 -0.0676
 1164TIP3    H127687   2.152   4.296  18.348 -1.0796 -0.9802  1.1867
 1164TIP3    H227688   2.037   4.394  18.345 -1.2247 -1.1594  0.7611
 1165TIP3   OH227689   4.004   7.028  18.134  0.4437  0.5383 -0.1259
 1165TIP3    H127690   4.044   7.040  18.048  0.0582  3.5145  0.0199
 1165TIP3    H227691   4.065   7.069  18.195 -0.3781  0.5064  0.7346
 1166TIP3   OH227692   1.820   2.796  19.600  0.0006  0.1962  0.1861
 1166TIP3    H127693   1.864   2.817  19.517 -1.2037 -0.5856 -0.6943
 1166TIP3    H227694   1.727   2.806  19.580 -0.3455 -0.8101  1.2165
 1167TIP3   OH227695   3.474   3.910  18.623  0.2067 -0.0214  0.3601
 1167TIP3    H127696   3.389   3.873  18.648 -0.6200  1.5221 -0.0414
 1167TIP3    H227697   3.517   3.839  18.574 -0.4768 -1.1143  1.2802
 1168TIP3   OH227698   6.419   1.587  18.577 -0.1498 -0.0549 -0.5096
 1168TIP3    H127699   6.365   1.534  18.636 -0.9381 -0.1943 -1.3382
 1168TIP3    H227700   6.504   1.543  18.577  0.2504  0.5896  1.3987
 1169TIP3   OH227701   4.071   4.643  19.026  0.0603 -0.3963  1.0263
 1169TIP3    H127702   4.075   4.548  19.014  0.1505 -0.2650 -0.1372
 1169TIP3    H227703   4.058   4.655  19.120  0.8334 -1.5365  1.2970
 1170TIP3   OH227704   4.833   4.156  19.191  0.1143 -0.3422 -0.2423
 1170TIP3    H127705   4.900   4.168  19.258  0.3024 -1.9023 -0.1015
 1170TIP3    H227706   4.760   4.212  19.219  1.0028  0.6780  0.0897
 1171TIP3   OH227707   1.568   2.011  17.145  0.0421  0.1611 -0.0642
 1171TIP3    H127708   1.498   2.076  17.147  0.5412  0.7100 -0.0318
 1171TIP3    H227709   1.613   2.027  17.062 -0.6668 -1.0585 -0.7069
 1172TIP3   OH227710   6.687   2.890  18.205  0.1899  0.5616 -0.4152
 1172TIP3    H127711   6.603   2.848  18.187 -1.2203  3.6204 -1.5532
 1172TIP3    H227712   6.727   2.835  18.273 -1.9744 -1.8562 -0.9487
 1173TIP3   OH227713   3.412   1.930  18.699 -0.2803 -0.1791 -0.0399
 1173TIP3    H127714   3.480   1.984  18.741 -1.7568  1.3147  0.5230
 1173TIP3    H227715   3.394   1.861  18.763 -1.8396  1.5376  1.4652
 1174TIP3   OH227716   1.343   3.843  16.957 -0.0981 -0.6003 -0.4066
 1174TIP3    H127717   1.374   3.933  16.968 -0.6434 -0.5366  0.8353
 1174TIP3    H227718   1.382   3.813  16.875 -0.9120  1.1774 -1.4824
 1175TIP3   OH227719   0.784   1.930  16.442 -0.0716 -0.2722  0.5955
 1175TIP3    H127720   0.818   2.016  16.418  1.7715 -0.4157  2.4674
 1175TIP3    H227721   0.837   1.868  16.391  0.5625 -0.3824  1.3687
 1176TIP3   OH227722   2.870   4.305  17.508 -0.1070  0.0856 -0.3823
 1176TIP3    H127723   2.957   4.266  17.512 -0.0286  0.1709 -1.0885
 1176TIP3    H227724   2.886   4.399  17.499 -0.2428  0.0150 -1.5268
 1177TIP3   OH227725   4.868   7.538  17.299 -0.3601 -0.4688  0.0786
 1177TIP3    H127726   4.788   7.491  17.324  0.7353 -2.5235 -0.0327
 1177TIP3    H227727   4.855   7.558  17.206 -0.4836 -1.3965 -0.1150
 1178TIP3   OH227728   1.089   6.000  18.104 -0.3172 -0.5311 -0.3869
 1178TIP3    H127729   1.122   6.058  18.035  0.3252  1.2108  1.3283
 1178TIP3    H227730   1.166   5.977  18.156 -0.9230 -1.1509  0.2582
 1179TIP3   OH227731   0.839   6.939  17.992 -0.5816  0.3103 -0.4157
 1179TIP3    H127732   0.805   6.981  18.071 -0.7144  0.6658 -0.6592
 1179TIP3    H227733   0.762   6.915  17.941 -0.4762  1.1346 -0.9769
 1180TIP3   OH227734   4.765   3.940  17.851 -0.2007  0.5502  0.0833
 1180TIP3    H127735   4.720   3.923  17.934  2.7730  1.1546  1.9611
 1180TIP3    H227736   4.727   3.877  17.790 -1.5145 -0.8905  2.2363
 1181TIP3   OH227737   1.937   1.773  17.467  0.0696  0.4174  0.2171
 1181TIP3    H127738   2.013   1.832  17.467  0.1276  0.3435  0.0511
 1181TIP3    H227739   1.960   1.704  17.406  0.9376 -1.0038  2.0580
 1182TIP3   OH227740   6.184   4.334  17.483  0.1834 -0.0033  0.0063
 1182TIP3    H127741   6.252   4.276  17.449  0.9098  0.7381  0.1342
 1182TIP3    H227742   6.132   4.279  17.541 -1.0972 -1.2984 -2.2496
 1183TIP3   OH227743   4.946   5.003  18.249 -0.0992 -0.2302  0.0427
 1183TIP3    H127744   4.860   4.976  18.215 -0.1288 -0.0882  0.0057
 1183TIP3    H227745   4.965   4.938  18.317 -0.7469  0.3782  0.8151
 1184TIP3   OH227746   2.336   3.330  18.866 -0.1332  0.6479 -0.2253
 1184TIP3    H127747   2.263   3.357  18.811  0.5490  1.5390 -0.7035
 1184TIP3    H227748   2.341   3.396  18.935  1.6154  1.8853 -1.4679
 1185TIP3   OH227749   3.562   3.998  18.077 -0.6003 -0.3969 -0.1817
 1185TIP3    H127750   3.568   3.903  18.066  0.0936 -0.4239  0.3550
 1185TIP3    H227751   3.499   4.026  18.011  1.5950 -0.8449 -2.6500
 1186TIP3   OH227752   6.995   5.075  17.754  0.3141 -0.1197 -0.0879
 1186TIP3    H127753   7.034   5.035  17.677 -1.0723  0.9503 -1.4152
 1186TIP3    H227754   6.900   5.064  17.741  0.0237  0.8163  1.0570
 1187TIP3   OH227755   1.899   7.362  18.721  0.1201  0.9306  1.2578
 1187TIP3    H127756   1.819   7.319  18.752  0.6413 -0.3156  0.9299
 1187TIP3    H227757   1.916   7.430  18.787 -0.7040  0.6223  1.8141
 1188TIP3   OH227758   4.544   4.716  19.282  0.7463  0.0983  0.5667
 1188TIP3    H127759   4.493   4.686  19.358 -0.8063  1.4033  0.1126
 1188TIP3    H227760   4.487   4.698  19.207 -0.7797  4.6780  0.3057
 1189TIP3   OH227761   6.097   2.458  16.941  0.0672 -0.6346  0.3468
 1189TIP3    H127762   6.160   2.388  16.957 -0.0747 -0.9155 -0.2918
 1189TIP3    H227763   6.102   2.513  17.019  1.4577 -0.3725  0.0935
 1190TIP3   OH227764   5.887   0.797  18.796  0.4723  0.2021  0.6187
 1190TIP3    H127765   5.960   0.798  18.858 -0.3922  1.0420  1.6549
 1190TIP3    H227766   5.825   0.734  18.833 -0.0810  0.7570  0.6374
 1191TIP3   OH227767   2.334   5.656  18.700  0.3735 -0.0126  0.1317
 1191TIP3    H127768   2.419   5.698  18.715  0.0175  0.8776 -0.2193
 1191TIP3    H227769   2.352   5.586  18.637  0.4858  1.7999 -1.9774
 1192TIP3   OH227770   1.738   7.149  18.856  0.1816  0.2286 -0.2324
 1192TIP3    H127771   1.662   7.112  18.900 -0.4307  0.4800 -1.0549
 1192TIP3    H227772   1.744   7.100  18.774  0.9935  0.1219 -0.1193
 1193TIP3   OH227773   0.681   5.142  16.805  0.0039 -0.4562 -0.1021
 1193TIP3    H127774   0.656   5.234  16.802  1.8624  0.0803  0.1305
 1193TIP3    H227775   0.768   5.141  16.844  1.8705 -1.9042 -3.8425
 1194TIP3   OH227776   6.864   1.312  18.804 -0.3583 -0.4698  0.7059
 1194TIP3    H127777   6.900   1.398  18.782 -0.5567 -0.5867 -0.1141
 1194TIP3    H227778   6.923   1.250  18.762  0.2940 -0.7846  2.0310
 1195TIP3   OH227779   4.999   4.502  17.443  0.0327  0.2327 -0.3063
 1195TIP3    H127780   4.923   4.519  17.388  0.1250  0.5417 -0.3383
 1195TIP3    H227781   4.962   4.483  17.530 -0.3084 -2.9628 -1.0225
 1196TIP3   OH227782   4.014   3.585  17.080 -0.2767  0.3541  0.3157
 1196TIP3    H127783   3.995   3.679  17.083 -1.5022  0.1999 -1.0991
 1196TIP3    H227784   4.013   3.564  16.987 -0.5040 -1.1486  0.6349
 1197TIP3   OH227785   0.605   3.149  18.068  0.5463 -0.0524 -0.1144
 1197TIP3    H127786   0.525   3.152  18.119  0.8780  1.0668  0.3811
 1197TIP3    H227787   0.580   3.179  17.981  0.3343 -0.1196 -0.0753
 1198TIP3   OH227788   7.409   6.987  17.902 -0.0538 -0.2882 -0.3139
 1198TIP3    H127789   7.392   7.066  17.953 -0.9084 -0.7048  0.0520
 1198TIP3    H227790   7.352   6.920  17.940  0.3895 -0.9924 -0.8574
 1199TIP3   OH227791   3.777   6.463  18.223 -0.4268  0.6286 -0.5274
 1199TIP3    H127792   3.755   6.550  18.190 -2.1491 -0.0441 -1.3040
 1199TIP3    H227793   3.814   6.417  18.147  0.7370  0.7483 -0.0499
 1200TIP3   OH227794   0.373   2.984  16.995  0.4172  0.0893 -0.1869
 1200TIP3    H127795   0.425   3.018  17.068  0.5978 -2.7107  1.1259
 1200TIP3    H227796   0.437   2.967  16.926  0.1378  3.5698 -1.4797
 1201TIP3   OH227797   2.368   2.269  17.285 -0.1685  0.9065 -0.0578
 1201TIP3    H127798   2.387   2.176  17.289  0.7720  1.1408  1.2855
 1201TIP3    H227799   2.446   2.312  17.320 -1.2764  2.1011  1.0659
 1202TIP3   OH227800   3.606   6.182  19.392 -0.1334 -0.3114 -0.1923
 1202TIP3    H127801   3.685   6.198  19.444 -0.8586  1.0534  0.5280
 1202TIP3    H227802   3.575   6.096  19.421  0.9457 -0.7621 -0.3228
 1203TIP3   OH227803   6.003   2.563  17.782  0.0607  0.2333  0.2964
 1203TIP3    H127804   5.913   2.577  17.753  0.0267 -1.9979 -0.9168
 1203TIP3    H227805   6.055   2.567  17.702  1.0661  1.3673  0.9640
 1204TIP3   OH227806   4.016   0.164  18.112  0.0578 -1.0834 -0.2904
 1204TIP3    H127807   3.957   0.237  18.091 -1.0695 -2.1703 -1.0377
 1204TIP3    H227808   3.970   0.115  18.181  2.2412  0.6008  2.5986
 1205TIP3   OH227809   4.134   0.930  18.010  0.1112  0.5472  0.3929
 1205TIP3    H127810   4.106   0.908  18.099 -0.9533  1.3272  0.2766
 1205TIP3    H227811   4.104   1.020  17.997 -0.3630  0.2174 -0.9922
 1206TIP3   OH227812   6.800   5.310  17.471 -0.0579  0.1942  0.0359
 1206TIP3    H127813   6.783   5.354  17.387 -0.3604 -1.4152 -0.7748
 1206TIP3    H227814   6.737   5.350  17.531 -1.4662 -0.2516 -1.0781
 1207TIP3   OH227815   1.500   7.364  18.520  0.1533 -0.5569  0.7311
 1207TIP3    H127816   1.483   7.423  18.594 -0.7480 -0.2174  0.2702
 1207TIP3    H227817   1.458   7.282  18.546  0.8139 -0.7879  1.0763
 1208TIP3   OH227818   3.303   6.634  19.257 -0.1583 -0.1212 -0.3769
 1208TIP3    H127819   3.386   6.586  19.260 -0.4033 -0.5103  0.4195
 1208TIP3    H227820   3.325   6.720  19.294 -0.3248 -0.5794  0.8403
 1209TIP3   OH227821   7.584   2.806  17.901  0.1719  0.0213 -0.6869
 1209TIP3    H127822   7.560   2.713  17.906  0.9001 -0.1460 -0.1176
 1209TIP3    H227823   7.521   2.844  17.840  0.0315 -0.9100 -1.1409
 1210TIP3   OH227824   7.236   3.495  19.236 -0.2248  0.6638  0.0671
 1210TIP3    H127825   7.240   3.404  19.205  0.5450  1.3639 -2.0635
 1210TIP3    H227826   7.143   3.509  19.253 -0.5319 -0.1683 -0.7984
 1211TIP3   OH227827   0.363   5.195  18.851 -0.1373 -0.2054  0.0134
 1211TIP3    H127828   0.447   5.241  18.852 -0.1016 -0.2294  2.1480
 1211TIP3    H227829   0.316   5.231  18.776  0.9412  1.3572  0.0605
 1212TIP3   OH227830   6.988   0.239  18.518  0.6244 -0.1230  0.3524
 1212TIP3    H127831   6.965   0.322  18.477 -0.5127 -0.4150  0.3701
 1212TIP3    H227832   6.913   0.183  18.502  1.3600 -1.1406  0.3925
 1213TIP3   OH227833   4.101   4.015  19.551  0.7484  0.3242 -0.0407
 1213TIP3    H127834   4.026   4.031  19.609  0.7908 -0.7900  0.3417
 1213TIP3    H227835   4.149   3.944  19.593  0.2583 -1.1962 -1.9147
 1214TIP3   OH227836   1.390   4.539  19.078  0.5906 -0.1463  0.2543
 1214TIP3    H127837   1.401   4.504  19.167  0.4174 -0.5176  0.1300
 1214TIP3    H227838   1.404   4.633  19.088  0.1847 -0.1337  0.7437
 1215TIP3   OH227839   3.707   2.647  17.213  0.2253  0.4767  0.3436
 1215TIP3    H127840   3.672   2.560  17.200 -0.3895  0.9241 -1.2694
 1215TIP3    H227841   3.683   2.671  17.303 -0.1057 -0.7657  0.5937
 1216TIP3   OH227842   6.111   0.581  17.883 -0.8925  0.0841 -0.1793
 1216TIP3    H127843   6.035   0.636  17.864 -1.2911 -0.5877 -0.5809
 1216TIP3    H227844   6.137   0.545  17.798 -0.7988 -0.5470  0.1052
 1217TIP3   OH227845   1.845   4.661  18.351  0.0556  0.3678  0.4461
 1217TIP3    H127846   1.821   4.579  18.307 -0.1203  0.6348  0.0400
 1217TIP3    H227847   1.842   4.640  18.444 -2.7343  0.6527  0.4883
 1218TIP3   OH227848   2.641   3.142  18.309  0.8773 -0.2271 -0.1950
 1218TIP3    H127849   2.624   3.079  18.239 -0.1018  0.9603 -1.0748
 1218TIP3    H227850   2.711   3.102  18.362  0.1672 -2.1070 -0.6053
 1219TIP3   OH227851   3.309   2.550  17.828  0.0802 -0.1680 -0.1283
 1219TIP3    H127852   3.318   2.456  17.809  0.9268  0.0183 -0.7435
 1219TIP3    H227853   3.327   2.558  17.921  0.1786 -0.6058 -0.1087
 1220TIP3   OH227854   2.302   1.843  18.357 -0.2263 -0.0756  0.1385
 1220TIP3    H127855   2.382   1.799  18.386  1.4395  2.2454 -0.6230
 1220TIP3    H227856   2.280   1.802  18.273  0.4143 -0.4477  0.1521
 1221TIP3   OH227857   7.501   7.639  18.481 -0.1574 -0.2299 -0.4649
 1221TIP3    H127858   7.541   7.685  18.554  2.0034 -2.3810 -0.1717
 1221TIP3    H227859   7.410   7.670  18.479 -0.1245  0.3464  2.7404
 1222TIP3   OH227860   0.063   0.744  19.394  0.1993  0.2575  0.1768
 1222TIP3    H127861  -0.024   0.726  19.430 -0.0427  0.4832 -0.2828
 1222TIP3    H227862   0.123   0.701  19.454 -0.1179  1.6080  1.5357
 1223TIP3   OH227863   5.337   5.272  17.299  0.2382  0.2996  0.1791
 1223TIP3    H127864   5.431   5.269  17.284  0.6320 -0.8327  2.4941
 1223TIP3    H227865   5.324   5.352  17.350 -0.2569  0.9938 -0.9714
 1224TIP3   OH227866   1.488   4.013  16.613  0.1781 -0.2015 -0.2018
 1224TIP3    H127867   1.567   4.065  16.624  0.2854 -0.5568  0.9151
 1224TIP3    H227868   1.449   4.044  16.532 -0.7666  2.9567  1.3016
 1225TIP3   OH227869   5.503   5.588  19.135  0.4885 -0.7882  0.2051
 1225TIP3    H127870   5.530   5.499  19.111  0.4945 -0.0392 -3.0084
 1225TIP3    H227871   5.460   5.622  19.057 -2.0590  1.1206  2.2638
 1226TIP3   OH227872   5.121   6.559  19.218  0.0295  0.0959  0.1627
 1226TIP3    H127873   5.193   6.528  19.163 -0.3295  1.2725 -1.0123
 1226TIP3    H227874   5.076   6.625  19.165 -0.5844  0.9888  1.7184
 1227TIP3   OH227875   3.720   5.018  17.806 -0.1931  0.4978  0.4105
 1227TIP3    H127876   3.681   5.011  17.719  0.6042  1.5779 -0.0453
 1227TIP3    H227877   3.779   5.092  17.801  0.7053 -0.0996  1.5673
 1228TIP3   OH227878   1.386   7.268  17.458  0.4982 -0.8884 -0.2456
 1228TIP3    H127879   1.399   7.320  17.378  0.5262 -1.1661 -0.4206
 1228TIP3    H227880   1.471   7.227  17.473  0.4783 -0.8762 -0.0991
 1229TIP3   OH227881   1.811   4.022  18.804  0.1323  0.3468 -0.4456
 1229TIP3    H127882   1.906   4.012  18.801  0.0450 -0.4540 -1.2462
 1229TIP3    H227883   1.778   3.932  18.802 -0.6320  0.5711  1.1775
 1230TIP3   OH227884   0.844   0.908  19.288  0.1913  0.4719  0.0217
 1230TIP3    H127885   0.879   0.993  19.314 -0.3669  0.1824  1.9320
 1230TIP3    H227886   0.919   0.861  19.250  1.0797  1.0207  1.0337
 1231TIP3   OH227887   6.159   4.013  18.981 -0.4766  0.4046 -0.3544
 1231TIP3    H127888   6.072   4.041  18.952 -0.8840 -0.6753 -0.1992
 1231TIP3    H227889   6.147   3.989  19.073 -0.0994 -0.1227 -0.4418
 1232TIP3   OH227890   5.793   0.822  18.359 -0.2234  0.2380 -0.2885
 1232TIP3    H127891   5.869   0.826  18.416  1.2499  1.3407 -2.2107
 1232TIP3    H227892   5.808   0.745  18.304 -2.4110 -1.7715  1.7338
 1233TIP3   OH227893   5.379   7.340  18.409 -0.8920 -1.0247  0.5341
 1233TIP3    H127894   5.410   7.425  18.378 -1.6905 -0.8427  0.2228
 1233TIP3    H227895   5.395   7.342  18.504 -2.2622  0.0711  0.7656
 1234TIP3   OH227896   0.315   1.550  18.680 -0.1149  0.6143  0.1634
 1234TIP3    H127897   0.371   1.619  18.715 -0.6076  0.4540  1.2925
 1234TIP3    H227898   0.330   1.475  18.737  1.0908 -0.5435 -1.5641
 1235TIP3   OH227899   1.661   4.907  17.364 -0.9961 -0.1838  0.1352
 1235TIP3    H127900   1.728   4.842  17.387  0.3695  0.9581 -0.4600
 1235TIP3    H227901   1.583   4.879  17.412 -0.1012 -1.5719  0.8471
 1236TIP3   OH227902   5.913   4.986  19.395 -0.5015 -0.9466 -0.1910
 1236TIP3    H127903   5.974   4.947  19.332 -0.9382  0.6395 -1.6737
 1236TIP3    H227904   5.835   4.931  19.390 -0.0427 -1.6377  0.0201
 1237TIP3   OH227905   1.369   7.419  18.916 -0.2274 -0.3191 -0.4749
 1237TIP3    H127906   1.354   7.325  18.901  1.1750 -0.3428 -2.0712
 1237TIP3    H227907   1.460   7.424  18.947 -0.1323  0.5408 -0.8621
 1238TIP3   OH227908   6.749   0.890  19.332  0.2388  0.3709  0.5380
 1238TIP3    H127909   6.725   0.981  19.347 -0.2077  0.6096 -1.3725
 1238TIP3    H227910   6.840   0.893  19.303  0.5755  0.0740  1.4985
 1239TIP3   OH227911   0.222   4.430  19.062 -0.2743  0.4532  0.1786
 1239TIP3    H127912   0.261   4.368  19.000  0.7542  2.4111 -1.2747
 1239TIP3    H227913   0.295   4.487  19.087 -1.2872  1.4353  1.0009
 1240TIP3   OH227914   1.584   3.319  17.120 -0.4052  0.2873 -0.0371
 1240TIP3    H127915   1.625   3.383  17.177  0.5659  0.8336 -1.3093
 1240TIP3    H227916   1.554   3.250  17.180  1.1747  0.4997  1.0733
 1241TIP3   OH227917   3.823   4.639  18.519 -0.1571  0.0320 -0.1425
 1241TIP3    H127918   3.729   4.649  18.532 -0.4985 -1.8535 -0.8088
 1241TIP3    H227919   3.857   4.617  18.605 -0.2569  1.1063  0.1779
 1242TIP3   OH227920   7.192   7.205  19.289  0.0809  0.5156  0.7603
 1242TIP3    H127921   7.144   7.286  19.275  0.8962  1.3835  2.6643
 1242TIP3    H227922   7.283   7.231  19.293  0.3438 -0.4572  1.5777
 1243TIP3   OH227923   7.208   5.270  17.144 -0.3265  0.0880 -0.6246
 1243TIP3    H127924   7.149   5.250  17.217  0.6901 -3.7827 -0.6980
 1243TIP3    H227925   7.282   5.315  17.185 -1.3819  1.2650  0.0820
 1244TIP3   OH227926   2.192   6.878  18.114  0.3774  0.1953  0.0661
 1244TIP3    H127927   2.134   6.948  18.144  1.0046  2.0502 -2.6631
 1244TIP3    H227928   2.136   6.822  18.060  0.8518  1.5038 -1.8652
 1245TIP3   OH227929   4.229   4.836  19.053 -0.1073 -0.3577  0.5948
 1245TIP3    H127930   4.242   4.832  19.148  2.0985 -3.4275  0.2984
 1245TIP3    H227931   4.177   4.759  19.032  2.3837 -1.7413 -0.9764
 1246TIP3   OH227932   7.514   7.446  16.937  0.1631 -0.1297 -0.6172
 1246TIP3    H127933   7.508   7.500  16.858  2.5903  1.3902  0.0821
 1246TIP3    H227934   7.528   7.510  17.008 -0.5519 -1.5190  0.8403
 1247TIP3   OH227935   4.443   6.460  19.061 -0.6149  0.2484 -0.0897
 1247TIP3    H127936   4.489   6.391  19.014 -0.1637  1.2318 -1.1563
 1247TIP3    H227937   4.441   6.431  19.152  2.5975  0.3819  0.1320
 1248TIP3   OH227938   6.220   4.750  17.511 -0.0140 -0.1340  0.2454
 1248TIP3    H127939   6.223   4.843  17.531  0.9068  0.2731 -1.5799
 1248TIP3    H227940   6.302   4.732  17.466 -0.7058 -1.5395 -0.5348
 1249TIP3   OH227941   0.786   6.487  16.708  0.4821 -0.4575  0.3392
 1249TIP3    H127942   0.858   6.537  16.746  0.2430 -0.2246  0.4881
 1249TIP3    H227943   0.717   6.552  16.691  0.5303 -0.5798 -0.3567
 1250TIP3   OH227944   4.992   4.368  19.734 -0.3268  0.2759  0.0280
 1250TIP3    H127945   5.048   4.400  19.805 -0.9843 -0.7878  1.0691
 1250TIP3    H227946   5.049   4.313  19.681 -0.0328  0.3737  0.2381
 1251TIP3   OH227947   3.277   1.418  17.696  0.3516 -0.0303 -0.0407
 1251TIP3    H127948   3.328   1.357  17.749 -1.0178  0.2206  1.6837
 1251TIP3    H227949   3.194   1.372  17.681 -0.8877  1.5051  1.6968
 1252TIP3   OH227950   6.751   1.335  18.027  0.2268  0.6239  0.6568
 1252TIP3    H127951   6.826   1.387  17.999  1.4838 -1.7231 -0.6228
 1252TIP3    H227952   6.683   1.353  17.961  0.7341  0.4804  0.0879
 1253TIP3   OH227953   0.768   6.884  17.284 -0.2220  0.0169 -0.3674
 1253TIP3    H127954   0.762   6.971  17.325 -0.9548 -0.9524  1.7406
 1253TIP3    H227955   0.806   6.829  17.352  2.1988 -0.9531 -2.3739
 1254TIP3   OH227956   0.788   2.933  18.626 -0.0867 -0.4392 -0.0956
 1254TIP3    H127957   0.856   2.871  18.600  0.2570  0.1851 -0.7330
 1254TIP3    H227958   0.748   2.894  18.704  1.8235 -0.2254  1.0489
 1255TIP3   OH227959   5.140   3.147  18.300 -0.2485 -0.1238  0.5185
 1255TIP3    H127960   5.076   3.077  18.316  0.2771 -0.6985  0.1678
 1255TIP3    H227961   5.110   3.220  18.354  0.4237 -1.3674  2.7408
 1256TIP3   OH227962   7.589   4.265  18.890  0.4964 -0.1993 -0.0263
 1256TIP3    H127963   7.632   4.284  18.974 -3.4987 -0.3446  2.2590
 1256TIP3    H227964   7.581   4.170  18.888  0.4847 -0.1922 -0.5917
 1257TIP3   OH227965   6.974   2.500  17.540  0.0137  0.5912  0.2417
 1257TIP3    H127966   6.914   2.481  17.612 -0.6256  0.4582 -0.3178
 1257TIP3    H227967   7.016   2.583  17.565 -1.2879  1.3258  0.0884
 1258TIP3   OH227968   2.887   4.770  17.926 -0.1579  0.2815  0.2966
 1258TIP3    H127969   2.939   4.691  17.940 -0.3040  0.3715  1.4302
 1258TIP3    H227970   2.942   4.841  17.961 -1.3586  0.2775  2.3501
 1259TIP3   OH227971   7.049   4.548  18.208 -0.5519  0.1718 -0.0632
 1259TIP3    H127972   7.019   4.519  18.121  0.4225  0.0016 -0.3513
 1259TIP3    H227973   7.137   4.513  18.216 -0.5417  0.3964  0.9056
 1260TIP3   OH227974   5.999   4.964  19.658  0.4651  0.0898 -0.0464
 1260TIP3    H127975   6.083   4.944  19.618  0.7766 -0.4778  0.8557
 1260TIP3    H227976   5.946   5.000  19.587  2.2349  2.8321 -0.1394
 1261TIP3   OH227977   2.505   1.224  18.653 -0.0734  0.2782 -0.1811
 1261TIP3    H127978   2.452   1.297  18.621 -1.6538 -1.1878 -1.0716
 1261TIP3    H227979   2.595   1.255  18.644 -0.6452  1.6463 -1.7810
 1262TIP3   OH227980   3.361   5.433  18.760 -0.0610 -0.0452 -0.0382
 1262TIP3    H127981   3.308   5.383  18.822 -0.2986 -0.4432 -0.5617
 1262TIP3    H227982   3.325   5.522  18.764 -1.1170 -0.4183 -0.7670
 1263TIP3   OH227983   7.412   6.730  18.662  0.0114 -0.0904  0.3400
 1263TIP3    H127984   7.404   6.707  18.755 -2.7079 -0.7278  0.0396
 1263TIP3    H227985   7.323   6.755  18.636  0.5674 -0.5411 -2.2526
 1264TIP3   OH227986   5.846   6.096  17.639 -0.0114 -0.1603 -0.1747
 1264TIP3    H127987   5.813   6.050  17.562  1.3027 -1.7567  0.1503
 1264TIP3    H227988   5.892   6.029  17.689  0.1599  1.0905  1.4239
 1265TIP3   OH227989   0.688   1.171  17.308  0.3077  0.0234 -0.6001
 1265TIP3    H127990   0.667   1.244  17.249  1.7057 -0.5859 -1.9265
 1265TIP3    H227991   0.772   1.194  17.346 -0.7376  0.5724  1.5139
 1266TIP3   OH227992   7.371   7.150  18.356  0.1661  0.2764  0.1515
 1266TIP3    H127993   7.422   7.074  18.386  0.4187 -0.1306 -1.2677
 1266TIP3    H227994   7.397   7.221  18.415  1.1091 -0.3422  0.5044
 1267TIP3   OH227995   7.584   5.302  17.715 -0.1790  0.0907 -0.6476
 1267TIP3    H127996   7.676   5.279  17.719 -0.2556 -0.1490 -0.2836
 1267TIP3    H227997   7.554   5.268  17.630 -0.1378 -0.5875 -0.3930
 1268TIP3   OH227998   7.148   4.988  18.745 -0.0137  0.2337  0.0840
 1268TIP3    H127999   7.220   5.050  18.733 -0.3082  0.5516 -0.0489
 1268TIP3    H228000   7.070   5.042  18.750 -0.2170 -0.0932  0.5065
 1269TIP3   OH228001   6.143   5.668  18.985  0.0629  0.0696 -0.4020
 1269TIP3    H128002   6.088   5.606  18.938  0.6594  0.0592 -1.0871
 1269TIP3    H228003   6.223   5.674  18.934  0.1658  1.1173 -0.1368
 1270TIP3   OH228004   2.762   3.775  17.365 -0.0982  0.0966  0.1813
 1270TIP3    H128005   2.765   3.819  17.450 -2.5615 -1.4279  1.1479
 1270TIP3    H228006   2.833   3.710  17.369 -0.5856 -0.3855  1.3563
 1271TIP3   OH228007   7.201   2.558  18.432  0.8923  0.6854  0.5574
 1271TIP3    H128008   7.295   2.573  18.426  1.0046 -0.4910 -1.1137
 1271TIP3    H228009   7.192   2.464  18.452  0.0911  0.3531 -1.1524
 1272TIP3   OH228010   3.822   3.432  17.211 -0.6794 -0.4837 -0.3154
 1272TIP3    H128011   3.754   3.493  17.182 -1.0578 -0.8772 -0.2457
 1272TIP3    H228012   3.902   3.465  17.169 -0.8984 -0.0019 -0.3675
 1273TIP3   OH228013   0.063   3.685  16.441  0.4284 -0.0042 -0.3146
 1273TIP3    H128014   0.095   3.711  16.528  1.0112  0.7440 -0.7480
 1273TIP3    H228015  -0.008   3.745  16.423 -0.7747 -1.1743  0.3080
 1274TIP3   OH228016   7.269   6.912  19.253  0.2908  0.4474 -0.3164
 1274TIP3    H128017   7.333   6.909  19.182  2.1101  2.6645  1.0782
 1274TIP3    H228018   7.217   6.990  19.235  0.6647  0.9373  0.6812
 1275TIP3   OH228019   7.566   7.355  18.445 -0.3332  0.2166 -0.3061
 1275TIP3    H128020   7.570   7.347  18.540 -0.6543  0.3146 -0.2816
 1275TIP3    H228021   7.579   7.449  18.428  1.8374 -0.0754 -0.4948
 1276TIP3   OH228022   5.976   5.053  19.046  0.1233  0.1170 -0.4194
 1276TIP3    H128023   5.987   5.045  18.951 -0.6717 -0.4845 -0.4704
 1276TIP3    H228024   5.917   5.128  19.057  1.0943  0.8832 -0.3378
 1277TIP3   OH228025   1.591   1.280  18.403 -0.7187  0.0885  0.2034
 1277TIP3    H128026   1.557   1.357  18.449  3.0240  1.4654  1.0193
 1277TIP3    H228027   1.646   1.235  18.467  0.1162 -1.1942 -1.3334
 1278TIP3   OH228028   0.403   5.295  19.264  0.4875 -0.2489 -0.1019
 1278TIP3    H128029   0.424   5.326  19.352 -0.1714  1.6912 -0.5835
 1278TIP3    H228030   0.372   5.373  19.218  1.2063 -1.1277 -2.1885
 1279TIP3   OH228031   2.426   6.118  18.693 -0.4024 -0.5473  0.3074
 1279TIP3    H128032   2.408   6.212  18.684  1.4905 -0.2173 -0.4657
 1279TIP3    H228033   2.341   6.076  18.677 -1.3074  1.0105  0.7195
 1280TIP3   OH228034   6.161   7.676  17.464  0.2760  0.0694 -0.0997
 1280TIP3    H128035   6.229   7.658  17.528 -0.3909 -0.2386  0.5375
 1280TIP3    H228036   6.186   7.625  17.387 -0.4334 -1.9144  0.9296
 1281TIP3   OH228037   6.649   3.324  18.600  0.3009 -0.1723 -0.2804
 1281TIP3    H128038   6.581   3.260  18.622  0.9348 -1.2334 -1.2856
 1281TIP3    H228039   6.660   3.315  18.505  0.3330  1.5315 -0.4641
 1282TIP3   OH228040   2.202   3.710  17.411  0.2444 -0.1431  0.1549
 1282TIP3    H128041   2.260   3.645  17.372 -1.2811 -1.9158  0.6648
 1282TIP3    H228042   2.256   3.757  17.474  1.3132 -1.1509  0.0147
 1283TIP3   OH228043   5.610   4.274  17.767  0.1322  0.2255 -0.5302
 1283TIP3    H128044   5.529   4.325  17.765 -0.2509 -0.3479  0.1531
 1283TIP3    H228045   5.664   4.318  17.833 -0.5344 -0.7279  0.6891
 1284TIP3   OH228046   3.056   0.031  18.950 -0.4173  0.4241 -0.3700
 1284TIP3    H128047   3.057   0.024  19.045 -3.4773 -0.7878 -0.2973
 1284TIP3    H228048   2.993   0.101  18.931 -1.8869 -1.0769 -1.4187
 1285TIP3   OH228049   5.041   1.151  17.444  0.1524  0.1604 -0.3203
 1285TIP3    H128050   5.059   1.109  17.360 -0.5823 -0.9647  0.0575
 1285TIP3    H228051   4.958   1.112  17.473 -0.0028  1.0930  0.5682
 1286TIP3   OH228052   1.623   6.052  18.777 -0.1364  0.0847  0.4706
 1286TIP3    H128053   1.713   6.068  18.750 -0.0509 -0.8673  0.1462
 1286TIP3    H228054   1.622   6.068  18.871 -0.3294  3.0085  0.0673
 1287TIP3   OH228055   0.368   4.388  18.386  0.0005 -0.5913 -0.2255
 1287TIP3    H128056   0.351   4.482  18.381  1.1222 -0.3488  0.2115
 1287TIP3    H228057   0.283   4.347  18.369 -0.4981  0.4942 -0.4286
 1288TIP3   OH228058   4.780   7.260  17.660  0.2530 -0.2213  0.4711
 1288TIP3    H128059   4.870   7.282  17.685  0.3771  0.6535 -0.6456
 1288TIP3    H228060   4.767   7.306  17.577 -1.0018 -0.8987  0.2786
 1289TIP3   OH228061   3.047   5.153  17.040 -0.7647 -0.6499 -0.3483
 1289TIP3    H128062   3.086   5.183  16.958 -1.0777 -0.0403 -0.2763
 1289TIP3    H228063   3.066   5.059  17.043  2.0041 -0.1581  0.3661
 1290TIP3   OH228064   1.808   4.282  16.983  0.1530 -0.7994 -0.5317
 1290TIP3    H128065   1.720   4.283  17.021  0.8098  0.3258  1.0591
 1290TIP3    H228066   1.826   4.374  16.961  1.9022 -0.5314  1.6483
 1291TIP3   OH228067   3.874   7.617  18.237 -0.1667 -0.5061 -0.2525
 1291TIP3    H128068   3.821   7.624  18.157  0.7064 -0.3690 -0.8375
 1291TIP3    H228069   3.824   7.665  18.303 -2.0091 -2.4535 -0.1098
 1292TIP3   OH228070   6.948   0.362  19.256  0.6548 -0.4887 -0.3843
 1292TIP3    H128071   6.969   0.343  19.347 -0.3782 -2.3883 -0.5050
 1292TIP3    H228072   6.924   0.278  19.218 -0.1101  0.4529 -2.1126
 1293TIP3   OH228073   7.342   0.082  17.512 -0.0517 -0.0075  0.1093
 1293TIP3    H128074   7.304   0.169  17.529  0.7740  0.6048 -1.0578
 1293TIP3    H228075   7.429   0.086  17.552 -0.9575 -1.2630  2.4072
 1294TIP3   OH228076   3.047   6.002  18.987  0.1948  0.4736  0.2899
 1294TIP3    H128077   3.053   6.073  19.051  0.0064 -0.9279  1.9323
 1294TIP3    H228078   3.137   5.971  18.979  0.3132  1.0187 -0.6014
 1295TIP3   OH228079   0.156   0.960  19.235 -0.4466  0.3814  0.2071
 1295TIP3    H128080   0.132   0.894  19.301  0.5407 -1.7258 -1.4355
 1295TIP3    H228081   0.114   0.930  19.155  2.4154  0.0217 -1.2844
 1296TIP3   OH228082   6.515   6.799  19.300  0.0754 -0.1744 -0.2665
 1296TIP3    H128083   6.603   6.837  19.301 -0.0272  0.0696 -0.2938
 1296TIP3    H228084   6.506   6.757  19.386 -0.4101  1.3091  0.4632
 1297TIP3   OH228085   7.333   6.596  17.009 -0.9042 -0.6167  0.4318
 1297TIP3    H128086   7.263   6.559  16.956 -0.6777  1.3633 -1.4015
 1297TIP3    H228087   7.409   6.600  16.950  0.2424 -1.0444  1.8151
 1298TIP3   OH228088   5.952   3.022  18.927 -0.0078 -0.2255 -0.0161
 1298TIP3    H128089   6.003   2.942  18.943 -2.1009 -1.2934  1.9853
 1298TIP3    H228090   5.869   2.990  18.891  0.0511  1.3120 -1.6277
 1299TIP3   OH228091   2.443   6.406  17.506  0.0169  0.0805  0.5790
 1299TIP3    H128092   2.411   6.480  17.558  1.2113  1.9119 -1.1007
 1299TIP3    H228093   2.373   6.389  17.443  0.6446  1.4127 -0.5323
 1300TIP3   OH228094   3.637   0.115  17.695 -0.0347  0.0259 -0.1604
 1300TIP3    H128095   3.608   0.206  17.704  0.4259  0.1232  0.4049
 1300TIP3    H228096   3.560   0.069  17.661 -0.5968  0.4273  0.5249
 1301TIP3   OH228097   6.272   5.009  17.628  0.0108  0.1497 -0.2084
 1301TIP3    H128098   6.332   5.083  17.617  1.0385 -0.9512 -2.6454
 1301TIP3    H228099   6.184   5.049  17.624  0.5345  1.4516  0.5992
 1302TIP3   OH228100   4.340   2.902  17.670 -0.3708  0.1952  0.3878
 1302TIP3    H128101   4.251   2.910  17.705 -0.8885  0.3048 -0.9153
 1302TIP3    H228102   4.335   2.833  17.605  0.6013 -0.0618  0.5649
 1303TIP3   OH228103   4.675   5.039  19.003  0.1772 -0.2196 -0.3111
 1303TIP3    H128104   4.711   5.005  19.085  0.6729 -1.3649 -0.9807
 1303TIP3    H228105   4.667   5.133  19.017 -0.2087 -0.4607  1.2252
 1304TIP3   OH228106   0.556   4.797  18.945  0.1618  0.1228 -0.5641
 1304TIP3    H128107   0.515   4.774  19.028  0.8385  2.3806  0.4945
 1304TIP3    H228108   0.489   4.781  18.879 -0.4951 -1.4049  0.4313
 1305TIP3   OH228109   2.499   1.113  16.489  0.3062  0.0535  0.1638
 1305TIP3    H128110   2.577   1.105  16.434  0.1910 -0.8233  0.1226
 1305TIP3    H228111   2.518   1.060  16.566 -0.3043 -0.3004  0.0795
 1306TIP3   OH228112   6.302   2.429  18.995  0.2164 -0.3584  0.6869
 1306TIP3    H128113   6.313   2.337  18.972  0.8240 -0.2324  0.4557
 1306TIP3    H228114   6.207   2.443  18.994 -0.0825 -1.6119  3.2972
 1307TIP3   OH228115   3.799   2.902  18.172 -0.1169 -0.3517 -0.0134
 1307TIP3    H128116   3.880   2.939  18.137 -0.5543 -0.3802 -1.0694
 1307TIP3    H228117   3.819   2.811  18.190  0.8334  0.2063  2.1721
 1308TIP3   OH228118   4.710   4.570  17.807  0.4858 -0.7158 -0.1401
 1308TIP3    H128119   4.764   4.626  17.752 -2.5331  0.7020 -1.9382
 1308TIP3    H228120   4.663   4.515  17.744 -0.5901 -1.4596  1.2699
 1309TIP3   OH228121   3.955   3.560  16.739 -0.1815 -0.8569 -0.5415
 1309TIP3    H128122   3.908   3.642  16.751  0.0577 -1.0184  2.0574
 1309TIP3    H228123   4.038   3.585  16.699 -0.4077  0.0836 -0.4407
 1310TIP3   OH228124   2.489   4.623  18.168 -0.2273  0.1262 -0.3691
 1310TIP3    H128125   2.534   4.635  18.084  0.2850 -0.5551 -0.2025
 1310TIP3    H228126   2.428   4.697  18.174  0.4626  0.7436 -0.8643
 1311TIP3   OH228127   1.817   5.683  18.710 -0.3159 -0.3438 -0.0827
 1311TIP3    H128128   1.781   5.726  18.788 -0.5237 -0.5451 -0.0673
 1311TIP3    H228129   1.845   5.755  18.654  1.6682 -0.1683  1.0192
 1312TIP3   OH228130   7.564   4.732  18.120  0.0230  0.2429  0.0993
 1312TIP3    H128131   7.485   4.737  18.066  0.1308  1.5733  0.0310
 1312TIP3    H228132   7.544   4.787  18.197  0.8586  0.5752  0.0929
 1313TIP3   OH228133   2.204   5.217  19.177  0.3369  0.2450  0.7851
 1313TIP3    H128134   2.189   5.123  19.187 -0.4624  0.4136  1.2884
 1313TIP3    H228135   2.299   5.227  19.181  0.4021 -0.4902  1.2118
 1314TIP3   OH228136   1.924   0.664  18.642  0.2287  0.1923 -0.0963
 1314TIP3    H128137   1.971   0.582  18.655  0.2427 -0.1538 -2.0989
 1314TIP3    H228138   1.832   0.641  18.656  0.4482  0.5565  2.3773
 1315TIP3   OH228139   3.531   3.996  17.353  0.1081 -0.2735  0.4334
 1315TIP3    H128140   3.546   3.905  17.381 -0.5924 -0.7094 -0.5721
 1315TIP3    H228141   3.613   4.041  17.376  0.6468 -1.2615  0.5235
 1316TIP3   OH228142   0.299   3.454  19.372 -0.0717 -0.2740  0.2750
 1316TIP3    H128143   0.220   3.440  19.321  0.3033  0.9767 -0.7344
 1316TIP3    H228144   0.361   3.388  19.340  0.4450  1.0130 -1.6279
 1317TIP3   OH228145   5.730   6.573  18.332  0.8317 -0.7659  0.2793
 1317TIP3    H128146   5.802   6.590  18.271  0.0309  0.2925 -0.4049
 1317TIP3    H228147   5.760   6.607  18.416  1.1046 -0.2949 -0.0094
 1318TIP3   OH228148   2.323   1.617  17.614 -0.0799  0.1798  0.2102
 1318TIP3    H128149   2.310   1.555  17.686 -2.3196 -0.3945 -0.6040
 1318TIP3    H228150   2.258   1.686  17.630  1.3186  1.5392  0.2464
 1319TIP3   OH228151   5.795   7.286  18.831  0.0224 -0.0644 -0.0346
 1319TIP3    H128152   5.713   7.292  18.880 -1.5628  1.4089 -2.6188
 1319TIP3    H228153   5.830   7.200  18.853 -1.5421 -0.2515  2.0823
 1320TIP3   OH228154   2.202   1.906  16.381 -0.0138 -0.1500 -0.0680
 1320TIP3    H128155   2.280   1.954  16.409  0.8397  0.3573 -2.9923
 1320TIP3    H228156   2.215   1.817  16.415  2.3652 -0.3327 -1.2608
 1321TIP3   OH228157   2.883   0.932  19.264 -0.0353  0.0211  0.3567
 1321TIP3    H128158   2.807   0.988  19.279 -0.3758 -0.3598  0.0644
 1321TIP3    H228159   2.854   0.867  19.200 -0.0068 -1.1714  1.4929
 1322TIP3   OH228160   3.924   4.293  18.776  0.5063 -0.0269  0.0232
 1322TIP3    H128161   3.945   4.386  18.782  0.2851 -0.0220  0.7231
 1322TIP3    H228162   3.943   4.270  18.684  0.0360  0.8308 -0.2967
 1323TIP3   OH228163   4.426   6.798  18.969 -0.1699  0.0112  0.6855
 1323TIP3    H128164   4.418   6.865  19.037 -1.2524  0.5079  0.0984
 1323TIP3    H228165   4.347   6.744  18.979 -0.2744  0.0111 -0.0788
 1324TIP3   OH228166   1.033   5.411  19.105  0.8877  0.3213 -0.1089
 1324TIP3    H128167   1.013   5.357  19.181  0.5832  1.2085  0.4589
 1324TIP3    H228168   1.103   5.364  19.060  2.9812  1.0478  2.1755
 1325TIP3   OH228169   4.945   4.342  16.688  0.2026 -0.1239  0.0419
 1325TIP3    H128170   5.014   4.360  16.752  1.7713  0.0469 -1.6380
 1325TIP3    H228171   4.919   4.428  16.656  1.7255 -0.3252 -1.8592
 1326TIP3   OH228172   1.986   2.053  17.283 -0.1547 -0.0482  0.2913
 1326TIP3    H128173   2.021   2.048  17.194  0.8406  0.4978  0.6362
 1326TIP3    H228174   1.959   2.144  17.293  1.5097  0.4004  1.1628
 1327TIP3   OH228175   1.546   3.765  17.483 -0.0857 -0.0984  0.1666
 1327TIP3    H128176   1.567   3.732  17.396 -0.0700 -1.5442  0.6826
 1327TIP3    H228177   1.474   3.709  17.513  0.1206  0.1653  1.1908
 1328TIP3   OH228178   0.794   0.399  18.864 -0.0928 -0.0206  0.3054
 1328TIP3    H128179   0.771   0.437  18.779  3.3219 -0.3620 -0.9268
 1328TIP3    H228180   0.777   0.306  18.853  2.3860 -0.4260 -0.9584
 1329TIP3   OH228181   4.904   4.811  17.680 -0.0454 -0.3510 -0.2573
 1329TIP3    H128182   4.946   4.759  17.749  1.9948 -0.7177 -1.7055
 1329TIP3    H228183   4.845   4.869  17.728  1.2007 -0.6668  1.7976
 1330TIP3   OH228184   2.439   7.038  18.006 -0.5056 -0.4194 -0.0340
 1330TIP3    H128185   2.444   6.996  18.092  0.1354 -0.8144 -0.2653
 1330TIP3    H228186   2.498   7.113  18.013  0.2940 -1.0031 -0.4395
 1331TIP3   OH228187   5.452   6.744  19.187 -0.3176  0.1019 -0.0478
 1331TIP3    H128188   5.390   6.723  19.118  0.1494 -0.2871 -0.3556
 1331TIP3    H228189   5.535   6.707  19.157 -0.0745  0.0713  0.6435
 1332TIP3   OH228190   0.392   5.141  17.131 -0.2022  0.5667  0.1532
 1332TIP3    H128191   0.434   5.226  17.120  2.1632 -0.2562  1.8590
 1332TIP3    H228192   0.356   5.120  17.045  0.6393  2.5416 -0.7384
 1333TIP3   OH228193   7.567   3.978  17.542 -0.1825 -0.3398  0.6218
 1333TIP3    H128194   7.481   3.951  17.575 -0.9363  1.6187  0.4144
 1333TIP3    H228195   7.556   3.982  17.447 -0.0406  0.4326  0.6319
 1334TIP3   OH228196   6.729   3.369  19.459 -0.2450  0.2910 -0.3335
 1334TIP3    H128197   6.722   3.329  19.546  2.3001  2.6280  1.1423
 1334TIP3    H228198   6.646   3.415  19.447 -1.2690 -1.3671  0.0760
 1335TIP3   OH228199   4.401   3.204  18.940 -0.0987 -0.1688  0.0971
 1335TIP3    H128200   4.328   3.194  18.878  1.4151  0.5699 -1.8979
 1335TIP3    H228201   4.414   3.116  18.975 -1.1647 -0.5616 -0.4436
 1336TIP3   OH228202   1.684   7.153  18.308  0.6285 -0.7447 -0.1726
 1336TIP3    H128203   1.590   7.168  18.307  0.5478 -1.0960  0.8000
 1336TIP3    H228204   1.693   7.058  18.303  0.8921 -0.7677  0.5564
 1337TIP3   OH228205   0.709   3.988  17.270 -0.3378  0.2466 -0.3613
 1337TIP3    H128206   0.730   3.902  17.307  0.2424  0.6330  0.2223
 1337TIP3    H228207   0.703   3.972  17.176 -0.1267 -0.4138 -0.2685
 1338TIP3   OH228208   0.950   3.231  16.694 -0.3555  0.1965  0.3335
 1338TIP3    H128209   0.860   3.263  16.700 -0.6203  0.3324 -2.7372
 1338TIP3    H228210   1.003   3.309  16.678 -0.1932 -0.1631 -1.1020
 1339TIP3   OH228211   1.363   0.269  19.113  0.0429 -0.4268 -1.1500
 1339TIP3    H128212   1.358   0.174  19.107  1.4814 -0.5874 -0.3192
 1339TIP3    H228213   1.345   0.300  19.025 -2.0665 -1.3550 -1.1013
 1340TIP3   OH228214   3.042   2.800  18.573 -0.0536 -0.3891 -0.2367
 1340TIP3    H128215   3.014   2.891  18.575  1.5495  0.1692  2.3038
 1340TIP3    H228216   2.986   2.759  18.507 -1.5376  2.1714 -0.7229
 1341TIP3   OH228217   2.522   4.360  18.082 -0.2385  0.0212  0.6769
 1341TIP3    H128218   2.517   4.447  18.121 -0.3039 -0.1681  1.0981
 1341TIP3    H228219   2.608   4.327  18.108 -0.0595  0.1078  0.2005
 1342TIP3   OH228220   7.037   5.912  16.667 -1.1285 -0.5682 -0.1022
 1342TIP3    H128221   6.977   5.845  16.633 -0.0349 -1.5389 -0.1735
 1342TIP3    H228222   7.077   5.871  16.743 -0.4820  0.0332 -0.1140
 1343TIP3   OH228223   5.709   0.045  17.009  0.2072 -0.3531 -0.4066
 1343TIP3    H128224   5.779   0.091  16.962 -1.7715  3.1463 -0.2736
 1343TIP3    H228225   5.695   0.097  17.088 -1.4984 -1.8376  0.3461
 1344TIP3   OH228226   0.888   7.298  17.352  0.2983  0.5130 -0.1271
 1344TIP3    H128227   0.874   7.378  17.301  0.2752  0.0124 -0.9304
 1344TIP3    H228228   0.966   7.317  17.404  2.2786 -0.0164 -2.6882
 1345TIP3   OH228229   7.649   5.979  19.502  0.0287 -0.3761  0.1606
 1345TIP3    H128230   7.717   5.924  19.542  1.6118  0.9398 -0.5846
 1345TIP3    H228231   7.685   6.068  19.507 -2.1817  0.5482  0.7888
 1346TIP3   OH228232   6.610   5.534  18.283  0.2546  0.0779  0.1007
 1346TIP3    H128233   6.665   5.573  18.215 -1.4812 -0.0192 -1.4464
 1346TIP3    H228234   6.558   5.468  18.237 -0.1084 -0.8684  1.7856
 1347TIP3   OH228235   1.308   4.384  18.520 -0.5213  0.2934 -0.1000
 1347TIP3    H128236   1.250   4.374  18.596  1.5798 -0.9696  1.4729
 1347TIP3    H228237   1.288   4.308  18.465 -0.9652  0.3421 -0.0123
 1348TIP3   OH228238   6.748   4.276  19.213  0.0792  0.0419  0.1454
 1348TIP3    H128239   6.750   4.236  19.301  0.0714  0.5995  0.3997
 1348TIP3    H228240   6.774   4.204  19.155 -0.3381 -0.4516  0.5558
 1349TIP3   OH228241   3.368   5.575  17.563  0.2595 -0.2993  0.6205
 1349TIP3    H128242   3.423   5.498  17.549  0.8636  0.3059 -0.4587
 1349TIP3    H228243   3.283   5.539  17.589  0.4879 -1.3447 -0.0286
 1350TIP3   OH228244   4.719   0.245  19.139 -0.0963 -0.1899  0.4774
 1350TIP3    H128245   4.797   0.241  19.084  0.2870  0.0498  0.9939
 1350TIP3    H228246   4.707   0.155  19.170  0.2384 -0.1408  0.7536
 1351TIP3   OH228247   6.118   5.311  18.954  0.0530  0.4583 -0.4710
 1351TIP3    H128248   6.043   5.360  18.922 -0.8283 -0.9938 -0.7161
 1351TIP3    H228249   6.119   5.326  19.048 -0.0691  1.1061 -0.5697
 1352TIP3   OH228250   2.353   6.381  18.717 -0.2949  0.2605 -0.1985
 1352TIP3    H128251   2.377   6.465  18.679 -2.3509  0.9286 -0.1062
 1352TIP3    H228252   2.322   6.402  18.805  0.1304 -0.7351  0.2077
 1353TIP3   OH228253   5.857   7.330  17.890  0.0284  0.2763 -0.0326
 1353TIP3    H128254   5.853   7.423  17.867 -1.2349  0.5463  1.1024
 1353TIP3    H228255   5.773   7.313  17.933 -0.5483 -1.8384 -1.7728
 1354TIP3   OH228256   3.446   4.400  17.208  0.2295  0.0450  0.2338
 1354TIP3    H128257   3.404   4.314  17.217  0.6768 -0.4264 -1.6833
 1354TIP3    H228258   3.440   4.420  17.114  0.3804  1.9992  0.5963
 1355TIP3   OH228259   1.826   5.722  16.908 -0.3275  0.7653 -0.5404
 1355TIP3    H128260   1.878   5.729  16.988 -0.6939 -0.6181 -0.1637
 1355TIP3    H228261   1.735   5.733  16.937 -1.0911 -4.8305  0.2547
 1356TIP3   OH228262   5.409   3.264  18.304  0.3585 -0.4179 -0.8359
 1356TIP3    H128263   5.391   3.306  18.220  0.8713  0.8090 -0.3481
 1356TIP3    H228264   5.338   3.200  18.314 -0.7317  0.6716 -1.3712
 1357TIP3   OH228265   2.173   6.959  19.329 -0.8602 -0.0331  0.0054
 1357TIP3    H128266   2.146   7.045  19.298 -0.8240  0.4391  1.2368
 1357TIP3    H228267   2.264   6.971  19.357 -1.1360 -0.2430  1.0138
 1358TIP3   OH228268   3.352   5.930  18.641  0.3980  0.1193  0.6083
 1358TIP3    H128269   3.445   5.905  18.633  0.4418  0.1425  1.0626
 1358TIP3    H228270   3.353   6.025  18.639  0.3123  0.1170 -0.1511
 1359TIP3   OH228271   2.063   4.794  17.031 -0.3191  0.0482 -0.7356
 1359TIP3    H128272   2.141   4.846  17.009 -1.0313  1.6747  0.3824
 1359TIP3    H228273   2.092   4.703  17.023  1.2024  0.6014 -2.0079
 1360TIP3   OH228274   7.160   5.400  18.421 -0.1877 -0.0170 -0.0530
 1360TIP3    H128275   7.101   5.377  18.493  1.0372 -1.4331  0.5701
 1360TIP3    H228276   7.168   5.320  18.370 -0.3763  0.7362 -1.3096
 1361TIP3   OH228277   3.661   0.861  17.837 -0.0973  0.1259  0.0633
 1361TIP3    H128278   3.603   0.919  17.886  0.2026 -0.0597  0.6434
 1361TIP3    H228279   3.613   0.778  17.832 -1.3354  0.8811 -2.3209
 1362TIP3   OH228280   5.429   6.117  17.161 -0.3015 -0.6132  0.2434
 1362TIP3    H128281   5.371   6.193  17.163  0.4664 -0.0174  0.8917
 1362TIP3    H228282   5.428   6.085  17.251 -1.0277 -1.7029 -0.1397
 1363TIP3   OH228283   1.759   3.270  16.923 -0.3878  0.3631  0.1172
 1363TIP3    H128284   1.715   3.190  16.895  1.4420 -0.3584 -0.8315
 1363TIP3    H228285   1.707   3.301  16.997 -2.9656  0.0368 -1.4431
 1364TIP3   OH228286   0.098   6.101  17.666 -0.4857  0.2686 -0.2038
 1364TIP3    H128287   0.082   6.133  17.755 -1.1296 -0.0457 -0.2007
 1364TIP3    H228288   0.086   6.178  17.611  1.2685  0.7950  0.0794
 1365TIP3   OH228289   3.068   1.914  18.635  0.1713  0.4244 -0.3643
 1365TIP3    H128290   3.078   1.819  18.629  3.3283  0.6349  0.1026
 1365TIP3    H228291   3.130   1.949  18.571  0.4319  2.1678  0.7810
 1366TIP3   OH228292   6.176   6.647  19.372  0.1321  0.4177 -0.1129
 1366TIP3    H128293   6.099   6.596  19.398  0.0830  0.7621  0.4289
 1366TIP3    H228294   6.150   6.739  19.384  0.7434  0.5295  0.4157
 1367TIP3   OH228295   2.491   2.690  18.751  0.1485 -0.1306  0.4677
 1367TIP3    H128296   2.570   2.724  18.793  1.2713 -0.4840 -1.2511
 1367TIP3    H228297   2.455   2.765  18.703 -0.3910 -0.0568  0.9741
 1368TIP3   OH228298   4.654   5.810  18.277 -0.5490  0.1122  0.0100
 1368TIP3    H128299   4.599   5.743  18.236 -1.0029 -0.4063  1.4397
 1368TIP3    H228300   4.593   5.869  18.320 -0.0814  0.7808 -0.2200
 1369TIP3   OH228301   7.112   7.568  17.248  0.2996  0.2616 -0.4621
 1369TIP3    H128302   7.078   7.576  17.337 -1.8036  1.1978 -1.2967
 1369TIP3    H228303   7.169   7.644  17.237 -0.5685  0.9519 -0.3486
 1370TIP3   OH228304   7.062   3.270  18.181 -0.5830 -0.0650 -0.2404
 1370TIP3    H128305   7.034   3.183  18.151  1.7112 -0.9300 -0.0906
 1370TIP3    H228306   7.031   3.275  18.271  0.2347 -1.2163  0.1225
 1371TIP3   OH228307   3.238   7.363  17.875  1.0569  0.3189 -0.3527
 1371TIP3    H128308   3.168   7.311  17.835 -1.4350  1.9852  1.5354
 1371TIP3    H228309   3.269   7.420  17.804  1.5708 -1.3907 -1.5751
 1372TIP3   OH228310   0.947   1.665  17.501 -0.5051 -0.1582  0.0917
 1372TIP3    H128311   0.937   1.571  17.485  0.8443 -0.2138 -0.5635
 1372TIP3    H228312   1.029   1.672  17.549 -0.3595  0.7326 -0.2784
 1373TIP3   OH228313   5.352   6.898  19.387  0.0051  0.1394 -0.3159
 1373TIP3    H128314   5.258   6.909  19.374 -0.0142 -0.0234 -0.3127
 1373TIP3    H228315   5.380   6.842  19.315  0.0516 -0.0447 -0.1537
 1374TIP3   OH228316   7.388   3.648  17.740  0.3993  0.1110 -0.3917
 1374TIP3    H128317   7.444   3.677  17.812  0.1984  2.4522 -1.0981
 1374TIP3    H228318   7.449   3.628  17.669  0.6134 -2.4085  0.3957
 1375TIP3   OH228319   2.499   1.062  18.338 -0.5441  0.8532 -0.3498
 1375TIP3    H128320   2.467   1.067  18.428 -0.8697  2.1059 -0.5049
 1375TIP3    H228321   2.430   1.017  18.290  0.0263 -0.6445  0.1683
 1376TIP3   OH228322   2.842   1.244  18.075  0.3813  0.3217 -0.1862
 1376TIP3    H128323   2.754   1.274  18.097  0.2374 -0.9603  1.1853
 1376TIP3    H228324   2.854   1.269  17.984 -1.4240  0.4900 -0.4148
 1377TIP3   OH228325   1.118   6.968  18.398 -0.0592  0.2256  0.1440
 1377TIP3    H128326   1.108   6.951  18.304  2.3870 -1.1082  0.0543
 1377TIP3    H228327   1.132   7.063  18.404  1.0665  0.1515 -0.9985
 1378TIP3   OH228328   2.372   4.131  18.178 -0.0285 -0.3174  0.4981
 1378TIP3    H128329   2.419   4.209  18.149  0.5599 -1.1561 -0.8907
 1378TIP3    H228330   2.368   4.140  18.273  0.5442  1.1154  0.4128
 1379TIP3   OH228331   0.255   6.568  18.424  0.3170 -0.1354  0.5240
 1379TIP3    H128332   0.278   6.568  18.331  1.2094 -1.2496  0.7259
 1379TIP3    H228333   0.315   6.505  18.464  0.1043  0.4969  1.9017
 1380TIP3   OH228334   4.074   1.205  18.001  0.1870 -0.0812  0.0340
 1380TIP3    H128335   4.032   1.287  18.027 -1.2424 -0.8987  0.3900
 1380TIP3    H228336   4.128   1.229  17.926 -1.1455  0.9778 -0.6448
 1381TIP3   OH228337   0.467   1.796  18.763  0.3267  0.2912  0.3005
 1381TIP3    H128338   0.545   1.850  18.751  0.5427  0.0452  0.6081
 1381TIP3    H228339   0.395   1.859  18.766  0.2759  0.4362 -1.9060
 1382TIP3   OH228340   5.436   6.792  17.613 -0.0395 -0.4420 -0.5843
 1382TIP3    H128341   5.434   6.746  17.529 -0.2133  0.3313 -1.0204
 1382TIP3    H228342   5.529   6.807  17.630 -0.0500  0.6567 -1.3682
 1383TIP3   OH228343   3.456   6.179  17.684  0.1695 -0.2869  0.0607
 1383TIP3    H128344   3.548   6.158  17.672  0.6758 -0.0819  2.8829
 1383TIP3    H228345   3.456   6.258  17.738 -1.6861  0.3007 -0.7078
 1384TIP3   OH228346   3.852   5.403  19.710  0.1846  0.4953  0.3856
 1384TIP3    H128347   3.926   5.357  19.749 -0.8031  0.1246  1.9271
 1384TIP3    H228348   3.816   5.342  19.646  1.5810  0.9510 -0.9172
 1385TIP3   OH228349   5.716   5.415  18.131  0.3866 -0.4321  0.0406
 1385TIP3    H128350   5.693   5.496  18.085 -1.7658 -0.4664  0.9446
 1385TIP3    H228351   5.775   5.369  18.071  0.1267  0.9236 -1.3059
 1386TIP3   OH228352   5.915   0.762  17.821 -0.3919 -0.2287 -0.3206
 1386TIP3    H128353   5.880   0.745  17.733  0.5827  1.6220 -1.1239
 1386TIP3    H228354   5.861   0.834  17.854  0.8125  0.7543 -0.4364
 1387TIP3   OH228355   6.344   1.721  16.615 -0.3733 -0.1798  0.1873
 1387TIP3    H128356   6.287   1.783  16.570 -1.1551 -0.1187  1.2388
 1387TIP3    H228357   6.395   1.774  16.676  0.1077 -0.3739 -0.0326
 1388TIP3   OH228358   5.210   5.852  18.262  0.3152 -0.0841 -0.3778
 1388TIP3    H128359   5.214   5.947  18.269  0.8419 -0.2170  1.9811
 1388TIP3    H228360   5.147   5.836  18.192 -1.5203  2.0167  0.6441
 1389TIP3   OH228361   5.119   7.407  18.958 -0.2957  0.1426  0.0879
 1389TIP3    H128362   5.047   7.345  18.944  0.6708 -0.9003 -0.4604
 1389TIP3    H228363   5.185   7.356  19.004  0.9776  0.4369 -1.3577
 1390TIP3   OH228364   4.033   5.352  18.051 -0.1400 -0.5563 -0.0847
 1390TIP3    H128365   4.113   5.364  18.000  1.2609 -1.4968  1.7886
 1390TIP3    H228366   4.023   5.434  18.100 -0.2011 -0.5406 -0.1229
 1391TIP3   OH228367   5.653   1.536  19.467 -0.4329 -0.0922 -0.2395
 1391TIP3    H128368   5.593   1.462  19.472 -1.5337  0.7914  0.3201
 1391TIP3    H228369   5.595   1.613  19.466  0.5704  0.7374 -3.0388
 1392TIP3   OH228370   5.256   2.522  18.806  0.2570 -0.0953  0.6060
 1392TIP3    H128371   5.280   2.541  18.896  0.6525  0.6499  0.3482
 1392TIP3    H228372   5.167   2.485  18.812 -0.7747  2.3165  1.1118
 1393TIP3   OH228373   2.890   4.824  18.265  0.0975  0.2598  0.4883
 1393TIP3    H128374   2.890   4.729  18.258 -0.2773  0.2520  0.5593
 1393TIP3    H228375   2.927   4.854  18.182  1.1326  0.0378  0.8533
 1394TIP3   OH228376   3.677   3.539  19.363 -0.1313  0.0634 -0.0508
 1394TIP3    H128377   3.621   3.484  19.418 -0.4077  1.7996  1.5314
 1394TIP3    H228378   3.693   3.487  19.285 -3.0267 -0.9786 -0.0808
 1395TIP3   OH228379   5.934   6.355  17.627 -0.0812 -0.6206 -0.3755
 1395TIP3    H128380   5.970   6.361  17.539 -1.3157  0.0187 -0.8578
 1395TIP3    H228381   5.913   6.262  17.639  1.1026 -0.8893 -0.3241
 1396TIP3   OH228382   6.592   4.490  19.486 -0.2634 -0.3035  0.1472
 1396TIP3    H128383   6.624   4.579  19.471  0.1768 -0.6552 -1.1048
 1396TIP3    H228384   6.670   4.442  19.513 -0.7824  0.0021  2.4405
 1397TIP3   OH228385   2.898   6.096  18.175  0.0182  0.7988  0.4674
 1397TIP3    H128386   2.946   6.111  18.093  0.3302 -0.1069  0.4767
 1397TIP3    H228387   2.806   6.089  18.148  0.0985  0.7060  0.2155
 1398TIP3   OH228388   1.762   5.441  18.568  0.2187 -0.2263  0.2578
 1398TIP3    H128389   1.761   5.535  18.551 -2.5356 -0.7217 -3.4941
 1398TIP3    H228390   1.697   5.429  18.637 -1.5995  0.4718 -1.2418
 1399TIP3   OH228391   3.506   6.439  19.247  0.4431 -0.2237 -0.2221
 1399TIP3    H128392   3.495   6.382  19.171 -0.9762 -1.1947  0.6618
 1399TIP3    H228393   3.524   6.379  19.320 -0.5988  0.4608  0.6350
 1400TIP3   OH228394   1.454   6.384  18.859 -0.7200 -0.4023  0.4790
 1400TIP3    H128395   1.532   6.436  18.838  0.3178 -1.9474  0.3195
 1400TIP3    H228396   1.441   6.329  18.782 -2.8565  0.8008 -0.0937
 1401TIP3   OH228397   2.996   1.939  18.290 -0.0852 -0.0176  0.1402
 1401TIP3    H128398   3.077   1.893  18.311 -1.2746 -0.7855  3.6930
 1401TIP3    H228399   3.000   2.019  18.342 -0.5358  1.2035 -1.6366
 1402TIP3   OH228400   2.750   2.882  18.720  0.2179 -0.3919  0.4439
 1402TIP3    H128401   2.706   2.903  18.803 -0.1294 -1.4943  0.5553
 1402TIP3    H228402   2.680   2.882  18.655  0.0530 -1.8783  0.5742
 1403TIP3   OH228403   1.680   7.033  18.596  0.5744 -0.3507  0.2697
 1403TIP3    H128404   1.655   7.110  18.544  2.0083  0.5251  0.8425
 1403TIP3    H228405   1.597   6.988  18.612 -0.1181  0.2741 -1.3131
 1404TIP3   OH228406   5.760   2.702  18.362  0.3065  0.0003  0.4751
 1404TIP3    H128407   5.777   2.612  18.391 -0.5008  0.0201  1.0635
 1404TIP3    H228408   5.685   2.730  18.415 -0.4020  0.5066 -0.7529
 1405TIP3   OH228409   3.542   0.162  18.177 -0.0768  0.4118  0.0536
 1405TIP3    H128410   3.548   0.224  18.103 -0.6352  1.9738  1.2684
 1405TIP3    H228411   3.450   0.161  18.200  0.1481  0.1995  0.9539
 1406TIP3   OH228412   2.666   3.426  18.255  0.3644  0.2476  0.1181
 1406TIP3    H128413   2.626   3.494  18.310  0.7031  0.6476 -0.1288
 1406TIP3    H228414   2.639   3.343  18.296  0.1613  0.5345  0.5681
 1407TIP3   OH228415   2.656   7.638  18.716  0.4079 -0.2928  0.5918
 1407TIP3    H128416   2.650   7.674  18.804 -1.4968  1.6452 -0.2343
 1407TIP3    H228417   2.570   7.598  18.701  0.6630 -0.4836 -0.4278
 1408TIP3   OH228418   4.821   3.471  18.099 -0.1747  0.8366  0.2692
 1408TIP3    H128419   4.742   3.439  18.055 -1.0302  0.2765  2.1504
 1408TIP3    H228420   4.885   3.479  18.028 -1.6276  0.4145 -1.1564
 1409TIP3   OH228421   4.843   2.778  18.501  0.6906  0.1181 -0.2344
 1409TIP3    H128422   4.795   2.857  18.525 -1.7804 -1.4194  0.1887
 1409TIP3    H228423   4.885   2.750  18.582  0.3954  0.2145 -0.0471
 1410TIP3   OH228424   6.906   4.794  19.209  0.1893 -0.0626  0.2933
 1410TIP3    H128425   6.976   4.760  19.265  1.9023 -0.9533 -2.2181
 1410TIP3    H228426   6.947   4.866  19.161 -1.1516  0.5132 -0.0342
 1411TIP3   OH228427   0.901   2.641  18.391  0.4549  0.1718 -0.2844
 1411TIP3    H128428   0.933   2.666  18.478  0.8030 -1.4924  0.1170
 1411TIP3    H228429   0.830   2.702  18.372  1.2028  1.3500  0.6129
 1412TIP3   OH228430   4.484   5.685  18.900 -0.2147 -0.0270 -0.2551
 1412TIP3    H128431   4.445   5.743  18.966 -0.5733  1.2637 -1.5628
 1412TIP3    H228432   4.412   5.664  18.840 -0.4198 -2.8907  0.8231
 1413TIP3   OH228433   2.664   4.782  17.206 -0.1169  0.2493  0.5131
 1413TIP3    H128434   2.582   4.739  17.232  0.9515 -2.6992 -0.5021
 1413TIP3    H228435   2.718   4.781  17.285 -0.4868  0.7791  0.7803
 1414TIP3   OH228436   5.520   5.152  19.338 -0.4814  0.4189 -0.3191
 1414TIP3    H128437   5.436   5.172  19.297  0.1077 -1.1337 -2.4724
 1414TIP3    H228438   5.514   5.188  19.426 -3.4092  0.3168 -0.4063
 1415TIP3   OH228439   0.784   3.359  16.470 -0.2232 -1.0913 -0.6667
 1415TIP3    H128440   0.819   3.442  16.502 -1.6321 -0.3871 -0.8647
 1415TIP3    H228441   0.751   3.315  16.549  0.9564 -1.7034 -0.4967
 1416TIP3   OH228442   1.733   2.771  17.374  0.1255  0.0528  0.2612
 1416TIP3    H128443   1.667   2.702  17.379  0.9746 -0.8769 -0.9507
 1416TIP3    H228444   1.721   2.821  17.456 -1.7635 -0.3409  0.2765
 1417TIP3   OH228445   2.976   4.346  16.522  0.0408  0.5569 -0.5433
 1417TIP3    H128446   3.030   4.424  16.509 -0.6486  1.3166  0.8688
 1417TIP3    H228447   2.907   4.354  16.456 -0.2597  1.3758 -0.1448
 1418TIP3   OH228448   5.984   3.778  19.633  0.1248 -0.0535 -0.1364
 1418TIP3    H128449   5.991   3.717  19.705 -0.5152 -0.3397 -0.3086
 1418TIP3    H228450   5.902   3.755  19.589 -0.4584  1.3200  0.1657
 1419TIP3   OH228451   5.085   1.119  18.161 -0.9142 -0.0757  0.5477
 1419TIP3    H128452   5.159   1.172  18.189  0.3945 -1.1022 -0.8397
 1419TIP3    H228453   5.009   1.178  18.169  0.0987  1.1455  1.5184
 1420TIP3   OH228454   4.032   5.769  19.394  0.2032  0.1848  0.4127
 1420TIP3    H128455   3.999   5.793  19.307  0.1129  0.2442  0.4624
 1420TIP3    H228456   3.960   5.720  19.434  0.9251 -1.5278 -0.2587
 1421TIP3   OH228457   7.151   6.713  18.548  0.0257  0.0665 -0.0067
 1421TIP3    H128458   7.124   6.670  18.629  3.0324 -0.7367  0.6810
 1421TIP3    H228459   7.153   6.643  18.482 -0.1968  0.2588 -0.2223
 1422TIP3   OH228460   0.292   0.088  17.089 -0.1866 -0.1244  0.1450
 1422TIP3    H128461   0.288   0.182  17.105 -0.3780  0.0305 -0.7487
 1422TIP3    H228462   0.258   0.078  17.000 -0.4937 -1.0774  0.3683
 1423TIP3   OH228463   2.859   5.529  16.534  0.6914 -0.5685 -0.8792
 1423TIP3    H128464   2.902   5.474  16.599  2.6512  1.7691 -0.0575
 1423TIP3    H228465   2.801   5.585  16.585 -0.3567 -1.0000 -1.5687
 1424TIP3   OH228466   3.196   5.157  19.128  0.3784 -0.2088 -0.3331
 1424TIP3    H128467   3.269   5.100  19.151  0.2276 -0.2608  0.0234
 1424TIP3    H228468   3.129   5.137  19.193  0.0282 -0.1954 -0.6835
 1425TIP3   OH228469   3.950   3.601  17.495  0.6328 -0.4147 -0.7272
 1425TIP3    H128470   3.874   3.633  17.445  0.4855  0.8647  0.2505
 1425TIP3    H228471   3.935   3.633  17.584  1.2683 -1.9958 -0.0288
 1426TIP3   OH228472   4.933   3.627  18.274  0.2524  0.2222  0.8334
 1426TIP3    H128473   4.872   3.573  18.224 -0.7676  1.9214  0.1499
 1426TIP3    H228474   4.877   3.689  18.322  1.3983  1.5010  0.5862
 1427TIP3   OH228475   4.474   3.534  17.772 -0.2293  0.0853 -0.4743
 1427TIP3    H128476   4.485   3.605  17.835 -1.2526 -0.2231  0.0726
 1427TIP3    H228477   4.389   3.552  17.731 -0.6324 -0.9691 -0.1319
 1428TIP3   OH228478   5.468   2.406  19.021 -0.7701  0.5517  0.5095
 1428TIP3    H128479   5.470   2.341  19.091  0.8314 -0.7112 -0.6266
 1428TIP3    H228480   5.442   2.357  18.943  2.3363  0.7224 -0.7952
 1429TIP3   OH228481   7.428   1.443  18.461 -0.1502 -0.0364 -0.0089
 1429TIP3    H128482   7.459   1.433  18.551  0.0343  1.8256  0.1741
 1429TIP3    H228483   7.373   1.367  18.446 -0.5142 -0.1752  1.8238
 1430TIP3   OH228484   2.689   7.664  18.417 -0.4162  0.2536  0.0823
 1430TIP3    H128485   2.768   7.719  18.411 -0.1125 -0.0891  0.8224
 1430TIP3    H228486   2.680   7.645  18.510 -0.8732 -0.4467 -0.0980
 1431TIP3   OH228487   0.565   1.115  18.176  0.5998 -0.3681 -0.2023
 1431TIP3    H128488   0.629   1.088  18.242 -0.0899  0.3186  0.7786
 1431TIP3    H228489   0.550   1.208  18.194 -0.8694 -0.5812 -0.2107
 1432TIP3   OH228490   2.664   1.763  18.720 -0.4539 -0.3122  0.4342
 1432TIP3    H128491   2.659   1.787  18.812  0.6236  0.2308  0.3676
 1432TIP3    H228492   2.693   1.844  18.676  0.2840 -0.9092 -0.2043
 1433TIP3   OH228493   6.241   6.520  17.557  0.2488 -0.9059  0.2207
 1433TIP3    H128494   6.153   6.518  17.521  0.7152 -1.2588 -0.9485
 1433TIP3    H228495   6.250   6.608  17.594 -0.5924 -0.8703  0.3520
 1434TIP3   OH228496   3.208   2.798  18.250 -0.0843 -0.5067  0.1505
 1434TIP3    H128497   3.272   2.743  18.297  0.3547 -0.0320  0.1217
 1434TIP3    H228498   3.131   2.742  18.239  0.0276 -0.8213  0.9148
 1435TIP3   OH228499   4.281   0.372  18.292 -0.7625  0.5743 -0.4312
 1435TIP3    H128500   4.285   0.327  18.208 -2.7600 -1.0289  0.2617
 1435TIP3    H228501   4.201   0.425  18.287  0.2644  2.2163 -0.3101
 1436TIP3   OH228502   7.017   4.472  17.957  0.5034 -0.6241 -0.0078
 1436TIP3    H128503   7.113   4.470  17.967  0.6537 -1.3738 -1.3830
 1436TIP3    H228504   7.002   4.448  17.866 -0.9636  0.6465 -0.1368
 1437TIP3   OH228505   1.678   2.538  18.210  0.4236 -0.1562 -0.3148
 1437TIP3    H128506   1.633   2.582  18.138  0.6551  1.0666  0.2607
 1437TIP3    H228507   1.618   2.544  18.284  0.5673 -0.5910 -0.1548
 1438TIP3   OH228508   4.636   7.033  17.780  0.4725 -0.1459 -0.2535
 1438TIP3    H128509   4.678   7.117  17.760  0.3450  0.1503  0.6564
 1438TIP3    H228510   4.668   7.011  17.868 -2.2181  0.7371  1.0529
 1439TIP3   OH228511   5.889   2.038  18.395 -0.6651 -0.0728  0.4875
 1439TIP3    H128512   5.881   2.083  18.479 -0.5549 -1.2630  1.1596
 1439TIP3    H228513   5.846   2.097  18.333  0.5479  1.5286  1.0948
 1440TIP3   OH228514   0.574   4.099  18.838  0.0697  0.7736 -0.0876
 1440TIP3    H128515   0.577   4.069  18.747  0.4704 -1.2119  0.5384
 1440TIP3    H228516   0.661   4.079  18.873 -0.3513  0.7110  0.9668
 1441TIP3   OH228517   2.079   5.962  19.034 -0.0928 -0.0378  0.0264
 1441TIP3    H128518   2.163   5.996  19.001  0.0165 -0.8958 -0.6052
 1441TIP3    H228519   2.085   5.867  19.021 -1.4593 -0.0399 -0.7176
 1442TIP3   OH228520   0.370   6.345  18.202 -0.2882  0.3918 -0.4455
 1442TIP3    H128521   0.434   6.385  18.261 -1.6629  0.2990  1.1957
 1442TIP3    H228522   0.423   6.306  18.132  1.2512  2.8238 -0.7611
 1443TIP3   OH228523   3.475   1.835  19.433  0.3454  0.3135 -0.5774
 1443TIP3    H128524   3.380   1.820  19.427  0.1194  1.2737  0.4445
 1443TIP3    H228525   3.512   1.748  19.448 -0.4749  0.0614  0.0565
 1444TIP3   OH228526   6.135   1.578  18.296  0.3386  0.4403  0.2590
 1444TIP3    H128527   6.186   1.654  18.326 -0.6546  1.6037 -0.8453
 1444TIP3    H228528   6.044   1.609  18.296 -0.1674 -0.9733  0.3744
 1445TIP3   OH228529   1.907   7.019  17.794  0.0009 -0.1698 -0.3933
 1445TIP3    H128530   1.851   6.996  17.868 -1.7868 -0.4080 -1.7518
 1445TIP3    H228531   1.986   7.054  17.834 -0.2244 -1.7929  1.6388
 1446TIP3   OH228532   0.723   4.493  16.668  0.4163  0.1744  0.2505
 1446TIP3    H128533   0.735   4.540  16.586 -1.2577 -0.8076 -0.6153
 1446TIP3    H228534   0.733   4.401  16.645  1.7089 -0.0498  1.5333
 1447TIP3   OH228535   5.364   5.871  19.264  0.4494  0.1862 -0.1572
 1447TIP3    H128536   5.374   5.965  19.247 -1.0584  1.0749  2.9896
 1447TIP3    H228537   5.450   5.843  19.295  0.6292  0.8420 -0.0349
 1448TIP3   OH228538   3.246   0.588  18.661  0.1691 -0.3844 -0.1756
 1448TIP3    H128539   3.302   0.646  18.609  2.6623 -1.7218  0.8869
 1448TIP3    H228540   3.232   0.636  18.743 -2.2414  0.9169 -1.2274
 1449TIP3   OH228541   7.484   5.512  18.208  0.1007  0.4736 -0.0055
 1449TIP3    H128542   7.518   5.446  18.148  2.2550  1.4999 -0.0408
 1449TIP3    H228543   7.515   5.483  18.294 -1.4509 -0.0481  0.4157
 1450TIP3   OH228544   1.166   2.238  17.672  0.2009  0.0081 -0.1273
 1450TIP3    H128545   1.186   2.330  17.692 -0.2965  0.4272 -1.4530
 1450TIP3    H228546   1.077   2.226  17.705  0.4291 -0.1433  0.4501
 1451TIP3   OH228547   7.449   5.892  19.010  0.1631  0.0620 -0.0418
 1451TIP3    H128548   7.412   5.805  18.995 -0.0408 -0.2760  2.0463
 1451TIP3    H228549   7.503   5.882  19.088  1.1418  1.5523 -0.4815
 1452TIP3   OH228550   1.204   0.692  18.423  0.2183 -0.1347  0.0415
 1452TIP3    H128551   1.241   0.734  18.501  1.9690  1.0589 -1.3368
 1452TIP3    H228552   1.250   0.608  18.418  0.9025  0.2469 -0.2632
 1453TIP3   OH228553   4.757   1.306  18.128  0.0324 -0.4080 -0.5059
 1453TIP3    H128554   4.706   1.296  18.208 -0.4941 -1.2456 -0.9341
 1453TIP3    H228555   4.848   1.298  18.156 -0.1146 -0.0698  0.0912
 1454TIP3   OH228556   1.066   0.239  16.989 -0.0581  0.1221  0.3006
 1454TIP3    H128557   0.990   0.185  16.969 -0.7553  0.6903  1.3304
 1454TIP3    H228558   1.049   0.322  16.946  0.1665  0.1140  0.1963
 1455TIP3   OH228559   3.975   0.609  18.080  0.0066 -0.7532 -0.1437
 1455TIP3    H128560   3.921   0.686  18.098  1.1392 -0.4731  2.5345
 1455TIP3    H228561   4.023   0.593  18.162  1.2312 -3.1840 -1.2143
 1456TIP3   OH228562   7.637   1.953  18.637 -0.4620  0.1751  0.0252
 1456TIP3    H128563   7.573   1.884  18.654  0.1335 -0.4294 -0.1316
 1456TIP3    H228564   7.665   1.981  18.724 -0.9684  0.4728  0.0946
 1457TIP3   OH228565   4.941   3.478  17.865 -0.0701 -0.2155 -0.5441
 1457TIP3    H128566   5.005   3.407  17.868  1.4801  1.1772  1.8235
 1457TIP3    H228567   4.966   3.529  17.787 -0.8133 -1.8415 -1.8993
 1458TIP3   OH228568   2.870   2.462  18.640 -0.1079 -0.1293 -0.0530
 1458TIP3    H128569   2.899   2.545  18.603 -2.2249  0.3955 -0.6872
 1458TIP3    H228570   2.839   2.411  18.565 -1.1957 -0.4459  0.5817
 1459TIP3   OH228571   3.305   2.821  18.649  0.4828 -0.2517  0.0740
 1459TIP3    H128572   3.218   2.822  18.610  0.3777  1.4405  0.2622
 1459TIP3    H228573   3.308   2.742  18.702 -0.4953 -0.9512 -0.8910
 1460TIP3   OH228574   0.574   4.656  17.163 -0.2414  0.0559  0.5971
 1460TIP3    H128575   0.494   4.707  17.150 -0.4677 -0.3988  0.1578
 1460TIP3    H228576   0.551   4.591  17.229  0.2998  1.0446  1.8105
 1461TIP3   OH228577   3.825   0.196  19.418 -0.1899  0.8112 -0.2136
 1461TIP3    H128578   3.880   0.274  19.408 -0.3979  1.1623  1.2078
 1461TIP3    H228579   3.781   0.208  19.502 -1.6481  0.0331 -0.8260
 1462TIP3   OH228580   3.601   1.079  18.274 -0.2516  0.0802  0.4802
 1462TIP3    H128581   3.619   1.084  18.180 -0.1060 -0.2681  0.4912
 1462TIP3    H228582   3.673   1.127  18.315 -1.0442  1.4411  0.3404
 1463TIP3   OH228583   3.290   7.431  18.784 -0.0654  0.3236  0.5512
 1463TIP3    H128584   3.385   7.434  18.771  0.0816  0.1713  1.5477
 1463TIP3    H228585   3.261   7.521  18.774  0.2245  0.4164  0.5419
 1464TIP3   OH228586   0.305   6.009  18.199  0.7148 -0.3785  0.2365
 1464TIP3    H128587   0.393   5.983  18.170  1.0055  0.4009  0.4115
 1464TIP3    H228588   0.318   6.044  18.287  0.1605 -0.6546  0.4337
 1465TIP3   OH228589   4.501   6.318  17.004  0.0313 -0.1616  0.5170
 1465TIP3    H128590   4.544   6.270  16.933  0.2323  0.5600  0.1373
 1465TIP3    H228591   4.512   6.410  16.981  0.6797  0.1118  1.8195
 1466TIP3   OH228592   3.767   7.186  19.216 -0.8439 -0.5396 -0.2137
 1466TIP3    H128593   3.789   7.278  19.200  0.4450 -0.8250 -0.2442
 1466TIP3    H228594   3.840   7.154  19.270 -0.8734 -1.7374 -0.8611
 1467TIP3   OH228595   3.965   3.080  18.497  0.1604  0.0011  0.7204
 1467TIP3    H128596   3.996   3.167  18.523  0.5923  0.1721 -0.3397
 1467TIP3    H228597   3.897   3.098  18.432 -0.3534 -0.4449  1.1280
 1468TIP3   OH228598   5.497   2.935  18.967  0.3264 -0.5103  0.3659
 1468TIP3    H128599   5.440   2.944  18.891 -0.5954  1.3941  1.2289
 1468TIP3    H228600   5.445   2.884  19.030 -0.6596  1.4945  1.2757
 1469TIP3   OH228601   3.437   3.096  19.498  0.2502 -0.4557 -0.4778
 1469TIP3    H128602   3.359   3.108  19.444 -1.7672 -0.5021  2.2047
 1469TIP3    H228603   3.439   3.002  19.516  1.1717 -0.5114 -0.8444
 1470TIP3   OH228604   5.553   5.843  17.904 -0.5841  0.0958  0.1193
 1470TIP3    H128605   5.537   5.769  17.845  0.7229 -0.8312  0.8795
 1470TIP3    H228606   5.506   5.819  17.984 -1.1024  0.6347 -0.0229
 1471TIP3   OH228607   7.213   2.032  18.652 -0.2279 -0.4550 -0.2723
 1471TIP3    H128608   7.149   2.061  18.717  1.7755  2.8032  0.4119
 1471TIP3    H228609   7.160   1.983  18.589 -2.9851  0.0081  1.4727
 1472TIP3   OH228610   4.833   3.011  18.239  0.1016  0.4732 -0.0715
 1472TIP3    H128611   4.771   3.030  18.309 -0.4047  3.0773 -1.1161
 1472TIP3    H228612   4.899   2.955  18.280 -1.3517  0.0746  1.8527
 1473TIP3   OH228613   2.051   6.799  17.207  0.0132  0.1362  0.1895
 1473TIP3    H128614   2.138   6.781  17.171 -0.0711  0.0759  0.0149
 1473TIP3    H228615   2.050   6.893  17.222 -0.7750  0.5833 -2.2045
 1474TIP3   OH228616   2.674   3.619  17.759 -0.0473  0.3142 -0.2470
 1474TIP3    H128617   2.769   3.609  17.761 -0.0464  0.3080 -0.3126
 1474TIP3    H228618   2.644   3.592  17.846 -0.1122 -0.9156 -0.6322
 1475TIP3   OH228619   0.177   2.024  19.139 -0.0830 -0.2398 -0.4149
 1475TIP3    H128620   0.246   2.082  19.169  1.6200 -1.0549 -2.5038
 1475TIP3    H228621   0.174   1.954  19.203  0.2185  0.3859  0.2927
 1476TIP3   OH228622   5.527   3.156  18.035 -0.9670  0.4499  0.3472
 1476TIP3    H128623   5.503   3.230  17.979 -0.5562  0.4362  0.1482
 1476TIP3    H228624   5.448   3.102  18.037 -0.9516  0.3822 -0.3371
 1477TIP3   OH228625   3.119   0.255  18.359  0.3093  0.2421 -0.3723
 1477TIP3    H128626   3.176   0.188  18.398  0.3647  0.8637  0.6645
 1477TIP3    H228627   3.139   0.335  18.409 -1.5081  0.4674  0.0704
 1478TIP3   OH228628   4.437   5.890  17.802  0.1943  0.4368  0.4933
 1478TIP3    H128629   4.516   5.859  17.846 -0.2745  0.2565  1.2291
 1478TIP3    H228630   4.370   5.824  17.822  0.6159 -1.2209 -2.9056
 1479TIP3   OH228631   6.063   6.925  19.288  0.1539  0.1975 -0.0207
 1479TIP3    H128632   6.023   6.965  19.212  0.4021  1.0555  0.2957
 1479TIP3    H228633   6.155   6.949  19.283  0.0568  0.8494  0.9016
 1480TIP3   OH228634   0.086   2.529  17.185 -0.0439 -0.8755  0.3487
 1480TIP3    H128635   0.089   2.585  17.263  0.0076 -1.6688  0.9297
 1480TIP3    H228636  -0.005   2.534  17.156 -0.0937 -0.6711  0.5335
 1481TIP3   OH228637   5.728   1.221  19.329 -0.4778 -0.0383  0.3958
 1481TIP3    H128638   5.681   1.138  19.326 -0.5896  0.0444 -0.8890
 1481TIP3    H228639   5.670   1.280  19.378 -0.1723 -0.8339  1.7457
 1482TIP3   OH228640   3.331   1.979  17.668  0.1856 -0.4964  0.2147
 1482TIP3    H128641   3.297   2.010  17.584  0.3688  0.0666  0.3443
 1482TIP3    H228642   3.273   2.017  17.734  0.1000 -0.8563  0.3490
 1483TIP3   OH228643   2.705   3.286  18.028  0.1167 -0.1259 -0.4111
 1483TIP3    H128644   2.794   3.320  18.019 -0.1132  0.2459 -1.3289
 1483TIP3    H228645   2.662   3.347  18.088  0.5017 -0.3666  0.1204
 1484TIP3   OH228646   4.629   1.795  19.121  0.2130  0.1170  0.4971
 1484TIP3    H128647   4.541   1.771  19.091  0.7540 -2.1132  0.5869
 1484TIP3    H228648   4.614   1.868  19.181 -1.3687  1.1865 -1.0742
 1485TIP3   OH228649   1.230   3.223  18.940  1.2511  0.1076 -0.0636
 1485TIP3    H128650   1.196   3.160  18.877  0.9387  0.7337 -0.5368
 1485TIP3    H228651   1.317   3.190  18.963  0.9398 -0.6952  0.0015
 1486TIP3   OH228652   5.572   0.924  18.654 -0.1849 -0.7514  0.1904
 1486TIP3    H128653   5.659   0.885  18.658 -0.3132 -0.9920  3.8108
 1486TIP3    H228654   5.512   0.853  18.676 -1.3823 -0.5787 -2.2061
 1487TIP3   OH228655   6.869   5.112  18.492 -0.1117 -0.1494 -0.9228
 1487TIP3    H128656   6.838   5.022  18.478  1.0182 -0.9491  1.1409
 1487TIP3    H228657   6.941   5.123  18.430  0.1896 -0.9402 -0.7266
 1488TIP3   OH228658   0.592   6.299  18.023 -0.3396  0.4581 -0.8554
 1488TIP3    H128659   0.674   6.265  17.988 -0.7299 -1.0151 -0.3975
 1488TIP3    H228660   0.526   6.272  17.959 -1.0799 -2.3715  0.9532
 1489TIP3   OH228661   2.186   0.716  18.524  0.5245  0.2444 -0.0984
 1489TIP3    H128662   2.112   0.713  18.584  0.9347 -0.7891  0.3826
 1489TIP3    H228663   2.146   0.717  18.437 -0.0741 -1.1639  0.1343
 1490TIP3   OH228664   2.159   3.133  18.536 -0.0675  0.1822  0.5055
 1490TIP3    H128665   2.087   3.143  18.599  0.3152 -1.5511  1.2756
 1490TIP3    H228666   2.222   3.077  18.581  0.8544  0.0320 -0.9250
 1491TIP3   OH228667   3.766   1.557  18.832  0.4678  0.2165 -0.4008
 1491TIP3    H128668   3.841   1.580  18.776  1.4888 -0.4834  0.6340
 1491TIP3    H228669   3.772   1.462  18.842 -1.1852 -0.0041 -1.1289
 1492TIP3   OH228670   4.161   7.143  19.462 -0.3927 -0.0640 -0.5122
 1492TIP3    H128671   4.257   7.144  19.467 -0.3532  2.1083 -0.8582
 1492TIP3    H228672   4.134   7.083  19.532  1.2202 -1.6254 -1.1561
 1493TIP3   OH228673   3.213   2.182  18.990 -0.0058  0.1730  0.3852
 1493TIP3    H128674   3.208   2.086  18.982  1.1175  0.2111 -1.5475
 1493TIP3    H228675   3.303   2.202  18.964 -0.0554  1.7242  1.3363
 1494TIP3   OH228676   2.598   7.506  19.123 -0.1661  0.3024  0.2126
 1494TIP3    H128677   2.543   7.492  19.200 -0.4898 -0.5379 -0.1517
 1494TIP3    H228678   2.678   7.546  19.157 -0.1009 -0.5104  1.0693
 1495TIP3   OH228679   7.289   4.570  18.678  0.3008  0.0783  0.4266
 1495TIP3    H128680   7.323   4.649  18.720 -0.4943  0.2667  0.7381
 1495TIP3    H228681   7.366   4.524  18.645  0.8156  0.6694  0.8082
 1496TIP3   OH228682   4.643   3.024  18.781 -0.4247 -0.6360 -0.7817
 1496TIP3    H128683   4.692   3.044  18.861 -0.4144  0.3464 -1.0257
 1496TIP3    H228684   4.572   2.967  18.810 -0.4660 -0.2307 -0.0565
 1497TIP3   OH228685   3.094   2.107  17.762  0.3357 -0.0332 -0.5027
 1497TIP3    H128686   3.119   2.199  17.771 -0.1284 -0.0176  0.9739
 1497TIP3    H228687   3.020   2.107  17.701 -1.0576  0.8789  1.0789
 1498TIP3   OH228688   5.324   7.181  17.595 -0.1386  0.2070  0.3447
 1498TIP3    H128689   5.394   7.194  17.531  0.0445 -1.6051  0.1242
 1498TIP3    H228690   5.254   7.240  17.566  0.4927  0.4750 -0.6778
 1499TIP3   OH228691   5.759   0.578  18.223 -0.0420  0.6550  0.2136
 1499TIP3    H128692   5.668   0.562  18.197  0.1168 -0.9095  0.5336
 1499TIP3    H228693   5.799   0.491  18.222  0.9074  1.0285  2.1275
 1500TIP3   OH228694   2.266   5.069  18.839 -0.5262 -0.2099 -0.0515
 1500TIP3    H128695   2.318   5.089  18.761  0.2754 -0.8505  0.3103
 1500TIP3    H228696   2.226   5.153  18.863  0.1925  0.2494 -0.4376
 1501TIP3   OH228697   2.647   5.959  18.454  0.6034  0.3856  0.1322
 1501TIP3    H128698   2.658   6.032  18.514  2.0193  1.0789 -0.9042
 1501TIP3    H228699   2.734   5.918  18.449  0.0984 -0.6982 -0.1357
 1502TIP3   OH228700   5.558   2.762  19.395  0.1723 -0.1429 -0.7236
 1502TIP3    H128701   5.517   2.848  19.389 -0.1290 -0.3747 -2.5042
 1502TIP3    H228702   5.633   2.766  19.336  0.6033 -0.8838 -0.2535
 1503TIP3   OH228703   1.737   6.081  18.392  0.1950  0.0682  0.1559
 1503TIP3    H128704   1.807   6.077  18.327  2.1755  0.8908  2.1177
 1503TIP3    H228705   1.707   6.172  18.390  1.5370  0.5897  1.5664
 1504TIP3   OH228706   3.236   0.437  17.346 -0.5129 -0.2330  0.0316
 1504TIP3    H128707   3.257   0.399  17.261 -1.2350 -1.7913  0.4963
 1504TIP3    H228708   3.188   0.517  17.326  1.1661  0.5538 -0.9989
 1505TIP3   OH228709   3.606   5.140  18.027 -0.4836  0.0053 -0.1830
 1505TIP3    H128710   3.635   5.095  17.948 -1.3921  0.6504 -0.8943
 1505TIP3    H228711   3.583   5.228  17.999 -2.3030 -0.2101  0.4814
 1506TIP3   OH228712   2.544   0.750  19.407 -0.1976 -0.3429  0.4866
 1506TIP3    H128713   2.575   0.750  19.497 -2.0214 -0.0304  1.1632
 1506TIP3    H228714   2.569   0.664  19.372  0.4466 -0.4966  1.3147
 1507TIP3   OH228715   1.384   1.859  18.854 -0.3755  0.0689 -0.0270
 1507TIP3    H128716   1.384   1.952  18.828  0.5127  0.2252  0.5185
 1507TIP3    H228717   1.455   1.852  18.917 -0.4756 -0.9837 -0.0272
 1508TIP3   OH228718   4.556   3.483  16.498 -0.3970  0.1346  0.3785
 1508TIP3    H128719   4.616   3.412  16.479  1.2273  1.5045  0.1560
 1508TIP3    H228720   4.469   3.442  16.500 -0.0033 -1.2411 -3.4830
 1509TIP3   OH228721   6.751   0.474  18.189 -0.2558  0.2933 -0.3978
 1509TIP3    H128722   6.703   0.392  18.183  0.1644 -0.0351  0.5120
 1509TIP3    H228723   6.822   0.464  18.125 -2.0604  1.3098 -2.7293
 1510TIP3   OH228724   3.552   0.601  18.138  0.3649  0.0840  0.4091
 1510TIP3    H128725   3.511   0.522  18.172 -2.2242  1.5497  0.9426
 1510TIP3    H228726   3.558   0.587  18.044  1.0216 -1.1749  0.6201
 1511TIP3   OH228727   3.956   1.672  18.639 -0.1389  0.0715 -0.2253
 1511TIP3    H128728   3.996   1.755  18.668 -2.0408  0.8645  0.2575
 1511TIP3    H228729   3.893   1.698  18.572 -2.1070 -0.7435  1.2343
 1512TIP3   OH228730   1.533   4.891  19.597  0.3957 -0.0568 -0.3396
 1512TIP3    H128731   1.604   4.945  19.562  0.8628 -0.4587 -0.0189
 1512TIP3    H228732   1.454   4.937  19.571  0.7343  3.0196  3.2701
 1513TIP3   OH228733   2.742   2.014  18.612 -1.0012  0.3246  0.6145
 1513TIP3    H128734   2.835   2.013  18.588 -1.4623  0.5109 -1.3498
 1513TIP3    H228735   2.738   2.070  18.690  0.4686  0.7773  0.3959
 1514TIP3   OH228736   7.200   3.027  18.512  0.0693  0.3764  0.3468
 1514TIP3    H128737   7.120   2.976  18.517  0.7484 -0.6975  0.6639
 1514TIP3    H228738   7.204   3.057  18.421 -0.7449  0.5555  0.3648
 1515TIP3   OH228739   7.394   5.081  18.714  0.0822 -0.0838 -0.0602
 1515TIP3    H128740   7.446   5.017  18.665 -0.7296 -0.1935 -0.7833
 1515TIP3    H228741   7.459   5.129  18.766  0.9613  0.0652 -1.2704
 1516TIP3   OH228742   2.376   5.295  18.020  0.5739  0.2302  0.1577
 1516TIP3    H128743   2.429   5.216  18.034 -0.7081 -0.4649  1.4479
 1516TIP3    H228744   2.287   5.267  18.043 -0.0193  1.8887 -0.0229
 1517TIP3   OH228745   2.340   3.502  19.079  0.6641  0.5391 -0.4858
 1517TIP3    H128746   2.270   3.488  19.142  1.5170  0.2345  0.4226
 1517TIP3    H228747   2.335   3.595  19.057  1.7869  1.2102  1.8209
 1518TIP3   OH228748   2.712   7.387  18.374 -0.7503 -0.2264  0.0374
 1518TIP3    H128749   2.705   7.477  18.407  0.5272  0.1937 -0.7657
 1518TIP3    H228750   2.622   7.354  18.375 -1.6683  1.9440 -2.0824
 1519TIP3   OH228751   1.512   1.612  17.103 -0.0988 -0.1382  0.2542
 1519TIP3    H128752   1.472   1.655  17.179 -0.1569 -1.1657  0.8185
 1519TIP3    H228753   1.602   1.645  17.103 -0.7664  1.8950 -0.8045
 1520TIP3   OH228754   7.184   1.700  18.968 -0.6151 -0.4196 -0.2486
 1520TIP3    H128755   7.214   1.753  19.042 -0.2189 -1.6852  0.5340
 1520TIP3    H228756   7.101   1.740  18.941 -0.9263 -0.1100  1.0941
 1521TIP3   OH228757   4.800   7.672  19.225  0.1938  0.0488  0.5191
 1521TIP3    H128758   4.742   7.598  19.239  0.7046 -0.3496  0.5304
 1521TIP3    H228759   4.877   7.636  19.181 -0.6185  0.9694 -1.8016
 1522TIP3   OH228760   7.665   7.067  18.707  0.7399  0.0846  0.2376
 1522TIP3    H128761   7.570   7.065  18.721  0.3172  1.1821 -2.0431
 1522TIP3    H228762   7.688   6.976  18.686 -0.2462  0.1623 -1.3724
 1523TIP3   OH228763   7.278   2.161  18.193 -0.3191 -0.8111 -0.0882
 1523TIP3    H128764   7.312   2.072  18.180 -0.5208 -1.2034  1.7212
 1523TIP3    H228765   7.333   2.216  18.138  1.4861 -1.7733  0.6468
 1524TIP3   OH228766   3.368   2.268  19.259  0.0149  0.2183  0.0580
 1524TIP3    H128767   3.372   2.276  19.163 -0.5186 -0.1605  0.0002
 1524TIP3    H228768   3.401   2.352  19.291 -0.0892  0.4630 -0.4635
 1525TIP3   OH228769   3.252   4.462  17.919  0.0162  0.2137  0.3635
 1525TIP3    H128770   3.257   4.557  17.909 -0.1382  0.0387 -1.7379
 1525TIP3    H228771   3.330   4.439  17.971  1.2476  1.2864 -0.9472
 1526TIP3   OH228772   5.369   7.179  19.473 -0.0994  0.3588  0.0280
 1526TIP3    H128773   5.430   7.241  19.515 -1.1759  0.2957  1.7786
 1526TIP3    H228774   5.403   7.093  19.496 -1.3178  0.3207  1.7881
 1527TIP3   OH228775   1.331   2.653  16.943  0.3727 -0.2594 -0.1279
 1527TIP3    H128776   1.247   2.684  16.977 -0.1665 -1.1737 -0.5949
 1527TIP3    H228777   1.340   2.564  16.977  1.0994 -0.2116 -0.1801
 1528TIP3   OH228778   1.548   7.532  16.806 -0.2201 -0.8789 -0.5849
 1528TIP3    H128779   1.581   7.592  16.872 -0.1552 -2.0638  0.4928
 1528TIP3    H228780   1.603   7.548  16.729 -0.8170  1.0887 -0.6644
 1529TIP3   OH228781   1.001   2.737  18.635 -0.1191  0.6014  0.4756
 1529TIP3    H128782   1.087   2.759  18.670  0.4433 -0.2701 -0.3063
 1529TIP3    H228783   0.964   2.675  18.699  1.3386 -1.8184 -0.8545
 1530TIP3   OH228784   5.867   7.132  17.688  0.2655 -0.4055  0.0934
 1530TIP3    H128785   5.868   7.205  17.750  0.4531 -0.5424  0.2501
 1530TIP3    H228786   5.774   7.116  17.671  0.0497  3.0715 -3.6705
 1531TIP3   OH228787   6.715   3.207  19.681 -0.1628 -0.4079 -0.5975
 1531TIP3    H128788   6.677   3.192  19.768  2.3818 -0.1044  0.6549
 1531TIP3    H228789   6.748   3.121  19.655  1.8196  0.0677  0.1891
 1532TIP3   OH228790   4.617   1.948  17.613 -0.0983  0.1884  0.6696
 1532TIP3    H128791   4.542   1.921  17.559 -2.2918  2.4432  2.3351
 1532TIP3    H228792   4.600   1.911  17.699  1.0494  0.2220  0.9269
 1533TIP3   OH228793   3.563   1.841  17.689  0.1365  0.5568  0.2522
 1533TIP3    H128794   3.481   1.889  17.676  0.2772  0.3898 -1.4569
 1533TIP3    H228795   3.587   1.810  17.602  1.2289 -0.7150  0.9742
 1534TIP3   OH228796   2.766   4.990  17.071  0.1217  0.5069 -0.1831
 1534TIP3    H128797   2.851   4.951  17.052 -0.3472 -0.5508 -0.1727
 1534TIP3    H228798   2.723   4.928  17.130  0.2212  2.1135  1.6980
 1535TIP3   OH228799   2.312   0.810  19.246 -0.3083 -0.5829 -0.5053
 1535TIP3    H128800   2.368   0.778  19.317  0.1353  0.4855 -0.3476
 1535TIP3    H228801   2.225   0.776  19.267 -0.2144 -0.1860  0.6351
 1536TIP3   OH228802   5.129   0.465  19.312  0.0812  0.4568 -0.9814
 1536TIP3    H128803   5.051   0.469  19.368  0.9157 -0.0868  0.2603
 1536TIP3    H228804   5.115   0.387  19.258  1.0282 -1.4077  1.2785
 1537TIP3   OH228805   2.792   7.653  17.484  0.0272  0.0959  0.1022
 1537TIP3    H128806   2.729   7.675  17.554  0.4879  2.1007 -0.0464
 1537TIP3    H228807   2.753   7.577  17.441 -1.6382  0.4521  0.8587
 1538TIP3   OH228808   6.091   4.467  19.132 -0.6652 -0.0866 -0.0749
 1538TIP3    H128809   6.036   4.389  19.141 -0.3167 -0.2825  0.3590
 1538TIP3    H228810   6.104   4.475  19.037 -0.4452 -0.7404 -0.1097
 1539TIP3   OH228811   1.913   6.060  18.797 -0.6493 -0.4573  0.3216
 1539TIP3    H128812   1.933   6.022  18.882 -0.4175  0.2255  0.5800
 1539TIP3    H228813   1.951   6.148  18.800  1.9196 -1.3801 -1.5384
 1540TIP3   OH228814   6.190   3.162  17.739  0.1734  0.0200 -0.5807
 1540TIP3    H128815   6.098   3.148  17.759 -0.3209  1.9850 -1.2827
 1540TIP3    H228816   6.226   3.203  17.818  0.8842 -2.1330  0.2997
 1541TIP3   OH228817   0.270   2.778  17.887  0.1741  0.2464  0.1489
 1541TIP3    H128818   0.290   2.792  17.979 -0.3448 -1.5762  0.5806
 1541TIP3    H228819   0.221   2.696  17.885  0.4469  0.0800 -1.7820
 1542TIP3   OH228820   6.120   5.191  18.532 -0.4417 -0.6297  0.8320
 1542TIP3    H128821   6.160   5.216  18.615 -2.4955  0.5868  1.5376
 1542TIP3    H228822   6.174   5.233  18.465  1.4160 -1.8753  1.4815
 1543TIP3   OH228823   6.513   1.122  18.944  0.4375  0.7627 -0.4351
 1543TIP3    H128824   6.527   1.217  18.950 -1.0264  0.9595  0.4921
 1543TIP3    H228825   6.433   1.114  18.891 -0.2620  0.1442  0.6746
 1544TIP3   OH228826   6.416   5.564  18.642 -0.5510 -0.1562 -0.5894
 1544TIP3    H128827   6.448   5.489  18.691 -0.1860 -0.3437 -1.1082
 1544TIP3    H228828   6.368   5.617  18.706 -0.1135 -0.4156 -0.0533
 1545TIP3   OH228829   2.336   5.368  17.766  0.3706 -0.7376  0.6919
 1545TIP3    H128830   2.402   5.325  17.713 -0.0102 -0.0531 -0.3762
 1545TIP3    H228831   2.377   5.377  17.852  2.4190  1.2530 -0.3724
 1546TIP3   OH228832   6.321   1.086  17.847 -0.5965  0.1225  0.1577
 1546TIP3    H128833   6.291   1.001  17.812 -0.6793  0.3423 -0.3154
 1546TIP3    H228834   6.392   1.063  17.906 -2.1250 -0.4923  1.8680
 1547TIP3   OH228835   3.853   5.904  19.171 -0.3369  0.5007  0.2487
 1547TIP3    H128836   3.836   5.918  19.078 -1.7544  1.8997  0.6731
 1547TIP3    H228837   3.864   5.992  19.207  0.5540 -0.0318  1.3601
 1548TIP3   OH228838   0.791   6.577  17.780 -0.0720 -0.5310 -0.0441
 1548TIP3    H128839   0.800   6.484  17.761 -1.0439 -0.5470 -0.4970
 1548TIP3    H228840   0.703   6.586  17.815 -0.0252  0.2353 -0.1040
 1549TIP3   OH228841   0.407   2.344  17.149 -0.2294 -0.0546  0.0240
 1549TIP3    H128842   0.344   2.338  17.077 -0.9515  0.4997  0.5870
 1549TIP3    H228843   0.393   2.264  17.201  0.0242 -0.2704 -0.2392
 1550TIP3   OH228844   6.312   6.535  17.134 -0.2686  0.0626 -0.1789
 1550TIP3    H128845   6.353   6.484  17.064 -1.3439 -0.4091 -0.4911
 1550TIP3    H228846   6.219   6.516  17.126 -0.2946 -1.7571  2.7245
 1551TIP3   OH228847   1.974   7.325  18.080 -0.1776 -0.1602 -0.3899
 1551TIP3    H128848   2.053   7.374  18.103  0.3042 -0.6735 -0.9211
 1551TIP3    H228849   1.907   7.358  18.140  0.1692  1.0429 -0.6333
 1552TIP3   OH228850   3.532   1.166  18.899  0.1926  0.0951 -0.3602
 1552TIP3    H128851   3.503   1.084  18.860 -0.4976  0.5722 -0.8565
 1552TIP3    H228852   3.504   1.161  18.991  0.0772 -0.1795 -0.4115
 1553TIP3   OH228853   5.299   1.195  18.301 -0.3873 -0.1008  0.1534
 1553TIP3    H128854   5.254   1.142  18.368 -0.4604 -0.2447 -0.0059
 1553TIP3    H228855   5.314   1.279  18.343  0.6101 -0.5623  0.7536
 1554TIP3   OH228856   0.613   4.490  18.619  0.0354  0.0366  0.0476
 1554TIP3    H128857   0.621   4.397  18.597  1.7271  0.3708 -1.0069
 1554TIP3    H228858   0.662   4.534  18.549 -0.0462  1.6576  0.9798
 1555TIP3   OH228859   1.425   4.318  17.310 -0.2152 -0.2191  0.2847
 1555TIP3    H128860   1.453   4.268  17.233 -0.2445  1.0760 -0.5910
 1555TIP3    H228861   1.331   4.331  17.297 -0.2500 -0.1243  0.6212
 1556TIP3   OH228862   3.648   1.069  19.391 -0.0522 -0.0104 -0.5968
 1556TIP3    H128863   3.712   1.010  19.351  1.4287  1.8068 -0.9914
 1556TIP3    H228864   3.678   1.080  19.481  1.1223  2.0074 -1.1784
 1557TIP3   OH228865   2.243   0.670  18.981  0.3158  0.2823  0.2821
 1557TIP3    H128866   2.327   0.623  18.979  0.5357  0.6875 -0.3593
 1557TIP3    H228867   2.256   0.740  19.044  0.8326  1.0132 -0.6231
 1558TIP3   OH228868   1.181   3.982  18.482  0.1054  0.3945  0.0745
 1558TIP3    H128869   1.224   3.919  18.426  2.7840 -1.2008  3.5696
 1558TIP3    H228870   1.106   3.935  18.519 -0.9369  1.0510 -1.1091
 1559TIP3   OH228871   7.049   5.331  19.071  0.1247 -0.4538 -0.2713
 1559TIP3    H128872   7.084   5.397  19.130 -0.6846 -0.6577  0.4580
 1559TIP3    H228873   7.120   5.268  19.061  0.3221 -0.3413  0.3761
 1560TIP3   OH228874   5.081   5.473  17.431  0.3916 -0.1618  0.0562
 1560TIP3    H128875   5.075   5.381  17.456 -3.0205 -0.1454 -0.3126
 1560TIP3    H228876   5.113   5.472  17.340  3.0538 -0.7146  0.8951
 1561TIP3   OH228877   1.129   0.199  17.387 -0.2222  0.2134  0.3388
 1561TIP3    H128878   1.034   0.196  17.379 -0.1410 -0.6051 -0.6696
 1561TIP3    H228879   1.161   0.175  17.299  0.9067  0.6223  0.6193
 1562TIP3   OH228880   6.942   1.534  18.497  0.4914 -0.5267  0.2917
 1562TIP3    H128881   6.986   1.450  18.484 -0.6197 -1.3478  1.5436
 1562TIP3    H228882   6.984   1.571  18.574 -0.8761 -1.2670  1.4287
 1563TIP3   OH228883   1.918   3.268  18.284 -0.0312  0.1025 -0.3321
 1563TIP3    H128884   1.990   3.277  18.222  1.1325 -1.1588  0.7786
 1563TIP3    H228885   1.863   3.346  18.269  2.0311  1.5738 -0.6067
 1564TIP3   OH228886   3.162   1.453  18.194 -0.2605 -0.5256 -0.1391
 1564TIP3    H128887   3.101   1.391  18.235  0.4121 -0.5617  0.8444
 1564TIP3    H228888   3.151   1.533  18.244 -0.3254 -0.1790 -0.7038
 1565TIP3   OH228889   6.828   3.606  17.435  0.0721 -0.2446 -0.3647
 1565TIP3    H128890   6.906   3.551  17.440  0.2875  0.0377 -0.5348
 1565TIP3    H228891   6.781   3.590  17.516  1.6558  1.5718  1.0290
 1566TIP3   OH228892   5.629   1.032  17.490 -0.6129 -0.2583  0.0630
 1566TIP3    H128893   5.714   1.053  17.452 -1.1928  0.9676 -0.6479
 1566TIP3    H228894   5.617   1.097  17.559  0.0309 -1.9103  1.8115
 1567TIP3   OH228895   4.658   3.576  17.569  0.1189 -0.7131  0.0829
 1567TIP3    H128896   4.616   3.568  17.655  2.4991  0.8518  1.5137
 1567TIP3    H228897   4.585   3.580  17.507 -1.7472 -0.1526  2.1776
 1568TIP3   OH228898   5.499   6.062  18.306  0.3642 -0.0898 -0.2264
 1568TIP3    H128899   5.573   6.072  18.366 -0.2521  0.1458  0.5058
 1568TIP3    H228900   5.484   6.149  18.271  0.1914 -0.0576 -0.0767
 1569TIP3   OH228901   6.435   5.573  17.361  0.3829  0.1292  0.4765
 1569TIP3    H128902   6.431   5.480  17.341  1.2583  0.1329  0.2646
 1569TIP3    H228903   6.421   5.617  17.277  0.3235  0.1912  0.5187
 1570TIP3   OH228904   1.405   6.358  19.140  0.1482 -0.5480 -0.4564
 1570TIP3    H128905   1.405   6.373  19.045  0.8802 -0.7238 -0.4848
 1570TIP3    H228906   1.422   6.264  19.150  0.9217 -0.3746 -0.1266
 1571TIP3   OH228907   1.609   1.112  17.272 -0.9801 -0.4954 -0.0721
 1571TIP3    H128908   1.567   1.173  17.211 -0.7562  1.6165  1.7233
 1571TIP3    H228909   1.701   1.138  17.272 -0.7863 -1.1571  0.3655
 1572TIP3   OH228910   2.039   7.672  17.979 -0.5554 -0.1533  0.2061
 1572TIP3    H128911   2.075   7.666  18.067  2.0122  0.6990 -0.6753
 1572TIP3    H228912   2.039   7.582  17.947  0.7297 -0.2241  0.3222
 1573TIP3   OH228913   4.608   4.775  17.926  0.2465 -0.6081  0.3338
 1573TIP3    H128914   4.623   4.691  17.883  0.0669 -0.4817  0.0112
 1573TIP3    H228915   4.525   4.806  17.888 -0.5156 -1.0081  1.5919
 1574TIP3   OH228916   1.960   0.936  16.834 -0.1423  0.0559 -0.2928
 1574TIP3    H128917   1.985   1.002  16.898  1.1939 -1.1389  0.4711
 1574TIP3    H228918   1.894   0.883  16.879 -0.6818  0.4089 -0.6480
 1575TIP3   OH228919   0.250   3.785  18.715  0.2329  0.3953  0.0428
 1575TIP3    H128920   0.326   3.733  18.688  0.9414  1.6166 -0.4238
 1575TIP3    H228921   0.242   3.770  18.809  0.2918 -0.6926 -0.1148
 1576TIP3   OH228922   0.718   7.216  19.175 -0.3379 -0.3029  0.0890
 1576TIP3    H128923   0.675   7.212  19.261 -0.6947  0.4685 -0.0478
 1576TIP3    H228924   0.719   7.309  19.153  0.8847 -0.3694 -0.1846
 1577TIP3   OH228925   5.623   4.465  17.470 -0.2153 -0.0482 -0.2668
 1577TIP3    H128926   5.715   4.452  17.493 -0.0601 -2.4839 -1.8685
 1577TIP3    H228927   5.626   4.503  17.382 -0.5207 -4.7194 -2.5635
 1578TIP3   OH228928   6.565   1.040  18.330  0.4368 -0.1751  0.5686
 1578TIP3    H128929   6.590   1.052  18.239 -0.2427 -1.6588  0.1592
 1578TIP3    H228930   6.556   1.129  18.364 -1.7021  0.5227 -1.4956
 1579TIP3   OH228931   6.889   5.116  19.420 -0.3434 -0.1322  0.2420
 1579TIP3    H128932   6.805   5.095  19.461 -0.8128 -0.0177 -0.6283
 1579TIP3    H228933   6.870   5.118  19.326  0.0796  2.2573  0.1425
 1580TIP3   OH228934   5.922   1.628  17.279 -0.0340 -0.2293 -0.3106
 1580TIP3    H128935   5.928   1.664  17.368 -4.1376  1.1349 -0.3696
 1580TIP3    H228936   5.964   1.695  17.224 -0.5990  0.6693  0.3128
 1581TIP3   OH228937   3.991   1.292  19.029  0.0978  0.1411  0.4825
 1581TIP3    H128938   3.974   1.357  19.097 -3.2829 -0.2772  0.2293
 1581TIP3    H228939   4.005   1.344  18.950 -0.5561  0.6146  0.6628
 1582TIP3   OH228940   1.781   6.901  18.010  0.4414 -0.6781  0.4932
 1582TIP3    H128941   1.869   6.867  17.995 -0.0077 -1.0250 -1.6533
 1582TIP3    H228942   1.729   6.824  18.035  0.7244 -0.4572  1.8608
 1583TIP3   OH228943   1.360   6.650  18.077  0.0878 -0.4322  0.1946
 1583TIP3    H128944   1.314   6.705  18.013 -0.0172 -1.2404 -0.4411
 1583TIP3    H228945   1.331   6.561  18.057  0.2136 -0.7204  1.2422
 1584TIP3   OH228946   3.187   0.702  17.293  0.2222  0.9882  0.0560
 1584TIP3    H128947   3.261   0.748  17.254  0.9917 -0.9478 -0.8903
 1584TIP3    H228948   3.113   0.724  17.236  0.8017  0.2510 -1.0119
 1585TIP3   OH228949   3.688   6.705  18.479 -0.8698  0.1913  0.0593
 1585TIP3    H128950   3.724   6.617  18.480  1.3138  1.0270  0.0730
 1585TIP3    H228951   3.703   6.738  18.568  1.7854  1.8125 -0.8777
 1586TIP3   OH228952   5.806   6.140  18.737  0.0383 -0.0078 -0.0427
 1586TIP3    H128953   5.723   6.094  18.725 -0.2005  0.2690  0.5281
 1586TIP3    H228954   5.804   6.210  18.672 -0.2362  0.0862  0.0664
 1587TIP3   OH228955   2.571   3.011  19.184 -0.2349  0.1745  0.3446
 1587TIP3    H128956   2.514   3.086  19.201 -0.8093  0.2222 -1.5831
 1587TIP3    H228957   2.655   3.034  19.223 -1.1262  0.6755  2.0689
 1588TIP3   OH228958   2.972   5.537  17.764  0.5214 -0.2938  0.0836
 1588TIP3    H128959   3.043   5.495  17.812 -1.1776 -2.3147  1.0395
 1588TIP3    H228960   2.954   5.618  17.813  2.6667  0.7318 -0.7087
 1589TIP3   OH228961   3.287   4.873  16.734 -0.0061  0.7379 -0.1556
 1589TIP3    H128962   3.289   4.962  16.769 -1.9831  0.0222  2.0411
 1589TIP3    H228963   3.354   4.826  16.784  0.0214  0.6634 -0.2624
 1590TIP3   OH228964   3.013   4.241  18.112  0.4207  0.0235  0.0361
 1590TIP3    H128965   3.100   4.255  18.151  1.0779 -0.7879 -1.0721
 1590TIP3    H228966   3.029   4.179  18.040 -0.3179  2.9761 -2.9456
 1591TIP3   OH228967   5.106   4.777  19.560 -0.3282  0.0408  0.6620
 1591TIP3    H128968   5.185   4.799  19.511  0.0372  1.6109  1.8836
 1591TIP3    H228969   5.136   4.717  19.629 -0.4752 -0.4911  0.2739
 1592TIP3   OH228970   2.192   3.555  16.911  0.0083  0.0093 -0.1020
 1592TIP3    H128971   2.163   3.643  16.935  2.2458  1.0724 -0.9901
 1592TIP3    H228972   2.242   3.567  16.831 -1.2126 -2.4046 -1.3238
 1593TIP3   OH228973   1.158   0.503  17.792 -0.4081 -0.0216 -0.2407
 1593TIP3    H128974   1.136   0.569  17.726 -0.0481  1.4708  1.0752
 1593TIP3    H228975   1.172   0.423  17.742 -1.7696  0.6552 -1.8133
 1594TIP3   OH228976   4.884   0.593  18.587  0.2192  0.1411  0.2864
 1594TIP3    H128977   4.866   0.506  18.624 -0.5072 -0.5638 -1.5782
 1594TIP3    H228978   4.948   0.577  18.518 -0.0402  1.0679 -0.1895
 1595TIP3   OH228979   1.547   7.195  16.680 -0.0777  0.0857 -0.1849
 1595TIP3    H128980   1.464   7.213  16.635 -0.6507 -0.6832  0.5425
 1595TIP3    H228981   1.540   7.103  16.707  0.1169  0.5972  1.7359
 1596TIP3   OH228982   6.021   2.666  18.234 -0.0051  0.1505  0.5525
 1596TIP3    H128983   6.024   2.753  18.195  0.9339 -0.2015 -0.2189
 1596TIP3    H228984   5.933   2.659  18.271 -1.3614  0.1367 -2.3834
 1597TIP3   OH228985   3.626   2.531  18.552 -0.1004 -0.6259 -0.5482
 1597TIP3    H128986   3.602   2.450  18.506 -2.1631  0.2282 -1.0751
 1597TIP3    H228987   3.713   2.552  18.519 -0.8926 -0.8619 -2.9575
 1598TIP3   OH228988   6.161   6.346  17.788 -0.1157  0.0738 -0.1918
 1598TIP3    H128989   6.112   6.338  17.706  0.6224 -0.3768 -0.5988
 1598TIP3    H228990   6.216   6.268  17.791 -0.0581  0.1351  0.6930
 1599TIP3   OH228991   5.738   4.697  17.718  0.7842  0.5957 -0.5156
 1599TIP3    H128992   5.806   4.736  17.663  2.8583  0.5419  1.8328
 1599TIP3    H228993   5.771   4.609  17.737 -1.4591 -0.5883 -1.7482
 1600TIP3   OH228994   4.645   3.297  18.999  0.8175  0.2260 -0.0706
 1600TIP3    H128995   4.640   3.356  19.074  2.4110  0.5484 -0.1791
 1600TIP3    H228996   4.554   3.283  18.973  0.3017  0.9632  1.2463
 1601TIP3   OH228997   2.070   1.488  17.585 -0.2749  0.2835  0.3602
 1601TIP3    H128998   2.017   1.436  17.645  0.4558  0.6216  1.3297
 1601TIP3    H228999   2.112   1.554  17.641 -0.0604  1.0059 -0.6166
 1602TIP3   OH229000   0.559   1.424  18.189 -0.1486  0.3441 -0.2488
 1602TIP3    H129001   0.608   1.484  18.246  0.1729  0.0292 -0.1856
 1602TIP3    H229002   0.487   1.477  18.155 -1.4874  0.0638  1.9052
 1603TIP3   OH229003   3.912   4.702  17.720 -0.1005 -0.3408 -0.1422
 1603TIP3    H129004   3.866   4.751  17.788  0.1440  0.9535 -0.8742
 1603TIP3    H229005   3.990   4.667  17.764 -0.7077 -0.8062  0.5954
 1604TIP3   OH229006   2.763   1.330  18.566 -0.1376  0.1613 -0.2350
 1604TIP3    H129007   2.734   1.356  18.478 -0.7295 -1.8396 -0.6711
 1604TIP3    H229008   2.808   1.408  18.600 -0.0766  1.0463 -2.2100
 1605TIP3   OH229009   4.405   2.151  18.866 -0.0363 -0.7414  0.1436
 1605TIP3    H129010   4.397   2.211  18.791 -0.8476  0.7251  1.3312
 1605TIP3    H229011   4.490   2.109  18.854  0.2928  0.1894 -1.0779
 1606TIP3   OH229012   5.874   2.376  19.225 -0.0523 -0.0498 -0.1555
 1606TIP3    H129013   5.961   2.351  19.256 -0.1801 -0.8675 -0.4566
 1606TIP3    H229014   5.831   2.412  19.303  0.6578  0.6765 -0.0754
 1607TIP3   OH229015   4.190   1.891  18.036 -0.0783  0.2889  0.5467
 1607TIP3    H129016   4.264   1.907  17.977 -1.4314  1.6475 -0.9121
 1607TIP3    H229017   4.188   1.967  18.094  1.2556 -1.0516  2.4586
 1608TIP3   OH229018   3.983   1.749  19.022  0.1238  0.1630 -0.7600
 1608TIP3    H129019   4.008   1.658  19.005 -0.1978  0.1355 -1.0991
 1608TIP3    H229020   4.052   1.801  18.981  0.1406  0.0754 -0.8439
 1609TIP3   OH229021   7.126   0.214  18.174  0.1883  0.6091  0.0116
 1609TIP3    H129022   7.120   0.125  18.139 -4.3718  1.8793 -3.5344
 1609TIP3    H229023   7.208   0.248  18.139  1.1493 -1.6219 -0.0706
 1610TIP3   OH229024   1.566   5.441  19.214  0.2202 -0.2009  0.3898
 1610TIP3    H129025   1.500   5.416  19.150 -0.8989 -2.6915  2.3217
 1610TIP3    H229026   1.646   5.452  19.163 -1.2158  1.0210 -1.7662
 1611TIP3   OH229027   0.944   1.172  18.031 -0.5311  0.5363  0.2514
 1611TIP3    H129028   0.902   1.088  18.012 -0.6149  1.0094 -1.8821
 1611TIP3    H229029   0.876   1.237  18.016  0.2973  1.1562 -1.0080
 1612TIP3   OH229030   1.725   6.527  18.432 -0.1280  0.0465 -0.7291
 1612TIP3    H129031   1.706   6.438  18.402 -0.3250 -0.2382  0.2103
 1612TIP3    H229032   1.698   6.528  18.524 -2.7981  1.8763 -1.4084
 1613TIP3   OH229033   3.131   6.358  17.383 -0.0804  0.4143  0.1842
 1613TIP3    H129034   3.138   6.320  17.471 -0.0574  1.6893  0.7641
 1613TIP3    H229035   3.044   6.333  17.353 -0.6651  1.1621  1.1876
 1614TIP3   OH229036   5.248   6.972  18.100 -0.1292 -0.1925  0.2821
 1614TIP3    H129037   5.282   7.028  18.170 -0.4795 -0.4244  0.6371
 1614TIP3    H229038   5.309   6.898  18.097  0.6157  0.4221 -0.5082
 1615TIP3   OH229039   5.658   4.007  19.186 -0.5366  0.1320 -0.3496
 1615TIP3    H129040   5.629   4.077  19.244  0.1815  0.6310 -0.5860
 1615TIP3    H229041   5.590   3.940  19.194 -0.7651  0.4610  0.5826
 1616TIP3   OH229042   1.364   0.649  17.905  0.1066  0.0181 -0.4414
 1616TIP3    H129043   1.371   0.585  17.976 -0.8609  1.6229  1.2064
 1616TIP3    H229044   1.280   0.631  17.864  1.0413 -1.4564 -1.8019
 1617TIP3   OH229045   3.018   4.969  18.044 -0.2213  0.3204 -0.1666
 1617TIP3    H129046   2.980   5.057  18.039 -0.0351  0.4489  0.5341
 1617TIP3    H229047   3.112   4.983  18.041 -0.2042  0.0202 -1.6261
 1618TIP3   OH229048   0.125   0.096  17.852 -0.9030 -0.1291  0.1246
 1618TIP3    H129049   0.084   0.010  17.842 -1.3190  0.1333 -0.4680
 1618TIP3    H229050   0.179   0.106  17.774  0.6555 -0.6486  1.0984
 1619TIP3   OH229051   0.179   4.629  17.701  0.1336 -0.7888 -0.4136
 1619TIP3    H129052   0.164   4.653  17.609  0.5373  0.3519 -0.2091
 1619TIP3    H229053   0.251   4.687  17.728 -1.1260  0.1352  1.1096
 1620TIP3   OH229054   3.628   5.418  17.695  0.2049 -0.1816 -0.5992
 1620TIP3    H129055   3.678   5.402  17.775  2.4280  0.8268 -1.6730
 1620TIP3    H229056   3.695   5.430  17.627 -1.5320  0.9334 -2.2375
 1621TIP3   OH229057   0.125   1.024  18.583 -0.2990  0.1482  0.9946
 1621TIP3    H129058   0.066   1.058  18.516 -0.0827  1.7822  1.5854
 1621TIP3    H229059   0.213   1.041  18.548 -0.1602  1.9966  2.0721
 1622TIP3   OH229060   0.465   6.533  19.172 -0.1994 -0.1052  0.8142
 1622TIP3    H129061   0.466   6.618  19.127 -2.0094 -0.2714  0.4186
 1622TIP3    H229062   0.524   6.478  19.120 -0.2602  0.4487  0.1468
 1623TIP3   OH229063   4.397   5.932  19.210 -0.6985 -0.8365  0.1627
 1623TIP3    H129064   4.491   5.944  19.219 -0.4628 -0.4708 -2.0926
 1623TIP3    H229065   4.372   5.880  19.286  1.1101  0.0164  1.4058
 1624TIP3   OH229066   1.363   7.608  17.774 -0.5121  0.0822 -0.2006
 1624TIP3    H129067   1.307   7.647  17.840 -0.2036  1.6198 -0.8219
 1624TIP3    H229068   1.381   7.520  17.808 -0.8768  0.5994  1.4340
 1625TIP3   OH229069   4.121   6.836  18.338 -0.3079  0.2556 -0.3303
 1625TIP3    H129070   4.194   6.779  18.363 -2.0287 -2.4246 -1.0170
 1625TIP3    H229071   4.153   6.882  18.260  0.9095 -0.2685 -0.1696
 1626TIP3   OH229072   7.388   3.952  17.246  0.1439  0.0556  0.3464
 1626TIP3    H129073   7.360   4.038  17.215 -0.2693  0.0456  0.6846
 1626TIP3    H229074   7.311   3.915  17.288  0.2564 -0.5834 -0.0094
 1627TIP3   OH229075   5.890   4.377  18.185  0.0830  0.1242 -0.6141
 1627TIP3    H129076   5.903   4.471  18.200 -1.7801  0.0195  2.6334
 1627TIP3    H229077   5.898   4.338  18.273 -2.1848 -2.3292 -1.3806
 1628TIP3   OH229078   6.673   4.012  17.701 -0.3434  0.3551 -0.1593
 1628TIP3    H129079   6.621   4.090  17.720 -0.8189 -0.4700  2.2386
 1628TIP3    H229080   6.719   3.993  17.783 -0.4137 -1.9958 -0.6019
 1629TIP3   OH229081   1.291   1.382  18.428  0.1139  0.0365  0.0177
 1629TIP3    H129082   1.336   1.390  18.512 -0.6197  0.5869  0.3748
 1629TIP3    H229083   1.257   1.293  18.427 -0.7048  0.3218  0.7533
 1630TIP3   OH229084   4.644   0.201  18.436  0.1078  0.7503  0.1162
 1630TIP3    H129085   4.646   0.293  18.465 -0.9273  1.1920 -1.1086
 1630TIP3    H229086   4.639   0.151  18.517 -0.3819  1.8370  0.7827
 1631TIP3   OH229087   2.904   7.277  18.027  0.0592 -0.0913 -0.4724
 1631TIP3    H129088   2.978   7.284  18.087  0.8167  1.2102 -1.5121
 1631TIP3    H229089   2.865   7.364  18.028 -0.7435 -0.4406 -0.8482
 1632TIP3   OH229090   4.125   4.312  19.558 -0.2084  0.5796  0.4394
 1632TIP3    H129091   4.125   4.221  19.590  1.4043  0.5077  0.3603
 1632TIP3    H229092   4.050   4.317  19.500  1.3365 -1.6748 -2.0128
 1633TIP3   OH229093   5.042   2.908  17.524  0.1450 -0.4138  0.1538
 1633TIP3    H129094   5.001   2.967  17.587 -0.1949 -0.6082  0.1204
 1633TIP3    H229095   4.998   2.928  17.441 -0.6284 -1.3470  0.3240
 1634TIP3   OH229096   2.992   2.799  18.871 -0.0278  0.3998  0.5083
 1634TIP3    H129097   2.899   2.822  18.869  0.1456  1.1568  0.7085
 1634TIP3    H229098   3.010   2.763  18.785 -0.3971  0.7233  0.2919
 1635TIP3   OH229099   6.945   3.303  16.636 -0.1429 -0.6757  0.4387
 1635TIP3    H129100   6.932   3.209  16.631  0.8605 -0.8415  0.6001
 1635TIP3    H229101   6.990   3.316  16.720 -0.9178  0.0290  0.7542
 1636TIP3   OH229102   4.328   1.766  17.803 -0.2350 -0.3446 -0.1392
 1636TIP3    H129103   4.317   1.836  17.738 -0.6859 -0.2690  0.0126
 1636TIP3    H229104   4.252   1.710  17.790 -0.0815 -0.5875  0.0101
 1637TIP3   OH229105   4.025   5.008  19.304  0.0784  0.1178 -0.5828
 1637TIP3    H129106   4.069   4.927  19.330  0.6422  0.5068 -0.2977
 1637TIP3    H229107   4.067   5.076  19.357 -2.4024  0.2555  1.3807
 1638TIP3   OH229108   6.903   5.942  19.578  0.0003 -0.3243  0.2458
 1638TIP3    H129109   6.910   5.847  19.569 -0.1348 -0.2327 -1.1525
 1638TIP3    H229110   6.981   5.967  19.627  0.1925 -1.1347  0.3655
 1639TIP3   OH229111   7.194   7.233  17.581 -0.3683 -0.1801  0.1558
 1639TIP3    H129112   7.188   7.162  17.645  0.5498 -0.7147 -0.3267
 1639TIP3    H229113   7.266   7.287  17.613  0.1015 -0.4561 -0.4133
 1640TIP3   OH229114   0.911   5.416  17.904 -0.6176 -0.2182 -0.7849
 1640TIP3    H129115   0.861   5.497  17.906 -0.3471  0.0232 -2.4452
 1640TIP3    H229116   0.989   5.437  17.854 -0.7757 -1.6042 -1.6718
 1641TIP3   OH229117   2.979   6.857  17.828 -0.4505 -0.0591 -0.0563
 1641TIP3    H129118   3.005   6.938  17.871 -0.3680  1.0368 -2.0588
 1641TIP3    H229119   3.008   6.788  17.889  0.1452  1.3613  1.3519
 1642TIP3   OH229120   7.171   3.654  17.902 -0.2226 -0.0805 -0.4944
 1642TIP3    H129121   7.218   3.585  17.949 -0.4716 -0.2624 -0.5087
 1642TIP3    H229122   7.228   3.678  17.830  0.8509  1.2482  0.7338
 1643TIP3   OH229123   7.624   1.233  19.571 -0.6359 -0.4495 -0.5672
 1643TIP3    H129124   7.652   1.146  19.545 -0.8856 -0.0477 -2.3110
 1643TIP3    H229125   7.660   1.245  19.658  0.8940 -1.6112 -1.0045
 1644TIP3   OH229126   3.480   5.812  17.642  0.5269 -0.1640 -0.8614
 1644TIP3    H129127   3.471   5.719  17.662  0.6479  0.3254  1.8571
 1644TIP3    H229128   3.462   5.856  17.725  0.8463  2.2343 -1.9851
 1645TIP3   OH229129   3.548   4.654  17.873  0.0631 -1.3105  0.3062
 1645TIP3    H129130   3.630   4.699  17.856 -0.1936 -1.0476 -0.2736
 1645TIP3    H229131   3.540   4.653  17.969  0.7050 -1.2908  0.3649
 1646TIP3   OH229132   4.737   1.672  17.409  0.4286 -0.4229  0.7048
 1646TIP3    H129133   4.770   1.627  17.331  2.1470  1.8091  0.0196
 1646TIP3    H229134   4.703   1.755  17.376  0.1471  0.0961  2.2133
 1647TIP3   OH229135   4.894   5.260  19.113 -0.5136 -0.0630  0.0529
 1647TIP3    H129136   4.916   5.328  19.177 -0.5352 -0.9572  1.0369
 1647TIP3    H229137   4.811   5.289  19.075 -1.2453 -0.2111  1.4660
 1648TIP3   OH229138   0.193   6.372  17.719 -0.2513  0.5085 -0.3960
 1648TIP3    H129139   0.160   6.446  17.770 -0.1773  0.9116 -0.9250
 1648TIP3    H229140   0.160   6.387  17.631 -0.3093 -0.1430 -0.4914
 1649TIP3   OH229141   4.377   6.322  19.297  0.1482  0.2866 -0.2759
 1649TIP3    H129142   4.354   6.293  19.208 -0.1664 -0.6494  0.1031
 1649TIP3    H229143   4.442   6.259  19.327 -0.2221  0.2258  0.4055
 1650TIP3   OH229144   2.158   1.703  17.794  0.1294 -0.5764  0.4537
 1650TIP3    H129145   2.096   1.692  17.867  0.5477 -0.3489  0.8510
 1650TIP3    H229146   2.227   1.758  17.830 -0.1853  0.4283 -0.4316
 1651TIP3   OH229147   7.254   0.623  18.848 -1.1563 -0.2357 -0.1593
 1651TIP3    H129148   7.232   0.591  18.761 -1.6992  0.7527 -0.3978
 1651TIP3    H229149   7.254   0.719  18.840  2.5965 -0.0857 -0.0282
 1652TIP3   OH229150   4.780   3.416  18.701  0.3278 -0.0389 -0.3558
 1652TIP3    H129151   4.711   3.354  18.726  0.9104 -0.5707 -0.0166
 1652TIP3    H229152   4.734   3.494  18.672 -0.4174 -0.4705 -0.3443
 1653TIP3   OH229153   2.787   6.000  18.970  0.0638 -0.3061 -0.1274
 1653TIP3    H129154   2.878   5.971  18.972  0.5480  0.8376 -2.2690
 1653TIP3    H229155   2.753   5.978  19.057  2.3549 -0.7908  0.7269
 1654TIP3   OH229156   0.455   6.441  18.689  0.4711  0.4508 -0.6392
 1654TIP3    H129157   0.464   6.349  18.714  1.8054  0.7735  0.1568
 1654TIP3    H229158   0.510   6.489  18.751  1.1709  1.6269 -2.0901
 1655TIP3   OH229159   5.570   0.887  17.133 -0.1299  0.6566  0.1233
 1655TIP3    H129160   5.609   0.833  17.202 -1.1145  0.7980  0.8068
 1655TIP3    H229161   5.634   0.885  17.062  0.1461 -0.8612  0.3896
 1656TIP3   OH229162   0.118   5.050  18.128 -0.1396 -0.4037 -0.0437
 1656TIP3    H129163   0.025   5.053  18.107  0.0169  0.7530 -0.6815
 1656TIP3    H229164   0.145   4.961  18.107 -1.0147 -0.6392 -0.2160
 1657TIP3   OH229165   6.606   5.673  19.217  0.1592  0.5254 -0.2023
 1657TIP3    H129166   6.578   5.755  19.256  0.9857 -0.7291  3.4115
 1657TIP3    H229167   6.642   5.698  19.131  0.8397  3.9780  0.9385
 1658TIP3   OH229168   4.682   0.910  18.709  0.1512  0.0483 -0.1505
 1658TIP3    H129169   4.750   0.849  18.680 -0.7371 -1.2393  0.3717
 1658TIP3    H229170   4.601   0.876  18.670 -0.7148 -0.4092  1.8964
 1659TIP3   OH229171   1.523   6.646  17.803 -0.6443 -0.1597 -0.0305
 1659TIP3    H129172   1.579   6.569  17.793 -0.7231 -0.2148 -0.0489
 1659TIP3    H229173   1.490   6.639  17.893 -1.0768 -0.4333 -0.2102
 1660TIP3   OH229174   5.277   1.114  17.616 -0.7811 -0.0382  0.1410
 1660TIP3    H129175   5.278   1.161  17.699 -0.9433  0.6132 -0.2221
 1660TIP3    H229176   5.187   1.123  17.584 -0.2781  1.3117 -0.9930
 1661TIP3   OH229177   1.206   2.495  17.718 -0.1485  0.3766 -0.7630
 1661TIP3    H129178   1.257   2.525  17.642  0.0690  0.6840 -0.4951
 1661TIP3    H229179   1.162   2.573  17.750 -0.2074  0.2529 -0.5461
 1662TIP3   OH229180   1.366   3.670  16.442 -0.1475  0.0158  0.5605
 1662TIP3    H129181   1.360   3.690  16.349 -2.0459  0.1311  0.6728
 1662TIP3    H229182   1.289   3.617  16.460  0.5155 -0.5286  1.9636
 1663TIP3   OH229183   3.373   0.092  19.259 -0.1279  0.6753 -0.4084
 1663TIP3    H129184   3.321   0.172  19.251  0.0426  0.6282 -2.4554
 1663TIP3    H229185   3.462   0.118  19.236  0.3248  0.2523  0.7444
 1664TIP3   OH229186   7.150   3.241  17.887 -0.1285 -0.0792 -0.8555
 1664TIP3    H129187   7.228   3.186  17.892  1.0899  1.6374  0.1200
 1664TIP3    H229188   7.168   3.315  17.945 -2.6089  0.2681 -0.3827
 1665TIP3   OH229189   7.366   4.007  18.499  0.0091 -0.1477 -0.4334
 1665TIP3    H129190   7.297   3.949  18.466  0.3834 -0.7687 -0.1380
 1665TIP3    H229191   7.334   4.095  18.479  0.2836 -0.4786 -2.5828
 1666TIP3   OH229192   0.226   2.784  18.717 -0.0614 -0.0790 -0.1496
 1666TIP3    H129193   0.161   2.851  18.692 -0.0798  0.2099  0.6453
 1666TIP3    H229194   0.227   2.723  18.644 -1.0635  0.0473 -0.2806
 1667TIP3   OH229195   1.948   2.440  16.970  0.2543 -0.1873 -0.0371
 1667TIP3    H129196   2.013   2.489  17.020 -0.2630  2.5061 -1.8025
 1667TIP3    H229197   1.873   2.430  17.029  0.6566  0.5099  0.5970
 1668TIP3   OH229198   2.043   6.786  17.912 -0.2173  0.0537  0.3786
 1668TIP3    H129199   2.072   6.804  17.822  0.4292 -1.7222  0.1729
 1668TIP3    H229200   1.989   6.707  17.903  1.7953 -1.5757  1.7927
 1669TIP3   OH229201   1.333   2.558  18.181 -0.0471  0.1681 -0.2494
 1669TIP3    H129202   1.331   2.528  18.090 -1.0203  2.1653 -0.9507
 1669TIP3    H229203   1.245   2.593  18.197 -0.6956 -2.2799  2.2879
 1670TIP3   OH229204   2.753   2.831  17.874  0.1620 -0.2900  0.1154
 1670TIP3    H129205   2.692   2.880  17.820  1.7960  1.4306 -0.2665
 1670TIP3    H229206   2.761   2.881  17.955  0.6898 -0.7566  0.3669
 1671TIP3   OH229207   5.726   4.857  19.672  0.4005  0.2512 -0.0275
 1671TIP3    H129208   5.821   4.861  19.667  0.5471 -1.2383  0.9005
 1671TIP3    H229209   5.698   4.845  19.581  0.9514  2.3649 -0.5204
 1672TIP3   OH229210   4.769   1.150  16.804 -0.2535 -0.3078  0.3746
 1672TIP3    H129211   4.686   1.106  16.788  0.0619 -0.2587 -1.8055
 1672TIP3    H229212   4.806   1.106  16.880 -1.5539 -1.4062  0.4078
 1673TIP3   OH229213   3.246   5.079  17.869 -0.5760  0.0527 -0.6843
 1673TIP3    H129214   3.168   5.061  17.815  0.0041 -1.7829 -0.9778
 1673TIP3    H229215   3.300   5.135  17.814  0.3044 -2.3151 -2.4085
 1674TIP3   OH229216   6.964   5.563  18.935  0.5193 -0.2869  0.0430
 1674TIP3    H129217   6.938   5.594  19.021  1.4388 -0.2376  0.3163
 1674TIP3    H229218   6.988   5.472  18.948 -1.1032 -0.8372 -0.5433
 1675TIP3   OH229219   0.636   1.601  18.879 -0.0047 -0.0717  0.4160
 1675TIP3    H129220   0.712   1.645  18.919 -0.6604  0.0506  1.5747
 1675TIP3    H229221   0.588   1.672  18.836  0.6568 -0.1894 -0.5494
 1676TIP3   OH229222   1.113   4.695  17.250  0.3197  0.0206  0.2581
 1676TIP3    H129223   1.046   4.666  17.312 -2.0734  0.0820 -2.1317
 1676TIP3    H229224   1.156   4.615  17.220  0.9543 -0.0662  1.3278
 1677TIP3   OH229225   6.722   3.864  17.918  0.3302  0.8620 -0.2104
 1677TIP3    H129226   6.776   3.788  17.896  0.2222  0.3352  1.2187
 1677TIP3    H229227   6.632   3.834  17.904  0.3449  1.7648 -2.6698
 1678TIP3   OH229228   3.412   4.042  18.329 -0.4823  0.7259 -0.3478
 1678TIP3    H129229   3.464   4.013  18.403 -1.3687 -0.6421 -0.2288
 1678TIP3    H229230   3.450   3.999  18.253 -1.2385 -0.0545 -0.2991
 1679TIP3   OH229231   3.482   3.363  18.373  0.1085  0.4530 -0.9653
 1679TIP3    H129232   3.577   3.348  18.371  0.0938  0.4274 -1.8418
 1679TIP3    H229233   3.444   3.278  18.395  0.2824  0.4205 -0.7908
 1680TIP3   OH229234   2.495   1.822  17.553 -0.1826 -0.1388 -0.2938
 1680TIP3    H129235   2.444   1.896  17.586 -0.1845 -0.9844  1.8101
 1680TIP3    H229236   2.443   1.745  17.577  0.5126 -0.8894 -1.1167
 1681TIP3   OH229237   3.764   6.529  18.915  0.9417 -0.1617  0.0400
 1681TIP3    H129238   3.757   6.534  18.820  0.8339  1.2037  0.0932
 1681TIP3    H229239   3.779   6.620  18.942  1.6886 -0.6289  1.2698
 1682TIP3   OH229240   5.272   1.642  17.830 -0.3046  0.9405 -0.2360
 1682TIP3    H129241   5.296   1.635  17.737 -1.2440 -1.9450 -0.3730
 1682TIP3    H229242   5.355   1.631  17.877 -0.0368  0.7077 -0.7479
 1683TIP3   OH229243   5.645   4.975  17.831 -0.1201  0.1508 -0.3816
 1683TIP3    H129244   5.649   5.071  17.823  0.9690  0.0146 -2.0199
 1683TIP3    H229245   5.719   4.952  17.887  1.1071  0.1460 -1.9264
 1684TIP3   OH229246   5.536   5.280  19.612 -0.1418 -0.0782 -0.6121
 1684TIP3    H129247   5.613   5.239  19.652 -0.3269 -0.2219 -0.4049
 1684TIP3    H229248   5.551   5.374  19.623 -0.4983 -0.1263  0.3725
 1685TIP3   OH229249   2.693   4.682  19.401 -0.8173 -1.1391  0.2344
 1685TIP3    H129250   2.642   4.748  19.447 -0.9878 -2.0935  1.4883
 1685TIP3    H229251   2.695   4.711  19.310  0.2698  1.2835  0.9770
 1686TIP3   OH229252   7.100   2.766  17.603 -0.7352 -0.5774  0.1787
 1686TIP3    H129253   7.186   2.737  17.572  0.3931  0.5444  2.0761
 1686TIP3    H229254   7.081   2.845  17.554  0.1678  0.1496  0.9706
 1687TIP3   OH229255   4.030   5.836  18.883  0.0898 -0.1643 -0.1279
 1687TIP3    H129256   4.017   5.780  18.960  1.1364 -0.7453 -0.3438
 1687TIP3    H229257   4.021   5.925  18.916 -4.2525 -0.3518 -0.2559
 1688TIP3   OH229258   1.210   6.197  17.910 -0.1315  0.1728 -0.2559
 1688TIP3    H129259   1.189   6.290  17.913  0.3425  0.2766 -0.1064
 1688TIP3    H229260   1.185   6.169  17.821 -1.7786  0.0727  0.1991
 1689TIP3   OH229261   0.953   0.264  18.082  0.1732 -0.0994  0.2355
 1689TIP3    H129262   0.990   0.351  18.098  1.1077 -0.7815  2.0325
 1689TIP3    H229263   0.887   0.279  18.013  1.0871  1.8126 -0.3093
 1690TIP3   OH229264   5.746   2.990  19.137  0.6462  0.0700 -0.4647
 1690TIP3    H129265   5.793   2.908  19.155  1.2839  0.4989 -0.1552
 1690TIP3    H229266   5.664   2.962  19.096  0.9404 -0.7175 -0.5293
 1691TIP3   OH229267   3.794   5.239  19.492  0.2125 -0.0270  0.6538
 1691TIP3    H129268   3.732   5.205  19.427  0.6371  0.8341 -0.2307
 1691TIP3    H229269   3.863   5.281  19.440  0.0941  1.5030  1.6547
 1692TIP3   OH229270   1.776   2.927  17.630  0.0160 -0.6676 -0.1332
 1692TIP3    H129271   1.748   2.896  17.716 -0.0000  0.3210  0.2357
 1692TIP3    H229272   1.867   2.897  17.623  0.7939  1.1171  1.2302
 1693TIP3   OH229273   1.518   4.800  18.992  0.5848  0.3196  0.5880
 1693TIP3    H129274   1.550   4.841  18.912  0.1040 -1.4820 -0.5871
 1693TIP3    H229275   1.592   4.752  19.027  0.7196  0.8846  1.1012
 1694TIP3   OH229276   4.278   0.585  19.336  0.0058  0.2817  0.5418
 1694TIP3    H129277   4.254   0.508  19.282 -1.5888  2.3498 -1.9653
 1694TIP3    H229278   4.372   0.576  19.350 -0.2991 -2.7129  1.4145
 1695TIP3   OH229279   1.307   0.821  19.016 -0.0273 -0.9907 -0.3881
 1695TIP3    H129280   1.289   0.791  18.926  2.0829 -0.8307 -0.9048
 1695TIP3    H229281   1.382   0.769  19.044 -1.6144 -2.1806  1.9393
 1696TIP3   OH229282   0.729   5.370  17.412 -0.3969 -0.2080  0.1807
 1696TIP3    H129283   0.807   5.344  17.363  0.0847 -0.8911  1.2749
 1696TIP3    H229284   0.748   5.345  17.502 -2.1220 -0.9120  0.3870
 1697TIP3   OH229285   6.280   4.965  17.958  0.0563  0.6262  0.5015
 1697TIP3    H129286   6.358   4.923  17.996 -0.9734 -1.1685  0.7450
 1697TIP3    H229287   6.314   5.044  17.915  1.9941 -0.0370  0.7101
 1698TIP3   OH229288   2.722   5.088  17.690 -0.4462  0.0111  0.4922
 1698TIP3    H129289   2.650   5.082  17.627 -1.0862 -1.6376  1.3346
 1698TIP3    H229290   2.700   5.163  17.745 -1.0444  0.0629  0.1890
 1699TIP3   OH229291   0.660   7.661  18.465 -0.3863 -0.3741 -0.3913
 1699TIP3    H129292   0.746   7.619  18.460 -0.1526  0.0905 -0.3290
 1699TIP3    H229293   0.674   7.750  18.432  0.1094  1.1355  3.4513
 1700TIP3   OH229294   4.192   4.389  17.041  0.0122  0.1851  0.5929
 1700TIP3    H129295   4.166   4.387  17.133  1.7116 -0.4256  1.1066
 1700TIP3    H229296   4.248   4.466  17.033 -0.8098  0.7265 -0.1563
 1701TIP3   OH229297   7.310   2.718  17.148 -0.1294  0.0471  0.4157
 1701TIP3    H129298   7.246   2.650  17.128 -1.3786  0.6552  2.0941
 1701TIP3    H229299   7.272   2.798  17.112  0.5880  0.1265 -0.1879
 1702TIP3   OH229300   0.809   1.751  17.890  0.1860 -0.8095  0.8055
 1702TIP3    H129301   0.882   1.703  17.850  0.0117 -1.7530  1.5662
 1702TIP3    H229302   0.732   1.699  17.870 -0.2067 -0.1221  0.5017
 1703TIP3   OH229303   0.658   5.085  18.359 -0.3296  0.2819  1.2667
 1703TIP3    H129304   0.673   5.111  18.268  0.5769 -1.7613  0.7672
 1703TIP3    H229305   0.650   5.167  18.407 -1.7843  1.4067 -0.7932
 1704TIP3   OH229306   0.491   2.738  19.232  0.1687  0.4284  0.1145
 1704TIP3    H129307   0.454   2.668  19.178 -0.2203 -0.0039  0.9339
 1704TIP3    H229308   0.442   2.816  19.207 -0.4718  0.0981  0.3209
 1705TIP3   OH229309   2.438   1.390  16.979 -0.1466  0.2532 -0.3114
 1705TIP3    H129310   2.400   1.472  17.011 -0.5359 -0.6711  1.7784
 1705TIP3    H229311   2.379   1.362  16.910 -0.9230  0.9324  0.0565
 1706TIP3   OH229312   5.531   1.519  18.201 -0.1478  0.4628  0.1631
 1706TIP3    H129313   5.567   1.462  18.269  0.0790  2.3228  1.6813
 1706TIP3    H229314   5.608   1.558  18.159 -0.3163  1.1999  0.5284
 1707TIP3   OH229315   7.585   2.534  17.849  0.0380  0.7475  0.0627
 1707TIP3    H129316   7.674   2.504  17.865  0.8937  2.4626 -1.2425
 1707TIP3    H229317   7.567   2.508  17.759  0.0402  2.2746 -0.4004
 1708TIP3   OH229318   6.870   6.104  19.349 -0.5602 -0.1505  0.3457
 1708TIP3    H129319   6.871   6.041  19.277 -1.1620  0.2482 -0.0211
 1708TIP3    H229320   6.886   6.052  19.428  2.8023 -0.2804 -0.2564
 1709TIP3   OH229321   0.856   2.445  17.168 -0.1438  0.4111 -0.1576
 1709TIP3    H129322   0.778   2.406  17.128  0.3616 -1.1483  0.2971
 1709TIP3    H229323   0.929   2.413  17.114  0.3780 -0.2074  0.8922
 1710TIP3   OH229324   2.419   1.260  17.230  0.4373  0.0043 -0.1313
 1710TIP3    H129325   2.433   1.325  17.299  1.3989 -0.2800 -0.0356
 1710TIP3    H229326   2.429   1.309  17.149  0.6457  0.0806 -0.0597
 1711TIP3   OH229327   1.235   4.696  19.476  0.4752  0.0321 -0.0238
 1711TIP3    H129328   1.217   4.735  19.391  0.0082  0.5585  0.3068
 1711TIP3    H229329   1.204   4.762  19.539 -1.4187 -1.3424  0.5677
 1712TIP3   OH229330   4.044   4.028  17.478 -0.4981  0.0669 -0.8138
 1712TIP3    H129331   4.131   4.064  17.494 -0.3580 -0.3835 -0.5332
 1712TIP3    H229332   4.042   4.010  17.384  0.6106 -2.1809 -0.4723
 1713TIP3   OH229333   0.637   3.299  17.130 -0.2976  0.1977  0.1406
 1713TIP3    H129334   0.610   3.317  17.040  0.0147  1.6247  0.3108
 1713TIP3    H229335   0.697   3.225  17.123 -0.0964  0.4445 -0.8600
 1714TIP3   OH229336   7.339   3.123  17.573  0.3123  0.3503 -0.7040
 1714TIP3    H129337   7.383   3.057  17.626  2.7540  0.9557 -1.8662
 1714TIP3    H229338   7.393   3.201  17.582 -2.2686  2.1584  0.2810
 1715TIP3   OH229339   0.114   6.228  18.320 -0.2624  0.4136 -0.5734
 1715TIP3    H129340   0.129   6.235  18.414  0.0789  0.5167 -0.6343
 1715TIP3    H229341   0.201   6.211  18.283 -0.6309 -1.3139 -0.7163
 1716TIP3   OH229342   1.967   6.139  17.104 -0.0292 -0.7540 -0.0721
 1716TIP3    H129343   1.924   6.223  17.087 -0.0144 -1.1138 -2.1201
 1716TIP3    H229344   2.044   6.161  17.156 -0.1795  0.4445 -0.3356
 1717TIP3   OH229345   2.162   2.590  19.131 -0.2097  0.5326 -0.1840
 1717TIP3    H129346   2.211   2.667  19.160  1.0622  0.1674 -1.2905
 1717TIP3    H229347   2.196   2.571  19.044 -1.3218 -0.6034 -0.3983
 1718TIP3   OH229348   6.104   1.405  16.972 -0.3035  0.0575  0.5923
 1718TIP3    H129349   6.167   1.450  16.916 -0.6651 -0.4507 -0.2444
 1718TIP3    H229350   6.025   1.459  16.967 -0.6632 -0.5180 -0.2276
 1719TIP3   OH229351   1.506   4.852  17.587  0.1857 -0.8304  0.1215
 1719TIP3    H129352   1.568   4.778  17.588  1.3228  0.0952  1.3836
 1719TIP3    H229353   1.464   4.849  17.673  0.4150  0.1292  0.2731
 1720TIP3   OH229354   3.642   2.978  17.180 -0.3963 -0.0646 -0.5869
 1720TIP3    H129355   3.712   2.976  17.114  0.0332 -0.5146 -0.1263
 1720TIP3    H229356   3.676   3.036  17.249 -0.2927 -0.6156 -0.1680
 1721TIP3   OH229357   6.244   5.849  17.791  0.2032  0.0868  0.2925
 1721TIP3    H129358   6.277   5.798  17.864  0.1298 -0.6616 -0.1825
 1721TIP3    H229359   6.266   5.797  17.713 -0.4822  0.4403 -0.1526
 1722TIP3   OH229360   7.278   4.804  18.166 -0.9941  0.1409 -0.5442
 1722TIP3    H129361   7.239   4.874  18.218 -1.0306 -0.2409 -0.0436
 1722TIP3    H229362   7.230   4.806  18.083 -1.7480 -0.0018 -0.1254
 1723TIP3   OH229363   1.233   4.382  18.106 -0.0609  0.2323  0.1569
 1723TIP3    H129364   1.207   4.460  18.056  0.9543 -0.8428 -2.2098
 1723TIP3    H229365   1.155   4.360  18.157 -0.6655  2.2717  0.2021
 1724TIP3   OH229366   4.255   6.160  18.534  0.3139 -0.0637  0.1406
 1724TIP3    H129367   4.202   6.176  18.456  0.2250  0.6619  0.3445
 1724TIP3    H229368   4.333   6.216  18.522 -0.9341  2.2020  1.8118
 1725TIP3   OH229369   0.456   3.557  17.517 -0.1236 -0.6127  0.1932
 1725TIP3    H129370   0.474   3.556  17.423  0.4838  0.3471  0.2923
 1725TIP3    H229371   0.376   3.505  17.526  0.0996 -1.1534 -0.7865
 1726TIP3   OH229372   4.748   1.282  19.169  0.7418  0.0041  0.0884
 1726TIP3    H129373   4.654   1.276  19.183  0.5589 -0.6922 -1.2750
 1726TIP3    H229374   4.785   1.223  19.235  0.0609 -1.4258 -0.7537
 1727TIP3   OH229375   0.597   3.853  18.152 -0.3524  0.4848 -0.1917
 1727TIP3    H129376   0.590   3.839  18.057 -2.7435  0.7809 -0.1186
 1727TIP3    H229377   0.676   3.805  18.177  0.3142  0.3619 -2.3148
 1728TIP3   OH229378   5.307   2.832  17.344 -0.1511  0.0738  0.7839
 1728TIP3    H129379   5.218   2.857  17.318 -0.6280 -1.9478  0.2802
 1728TIP3    H229380   5.298   2.801  17.434 -0.3393 -1.6970  0.2044
 1729TIP3   OH229381   7.460   5.018  17.161  0.0652  0.3033 -0.0540
 1729TIP3    H129382   7.543   5.064  17.145 -0.6950  1.9499  0.5084
 1729TIP3    H229383   7.468   4.936  17.113  1.3164  1.2069 -1.4774
 1730TIP3   OH229384   0.376   2.530  19.075  0.4547  0.0980 -0.8893
 1730TIP3    H129385   0.382   2.491  18.988  1.5407  0.3036 -0.9163
 1730TIP3    H229386   0.436   2.479  19.129  1.0554  1.0097 -0.6633
 1731TIP3   OH229387   6.465   5.448  19.284  0.4884  0.2200 -0.1368
 1731TIP3    H129388   6.470   5.428  19.378  0.2798  0.2927 -0.1094
 1731TIP3    H229389   6.521   5.524  19.273  0.1569  0.4904  0.0114
 1732TIP3   OH229390   2.560   0.883  17.545  0.0643 -0.1527  0.1221
 1732TIP3    H129391   2.513   0.842  17.472  1.4419  0.2371 -1.0519
 1732TIP3    H229392   2.603   0.959  17.505  0.0903  0.6263  1.5683
 1733TIP3   OH229393   0.882   2.182  16.515  0.0954 -0.4423  0.0286
 1733TIP3    H129394   0.927   2.245  16.460 -2.7667  1.5421 -0.2848
 1733TIP3    H229395   0.842   2.235  16.584  2.9517 -2.7247  3.8396
 1734TIP3   OH229396   5.546   0.972  19.420  0.0390 -0.2351  0.4735
 1734TIP3    H129397   5.568   0.991  19.329  0.9736  1.0752  0.9389
 1734TIP3    H229398   5.458   1.007  19.432  0.4941  0.9750  0.4440
 1735TIP3   OH229399   0.905   1.291  18.291 -0.1479  0.1802  0.2772
 1735TIP3    H129400   0.935   1.378  18.267  1.0704 -0.1756  0.4495
 1735TIP3    H229401   0.892   1.246  18.207 -0.7383  0.4960  0.1900
 1736TIP3   OH229402   6.655   2.219  19.022 -0.4866 -0.4915 -0.4110
 1736TIP3    H129403   6.731   2.162  19.015  0.1026  0.2641 -0.2152
 1736TIP3    H229404   6.678   2.282  19.090 -1.3701 -0.3822 -0.2013
 1737TIP3   OH229405   4.441   7.634  18.393 -0.0780  0.0587  0.1179
 1737TIP3    H129406   4.407   7.584  18.318  1.5415 -1.7943  0.5404
 1737TIP3    H229407   4.523   7.671  18.361 -0.5667  1.2850  0.2606
 1738TIP3   OH229408   4.719   7.093  18.407  0.0541  0.2078 -0.3655
 1738TIP3    H129409   4.797   7.149  18.409  0.3694 -0.2257  0.7741
 1738TIP3    H229410   4.753   7.005  18.426 -0.5828 -0.1689 -0.9518
 1739TIP3   OH229411   1.918   6.292  18.903  0.8317 -0.0193 -0.3555
 1739TIP3    H129412   1.881   6.366  18.855  0.5542  1.4631  1.9925
 1739TIP3    H229413   1.941   6.328  18.989  0.8665 -2.6264  0.8162
 1740TIP3   OH229414   5.249   4.609  19.746  0.1562 -1.1002 -0.5073
 1740TIP3    H129415   5.297   4.684  19.782  0.5211 -1.3758 -0.4106
 1740TIP3    H229416   5.276   4.535  19.800 -0.9736 -1.1297  0.0328
 1741TIP3   OH229417   7.509   3.990  19.273 -0.2331  0.6058  0.2251
 1741TIP3    H129418   7.470   4.043  19.203 -0.5458  0.1694  0.0632
 1741TIP3    H229419   7.443   3.923  19.291  1.4906 -1.9135 -1.9611
 1742TIP3   OH229420   0.840   2.770  18.029 -0.0896 -0.2872 -0.4086
 1742TIP3    H129421   0.824   2.814  18.113  0.1962 -0.0045 -0.4980
 1742TIP3    H229422   0.774   2.807  17.970  0.7493  0.7330 -0.7300
 1743TIP3   OH229423   3.764   1.292  18.852  0.0218  0.0956  0.7036
 1743TIP3    H129424   3.844   1.243  18.866 -0.6093 -1.2230 -0.1593
 1743TIP3    H229425   3.695   1.235  18.885 -0.5824  1.2551  1.5426
 1744TIP3   OH229426   3.116   4.758  19.246 -0.5077 -0.0128  0.3729
 1744TIP3    H129427   3.193   4.702  19.245 -0.5089 -0.0135 -0.4918
 1744TIP3    H229428   3.042   4.697  19.241 -0.6252 -0.0664  2.0664
 1745TIP3   OH229429   0.663   5.163  18.707  0.0644 -0.3061 -0.1927
 1745TIP3    H129430   0.731   5.151  18.639  0.1634  2.8164 -0.7751
 1745TIP3    H229431   0.707   5.139  18.789  1.7239  1.0118 -0.6383
 1746TIP3   OH229432   2.398   6.082  19.251 -0.1029 -0.1612  0.3215
 1746TIP3    H129433   2.488   6.050  19.243  0.2808  0.2920  2.3030
 1746TIP3    H229434   2.406   6.177  19.247 -0.9599 -0.0959 -2.9836
 1747TIP3   OH229435   2.873   1.987  18.055 -0.5645 -0.4143 -0.0441
 1747TIP3    H129436   2.924   1.960  18.132 -0.4696 -1.3523 -0.4196
 1747TIP3    H229437   2.937   1.990  17.984 -1.0338 -1.7400 -0.5509
 1748TIP3   OH229438   2.395   6.995  18.281  0.0900  0.1057  0.2971
 1748TIP3    H129439   2.471   6.997  18.340  0.3956  2.0322 -0.0899
 1748TIP3    H229440   2.322   7.022  18.336 -0.3027 -1.5068  0.6067
 1749TIP3   OH229441   3.113   1.471  19.074  0.0111 -0.0181 -0.1680
 1749TIP3    H129442   3.088   1.545  19.130  0.1852  0.4196 -0.6611
 1749TIP3    H229443   3.181   1.426  19.123  0.4543  0.5987 -0.1976
 1750TIP3   OH229444   3.527   3.914  19.643  0.5159 -0.1649  0.3210
 1750TIP3    H129445   3.489   3.826  19.636 -1.3719  0.5165  1.3133
 1750TIP3    H229446   3.458   3.972  19.610  1.6953  0.9705 -0.2088
 1751TIP3   OH229447   4.456   7.285  18.664  0.7192 -0.3667 -0.0675
 1751TIP3    H129448   4.454   7.305  18.571  0.6931 -1.0058 -0.2077
 1751TIP3    H229449   4.411   7.201  18.672  2.3193 -1.2262  0.2751
 1752TIP3   OH229450   0.876   0.829  18.737  0.2992 -0.5461  0.0807
 1752TIP3    H129451   0.791   0.867  18.715  0.2778  0.1774  1.3146
 1752TIP3    H229452   0.932   0.851  18.662 -0.4476 -0.5709 -0.5019
 1753TIP3   OH229453   1.360   3.353  18.636 -0.2997 -0.0340 -0.0809
 1753TIP3    H129454   1.385   3.361  18.728  0.2683 -2.4573  0.0565
 1753TIP3    H229455   1.435   3.310  18.594 -0.4577  1.1994 -1.7468
 1754TIP3   OH229456   3.176   2.044  18.058  0.8768  0.1195 -0.8954
 1754TIP3    H129457   3.241   2.025  18.125  0.9076  0.5751 -0.7913
 1754TIP3    H229458   3.188   2.137  18.038  0.2997  0.1959 -0.9152
 1755TIP3   OH229459   0.371   6.339  17.060 -0.1328 -0.0310 -0.1950
 1755TIP3    H129460   0.296   6.280  17.048  1.3698 -1.7875 -1.4440
 1755TIP3    H229461   0.375   6.390  16.979  0.4417 -0.4752 -0.4536
 1756TIP3   OH229462   5.423   4.408  17.241  0.2490 -0.0576  0.0510
 1756TIP3    H129463   5.366   4.472  17.283 -0.2197  0.8294 -1.8604
 1756TIP3    H229464   5.494   4.460  17.203  1.8739 -1.0539  1.5646
 1757TIP3   OH229465   4.369   7.268  17.069  0.2488  0.6896 -0.3849
 1757TIP3    H129466   4.451   7.283  17.023  0.7213 -0.5955  0.0118
 1757TIP3    H229467   4.331   7.191  17.025  1.1811 -1.2143  1.9104
 1758TIP3   OH229468   4.847   4.753  18.762 -0.6389 -0.5273  0.2926
 1758TIP3    H129469   4.804   4.832  18.729  1.4158  0.7002  0.3511
 1758TIP3    H229470   4.863   4.699  18.684 -1.5586 -0.6417  0.1799
 1759TIP3   OH229471   6.680   0.387  17.682 -0.0470  0.2925 -0.3352
 1759TIP3    H129472   6.642   0.301  17.664  1.3258 -0.4323  0.1099
 1759TIP3    H229473   6.628   0.421  17.755 -0.6580 -0.1079 -0.5673
 1760TIP3   OH229474   5.692   6.903  18.214 -0.0760  0.2534 -0.2716
 1760TIP3    H129475   5.723   6.929  18.127  1.9487  0.0788  0.3507
 1760TIP3    H229476   5.604   6.870  18.199 -0.4475  1.8784 -1.9782
 1761TIP3   OH229477   3.321   5.882  17.225 -0.8216  0.5017 -0.6224
 1761TIP3    H129478   3.355   5.971  17.218 -0.7789  0.6328  0.9571
 1761TIP3    H229479   3.227   5.890  17.206 -1.0122  1.0733  0.4789
 1762TIP3   OH229480   0.760   3.737  17.392  0.0866 -0.8790  0.3302
 1762TIP3    H129481   0.747   3.787  17.473  0.7400 -0.0129 -0.0930
 1762TIP3    H229482   0.835   3.680  17.411  0.2297 -0.6876  0.3382
 1763TIP3   OH229483   5.744   0.120  18.604 -0.0803 -0.4520  0.3229
 1763TIP3    H129484   5.727   0.075  18.687  2.3119 -0.7166  0.7615
 1763TIP3    H229485   5.658   0.132  18.564 -1.0889 -2.3841  1.7751
 1764TIP3   OH229486   5.721   2.519  19.043 -0.2235 -0.3363  0.1958
 1764TIP3    H129487   5.746   2.562  18.961  1.4515  0.2579  0.9800
 1764TIP3    H229488   5.635   2.481  19.024  0.3405 -0.6824 -2.0069
 1765TIP3   OH229489   7.395   7.494  19.124  0.1061 -0.0708 -0.1535
 1765TIP3    H129490   7.325   7.461  19.068  0.5083 -1.7409  0.2694
 1765TIP3    H229491   7.353   7.559  19.180 -0.4568  1.1175 -1.8684
 1766TIP3   OH229492   4.100   7.097  16.976 -0.2712  0.1709 -0.3277
 1766TIP3    H129493   4.136   7.150  16.904 -0.4883  0.4634 -0.2234
 1766TIP3    H229494   4.177   7.056  17.015  0.3663  3.0018  1.7063
 1767TIP3   OH229495   0.458   4.887  19.403  0.0272 -0.0901 -0.0405
 1767TIP3    H129496   0.509   4.862  19.480 -1.0990 -0.1219  0.7169
 1767TIP3    H229497   0.425   4.975  19.424  2.1378  1.2391 -1.7524
 1768TIP3   OH229498   6.888   1.375  17.711 -0.0226  0.2168  0.5892
 1768TIP3    H129499   6.954   1.396  17.645  0.0722  0.1628  0.6686
 1768TIP3    H229500   6.937   1.355  17.790  0.0894 -2.9483 -0.1489
 1769TIP3   OH229501   4.895   2.459  19.242 -0.4447  0.4015  0.1648
 1769TIP3    H129502   4.952   2.435  19.316  0.0092 -1.9004 -0.8293
 1769TIP3    H229503   4.940   2.532  19.200  0.4301  0.3050  0.8981
 1770TIP3   OH229504   5.570   4.207  19.321 -0.4579 -0.0489  0.2046
 1770TIP3    H129505   5.530   4.233  19.404  0.0845  0.0088  0.4504
 1770TIP3    H229506   5.607   4.288  19.286 -0.5887 -0.0947 -0.0367
 1771TIP3   OH229507   1.111   1.161  18.820 -0.5190 -0.3837  0.2817
 1771TIP3    H129508   1.136   1.168  18.728 -1.7550 -2.1821 -0.2462
 1771TIP3    H229509   1.043   1.228  18.831  0.6060  0.8007  0.3090
 1772TIP3   OH229510   0.081   5.761  19.656  0.0804  0.7119 -0.0229
 1772TIP3    H129511   0.011   5.701  19.632  0.5246  0.5782 -1.0630
 1772TIP3    H229512   0.139   5.710  19.712  0.0873  0.3858 -0.3281
 1773TIP3   OH229513   2.323   0.532  17.763 -0.1810  0.1539  0.0942
 1773TIP3    H129514   2.410   0.554  17.796  0.6540 -0.8071 -1.3651
 1773TIP3    H229515   2.338   0.506  17.672 -1.7265 -1.9030  0.3700
 1774TIP3   OH229516   5.637   3.095  18.306  0.2335  0.2521  0.3236
 1774TIP3    H129517   5.573   3.165  18.313  1.8821  2.0799 -1.4397
 1774TIP3    H229518   5.633   3.068  18.214  1.4405 -0.0953  0.3482
 1775TIP3   OH229519   1.748   0.003  19.430  1.0965  0.1795  0.0320
 1775TIP3    H129520   1.762   0.017  19.523  1.7845  1.4183 -0.2325
 1775TIP3    H229521   1.653   0.009  19.418  0.9491 -0.5926  0.7224
 1776TIP3   OH229522   5.380   0.001  17.423  0.2269 -0.3898 -0.1179
 1776TIP3    H129523   5.425  -0.074  17.383  0.6414 -0.3663  0.2953
 1776TIP3    H229524   5.388   0.071  17.358  1.1220 -0.2774  0.0976
 1777TIP3   OH229525   2.692   4.680  16.958  0.4443  0.5632  0.5222
 1777TIP3    H129526   2.612   4.712  16.916 -0.7748 -1.5013  1.1294
 1777TIP3    H229527   2.688   4.714  17.048 -0.4716 -0.6118  0.9486
 1778TIP3   OH229528   7.242   0.584  18.574 -0.1889 -0.9434 -0.2879
 1778TIP3    H129529   7.321   0.576  18.520  1.1108  2.7787  0.7092
 1778TIP3    H229530   7.174   0.611  18.513  0.7670  1.2116 -0.5069
 1779TIP3   OH229531   2.554   6.585  18.587  0.2303 -0.1267 -0.0352
 1779TIP3    H129532   2.555   6.680  18.603 -0.9310 -0.1482  0.2701
 1779TIP3    H229533   2.644   6.557  18.603  0.8376  1.0748 -1.1202
 1780TIP3   OH229534   6.078   1.312  17.997 -0.4710 -0.4896 -0.3273
 1780TIP3    H129535   6.124   1.316  18.080  0.3015 -3.0234 -0.5629
 1780TIP3    H229536   5.986   1.327  18.019 -0.0308  0.8388  0.6753
 1781TIP3   OH229537   0.915   2.523  18.797  0.5514  0.5363 -0.3205
 1781TIP3    H129538   0.849   2.477  18.848 -0.4371  1.1931 -0.9565
 1781TIP3    H229539   0.947   2.459  18.734  0.4903  0.2306 -0.0403
 1782TIP3   OH229540   2.313   5.608  18.227 -0.0487 -0.0991  0.0380
 1782TIP3    H129541   2.281   5.561  18.304  0.2241  0.4875  0.5161
 1782TIP3    H229542   2.317   5.541  18.158 -1.0524 -0.4548  0.3085
 1783TIP3   OH229543   5.405   7.580  19.436 -0.5763  0.0673  0.0108
 1783TIP3    H129544   5.341   7.572  19.506 -1.2382 -0.4253 -0.6377
 1783TIP3    H229545   5.462   7.504  19.448 -0.7072 -0.0335  0.0005
 1784TIP3   OH229546   4.205   3.799  18.499 -0.3927 -0.0901  0.2192
 1784TIP3    H129547   4.157   3.882  18.507 -0.2258  0.0857 -0.5260
 1784TIP3    H229548   4.297   3.824  18.510 -0.3592 -0.2034  0.1888
 1785TIP3   OH229549   5.975   4.672  18.125  0.1631  0.2089  0.2050
 1785TIP3    H129550   5.995   4.713  18.210  0.9676  0.9648 -0.3339
 1785TIP3    H229551   6.060   4.653  18.087 -0.1975 -0.1501 -0.4333
 1786TIP3   OH229552   2.675   5.430  16.795  0.4046 -0.0276  0.3331
 1786TIP3    H129553   2.699   5.522  16.785 -0.5558  0.1112 -1.0123
 1786TIP3    H229554   2.758   5.383  16.790  0.9670  0.7785  1.5629
 1787TIP3   OH229555   1.098   0.623  17.008  0.0235  0.0164  0.7101
 1787TIP3    H129556   1.022   0.565  17.004  0.2166 -0.3080  1.5291
 1787TIP3    H229557   1.170   0.570  16.976 -0.4525  1.0336 -2.3429
 1788TIP3   OH229558   7.430   1.584  16.519 -0.1598  0.4835 -0.3824
 1788TIP3    H129559   7.482   1.590  16.599 -0.9789  0.8114  0.1417
 1788TIP3    H229560   7.472   1.645  16.458 -0.1153  0.9822  0.1409
 1789TIP3   OH229561   3.654   6.798  17.920 -0.6385  0.3587  0.4280
 1789TIP3    H129562   3.652   6.781  18.014  1.4287  0.3412  0.5128
 1789TIP3    H229563   3.735   6.757  17.890 -1.2113  0.4562 -1.3529
 1790TIP3   OH229564   0.423   2.602  16.801  0.4257  0.5464  0.2320
 1790TIP3    H129565   0.370   2.596  16.880 -0.4949 -1.1176 -0.4410
 1790TIP3    H229566   0.425   2.695  16.780  0.4645  0.9855  2.0385
 1791TIP3   OH229567   6.517   7.356  19.707  0.5568 -0.1490  0.8038
 1791TIP3    H129568   6.483   7.425  19.763 -2.2264  0.1524 -1.0479
 1791TIP3    H229569   6.575   7.401  19.645  0.9540  0.0579  1.3243
 1792TIP3   OH229570   4.986   5.106  18.888  0.0706 -0.3378  0.6047
 1792TIP3    H129571   4.926   5.032  18.900 -0.5508 -0.2775 -1.7294
 1792TIP3    H229572   4.969   5.162  18.964 -1.1459 -1.4470  1.1969
 1793TIP3   OH229573   6.982   1.561  17.430 -0.3657 -0.2001 -0.7650
 1793TIP3    H129574   7.039   1.550  17.354  0.4433  0.2896 -0.2420
 1793TIP3    H229575   7.041   1.584  17.502 -1.2204  0.3018 -0.1985
 1794TIP3   OH229576   5.635   2.261  19.471 -0.3880 -0.4147 -0.3971
 1794TIP3    H129577   5.549   2.254  19.512 -0.8003 -0.6829 -1.2907
 1794TIP3    H229578   5.662   2.352  19.487 -0.9480 -0.2589 -0.3317
 1795TIP3   OH229579   5.604   0.224  18.936  0.7820 -0.4363 -0.4068
 1795TIP3    H129580   5.548   0.273  18.996  0.9262  0.0419 -0.6580
 1795TIP3    H229581   5.675   0.284  18.914  0.6067 -0.5132 -1.2418
 1796TIP3   OH229582   6.109   7.168  18.365  0.2696 -0.6252 -0.1014
 1796TIP3    H129583   6.094   7.074  18.364 -0.0702 -0.5777  0.3156
 1796TIP3    H229584   6.049   7.202  18.298  1.6146 -0.8687 -1.4822
 1797TIP3   OH229585   0.019   5.571  19.113 -0.1663 -0.2925 -0.6079
 1797TIP3    H129586  -0.040   5.645  19.107 -0.3004 -0.3144  0.3080
 1797TIP3    H229587  -0.032   5.497  19.080  0.3331  0.1924 -2.5727
 1798TIP3   OH229588   0.526   7.639  17.304  0.2689 -0.0979  0.0750
 1798TIP3    H129589   0.530   7.665  17.396  1.3020 -1.1036  0.3313
 1798TIP3    H229590   0.466   7.702  17.264 -2.0530 -0.9803  1.8813
 1799TIP3   OH229591   0.447   7.630  18.945  0.3467 -0.5445 -0.0591
 1799TIP3    H129592   0.410   7.668  18.865 -2.0138 -2.3852  0.0605
 1799TIP3    H229593   0.529   7.591  18.917  0.3945  0.3316 -1.2082
 1800TIP3   OH229594   6.294   4.645  19.203  0.3407  0.0351  0.0466
 1800TIP3    H129595   6.227   4.583  19.173  1.1706 -1.6832  1.5275
 1800TIP3    H229596   6.342   4.597  19.270  0.2869  2.6778  2.1658
 1801TIP3   OH229597   6.313   5.586  18.255  0.0204 -0.4673 -0.3625
 1801TIP3    H129598   6.218   5.593  18.242  0.1097  1.0125 -0.3406
 1801TIP3    H229599   6.333   5.494  18.236 -1.2453 -0.5445 -1.4561
 1802TIP3   OH229600   2.145   6.464  17.742  0.4604 -0.2281  0.0625
 1802TIP3    H129601   2.108   6.458  17.830 -0.6347  0.1494 -0.3629
 1802TIP3    H229602   2.131   6.555  17.715  0.1759 -0.4966 -0.7517
 1803TIP3   OH229603   7.002   3.232  18.479  0.1121  0.6883 -0.4466
 1803TIP3    H129604   6.961   3.154  18.442  1.4284 -0.3769  0.2913
 1803TIP3    H229605   6.995   3.221  18.573 -1.7665  2.6272 -0.2693
 1804TIP3   OH229606   6.390   0.818  18.459 -0.1510  0.5166 -0.0806
 1804TIP3    H129607   6.454   0.881  18.427 -2.2273  1.3034 -3.0988
 1804TIP3    H229608   6.313   0.870  18.482 -0.6960 -0.6378  0.8826
 1805TIP3   OH229609   2.134   6.458  18.351  0.2596 -0.0640  0.1083
 1805TIP3    H129610   2.227   6.466  18.372  0.2972 -1.6356  0.7325
 1805TIP3    H229611   2.108   6.375  18.391 -2.1868  1.7678  2.7375
 1806TIP3   OH229612   1.712   5.471  18.033  0.1178  0.1167  0.5764
 1806TIP3    H129613   1.673   5.473  18.120 -0.2996  1.0112  0.3803
 1806TIP3    H229614   1.645   5.510  17.976  0.8494  0.6476  0.0562
 1807TIP3   OH229615   1.502   3.218  18.276 -0.1356  0.2745 -0.1538
 1807TIP3    H129616   1.529   3.291  18.219 -2.4128  0.1869 -1.4679
 1807TIP3    H229617   1.407   3.216  18.269 -0.1882 -2.5710  0.1967
 1808TIP3   OH229618   1.887   4.584  17.205  0.1043 -0.6293  0.0427
 1808TIP3    H129619   1.938   4.575  17.125  0.5073 -1.3862  0.3755
 1808TIP3    H229620   1.867   4.494  17.231 -2.7852 -0.3656 -0.9482
 1809TIP3   OH229621   4.065   2.328  16.880 -0.1735 -0.0341 -0.0607
 1809TIP3    H129622   3.992   2.375  16.922  0.5607  0.4338  0.7217
 1809TIP3    H229623   4.133   2.394  16.869  1.6563 -1.2117  2.8564
 1810TIP3   OH229624   4.163   2.093  19.266 -0.5880  0.1065  0.6654
 1810TIP3    H129625   4.238   2.089  19.208 -0.9870 -1.4943  0.2312
 1810TIP3    H229626   4.152   2.004  19.300 -2.2493  0.2983  0.7517
 1811TIP3   OH229627   1.639   0.451  19.184  0.0955  0.1249 -0.3730
 1811TIP3    H129628   1.717   0.398  19.171 -0.1522 -0.9344  1.8506
 1811TIP3    H229629   1.567   0.396  19.151 -0.0263 -0.4707  0.7983
 1812TIP3   OH229630   5.195   3.964  18.121 -0.2078 -0.2850 -0.5343
 1812TIP3    H129631   5.155   3.889  18.078  0.0293 -0.2881 -0.7550
 1812TIP3    H229632   5.268   3.988  18.064  1.7168 -1.8789  1.1066
 1813TIP3   OH229633   4.770   1.817  18.045 -0.0722  0.0376 -0.1409
 1813TIP3    H129634   4.797   1.908  18.058  1.7781 -0.0217 -2.7309
 1813TIP3    H229635   4.704   1.821  17.976  0.5146 -0.6043 -0.7637
 1814TIP3   OH229636   4.561   0.255  18.895  0.1489 -0.0300  0.2792
 1814TIP3    H129637   4.614   0.259  18.975 -0.3989  0.7519  0.6053
 1814TIP3    H229638   4.552   0.346  18.868  0.3832 -0.2992 -0.7163
 1815TIP3   OH229639   2.992   2.474  17.954  0.4032  0.2029 -0.2486
 1815TIP3    H129640   2.933   2.420  17.903  0.1987 -1.7306  1.8691
 1815TIP3    H229641   3.078   2.463  17.913  0.2895 -1.4836 -0.0895
 1816TIP3   OH229642   1.381   5.443  19.004 -0.0460  0.4708 -0.4937
 1816TIP3    H129643   1.332   5.387  18.944 -1.4912  0.3779  0.7189
 1816TIP3    H229644   1.336   5.528  18.999  0.8366  0.9271 -0.7627
 1817TIP3   OH229645   5.765   3.411  18.678  0.1883 -0.0840  0.4795
 1817TIP3    H129646   5.779   3.386  18.769  2.5713 -2.1495 -0.3490
 1817TIP3    H229647   5.739   3.330  18.634  0.4799  0.5496 -0.9204
 1818TIP3   OH229648   7.027   3.955  17.308  0.2413 -0.0218 -0.3034
 1818TIP3    H129649   6.993   3.922  17.391 -2.3569 -0.8949 -1.5947
 1818TIP3    H229650   7.006   3.886  17.245  0.3488  1.4480 -2.0082
 1819TIP3   OH229651   3.941   3.292  17.558  0.0748  0.2211 -0.2529
 1819TIP3    H129652   3.893   3.302  17.640 -1.1959 -0.9779 -0.8093
 1819TIP3    H229653   3.915   3.368  17.505  1.2522  1.2460  0.5755
 1820TIP3   OH229654   0.572   0.175  17.934 -0.2475 -0.1273  0.3690
 1820TIP3    H129655   0.600   0.143  18.019 -0.7991 -0.1980  0.5317
 1820TIP3    H229656   0.479   0.198  17.947  0.0899  1.4160  0.2359
 1821TIP3   OH229657   6.307   0.031  18.675 -0.2666 -0.0446 -0.5181
 1821TIP3    H129658   6.271   0.033  18.763  0.7170  1.1368 -0.1070
 1821TIP3    H229659   6.352  -0.053  18.669  0.6947  0.3602  0.5635
 1822TIP3   OH229660   3.421   5.058  18.558  0.1272 -0.6281  0.2263
 1822TIP3    H129661   3.464   5.039  18.475  1.2588 -0.4180  0.7500
 1822TIP3    H229662   3.344   5.111  18.534  0.9650  0.2459 -0.6144
 1823TIP3   OH229663   3.099   2.433  18.431 -0.2312  0.0690 -0.5751
 1823TIP3    H129664   3.190   2.462  18.437 -0.4052  0.3921  0.7851
 1823TIP3    H229665   3.061   2.485  18.361  1.0308 -1.2122 -2.2900
 1824TIP3   OH229666   4.585   0.642  17.911  0.1621  0.4727  0.3238
 1824TIP3    H129667   4.649   0.671  17.976  0.6374  1.7858 -0.6814
 1824TIP3    H229668   4.636   0.630  17.831 -0.4169 -1.0885  0.1694
 1825TIP3   OH229669   7.173   2.472  17.349 -0.2653  0.1960 -0.3753
 1825TIP3    H129670   7.117   2.489  17.425  1.4694  0.9857  0.7876
 1825TIP3    H229671   7.120   2.499  17.274 -1.0723  1.9283  0.7490
 1826TIP3   OH229672   7.151   4.853  18.484  0.2610  0.2183 -0.8215
 1826TIP3    H129673   7.096   4.912  18.432  0.9260  1.7701  0.1360
 1826TIP3    H229674   7.141   4.884  18.574  1.0349 -0.8240 -0.3566
 1827TIP3   OH229675   6.921   2.586  18.141 -0.5553  0.3134  0.3752
 1827TIP3    H129676   6.873   2.536  18.075 -0.5726  0.0681  0.5704
 1827TIP3    H229677   6.926   2.675  18.106  0.4781 -0.0725 -0.5257
 1828TIP3   OH229678   5.359   4.413  17.792  0.2206 -0.1218 -0.6460
 1828TIP3    H129679   5.293   4.401  17.723 -0.8583  1.0553  0.1269
 1828TIP3    H229680   5.411   4.488  17.762  0.8243 -0.6462 -0.9441
 1829TIP3   OH229681   5.272   3.458  18.954 -0.4102  0.5076 -0.4796
 1829TIP3    H129682   5.364   3.457  18.980 -1.1051  0.9552  2.3240
 1829TIP3    H229683   5.256   3.547  18.924  0.0100  0.4845 -0.7741
 1830TIP3   OH229684   5.683   3.629  17.713  0.4455  0.4538  0.2761
 1830TIP3    H129685   5.754   3.639  17.649 -0.0489  1.0792 -0.1902
 1830TIP3    H229686   5.603   3.632  17.660  0.0270  0.9272  0.9219
 1831TIP3   OH229687   6.239   0.243  19.633  0.0740 -0.1873 -0.3362
 1831TIP3    H129688   6.314   0.184  19.639 -0.7767 -1.2358  0.3558
 1831TIP3    H229689   6.220   0.267  19.724 -0.7198 -0.3092 -0.4610
 1832TIP3   OH229690   7.210   5.681  17.793  0.3958 -0.6665 -0.2264
 1832TIP3    H129691   7.241   5.616  17.730 -0.6687 -1.1406 -0.2780
 1832TIP3    H229692   7.226   5.641  17.879  1.6561 -0.1067 -0.1782
 1833TIP3   OH229693   7.489   2.394  17.625  0.4507 -0.4216  0.1125
 1833TIP3    H129694   7.430   2.321  17.645 -1.2305  1.1800  1.3186
 1833TIP3    H229695   7.471   2.415  17.533 -0.6005 -0.2111  0.3545
 1834TIP3   OH229696   1.637   2.537  16.846 -0.0445  0.4248 -0.2758
 1834TIP3    H129697   1.589   2.614  16.877  0.7905  0.7712  0.1536
 1834TIP3    H229698   1.576   2.495  16.785 -1.1133  0.5614  0.6658
 1835TIP3   OH229699   4.771   6.110  19.058  0.0977  0.0006 -0.3052
 1835TIP3    H129700   4.824   6.190  19.050  0.6791 -0.3651 -0.1247
 1835TIP3    H229701   4.814   6.048  18.999  0.3448 -0.5529  0.4565
 1836TIP3   OH229702   6.243   2.793  16.962 -0.3041  0.6840 -0.5330
 1836TIP3    H129703   6.307   2.723  16.973  0.4472  1.1883 -1.4702
 1836TIP3    H229704   6.257   2.823  16.872 -1.8770  0.8010 -0.7578
 1837TIP3   OH229705   4.329   0.150  17.114 -0.2995  0.3316 -0.5715
 1837TIP3    H129706   4.293   0.199  17.040 -0.9220 -0.0914 -0.5575
 1837TIP3    H229707   4.324   0.059  17.087  1.2068  0.2821 -0.7523
 1838TIP3   OH229708   3.862   2.507  17.030 -0.4239 -0.2242  0.5675
 1838TIP3    H129709   3.824   2.594  17.038 -1.2007 -0.6366  1.5398
 1838TIP3    H229710   3.798   2.449  17.071  0.7290 -1.0770  1.2148
 1839TIP3   OH229711   4.581   0.576  17.568  0.0125 -0.5078 -0.3123
 1839TIP3    H129712   4.658   0.596  17.620  0.3816 -0.4940 -0.8572
 1839TIP3    H229713   4.611   0.511  17.504 -0.0068  0.6661 -1.5657
 1840TIP3   OH229714   1.536   5.820  18.650  0.1460 -0.0009 -0.2351
 1840TIP3    H129715   1.570   5.907  18.668  1.0518 -0.3339 -0.2674
 1840TIP3    H229716   1.485   5.797  18.728 -0.9749  0.9569 -0.6539
 1841TIP3   OH229717   3.533   5.675  17.342  0.7134  0.3163 -0.2989
 1841TIP3    H129718   3.558   5.707  17.255  0.1058 -0.6116 -0.8315
 1841TIP3    H229719   3.557   5.582  17.341  2.8988  0.8043  1.3877
 1842TIP3   OH229720   2.399   1.012  17.773 -0.0666  0.0917  0.0038
 1842TIP3    H129721   2.460   1.075  17.812 -0.3370  1.2660 -1.3890
 1842TIP3    H229722   2.453   0.957  17.717  0.3504 -1.7095  2.0142
 1843TIP3   OH229723   1.669   2.187  18.744  0.1693 -0.5539  1.0995
 1843TIP3    H129724   1.749   2.135  18.749 -1.1252 -2.7933  0.0986
 1843TIP3    H229725   1.676   2.233  18.661  0.3718 -0.8211  0.9661
 1844TIP3   OH229726   6.823   0.760  19.048  0.1454 -0.1867  0.2678
 1844TIP3    H129727   6.797   0.785  19.136 -0.4040 -0.8363  0.3040
 1844TIP3    H229728   6.741   0.756  18.999  0.5941  2.0215 -0.7949
 1845TIP3   OH229729   7.155   6.860  18.840  0.0327  0.0892  0.1255
 1845TIP3    H129730   7.067   6.887  18.813 -0.7989 -1.8356  0.7162
 1845TIP3    H229731   7.139   6.795  18.909  1.9438  0.1067  0.6266
 1846TIP3   OH229732   6.899   2.428  18.544  0.2818  0.0576 -0.0935
 1846TIP3    H129733   6.929   2.381  18.467  0.9814  1.8860 -0.9911
 1846TIP3    H229734   6.977   2.472  18.577 -0.4847  1.1627  0.2873
 1847TIP3   OH229735   2.510   4.928  18.790  0.5972 -0.0050  0.6751
 1847TIP3    H129736   2.511   5.003  18.731  1.8122 -0.6736 -0.2077
 1847TIP3    H229737   2.446   4.868  18.752 -1.0804  0.9185  1.8954
 1848TIP3   OH229738   5.255   5.249  16.935 -0.0641 -1.1878  0.2298
 1848TIP3    H129739   5.185   5.287  16.881  1.4024  1.8788  0.2838
 1848TIP3    H229740   5.270   5.163  16.897 -2.0947 -0.9054 -1.4081
 1849TIP3   OH229741   4.770   4.849  19.222 -0.0397 -0.3917 -0.5963
 1849TIP3    H129742   4.707   4.778  19.229  0.0559 -0.3990  0.5087
 1849TIP3    H229743   4.832   4.833  19.294 -0.6838  1.4135  0.4510
 1850TIP3   OH229744   3.515   4.742  17.230  0.0608 -0.4159 -0.6572
 1850TIP3    H129745   3.497   4.785  17.146  0.7942 -2.2502 -1.8065
 1850TIP3    H229746   3.431   4.704  17.256  0.1200 -0.9380 -1.2188
 1851TIP3   OH229747   7.264   6.785  16.706  0.4407  0.7693 -0.0887
 1851TIP3    H129748   7.279   6.879  16.708  1.2542  0.7693 -2.5162
 1851TIP3    H229749   7.330   6.751  16.646 -0.4370 -1.2332 -0.0260
 1852TIP3   OH229750   2.031   2.944  17.016  0.0675  0.1906  0.1842
 1852TIP3    H129751   2.029   3.026  17.066  0.6536  0.2907  0.0439
 1852TIP3    H229752   2.109   2.950  16.961 -1.9912  1.2946 -2.8486
 1853TIP3   OH229753   0.794   2.299  18.986 -0.1254 -0.6568  0.5413
 1853TIP3    H129754   0.793   2.318  19.080 -0.9313  4.9437 -0.2430
 1853TIP3    H229755   0.730   2.229  18.975 -1.4402 -0.2091  4.0044
 1854TIP3   OH229756   6.840   2.698  18.386 -0.6526 -0.2029 -0.0248
 1854TIP3    H129757   6.917   2.688  18.442 -0.2853  0.2360 -0.4378
 1854TIP3    H229758   6.867   2.663  18.302 -0.6126  0.7230 -0.4091
 1855TIP3   OH229759   5.725   2.141  16.524 -0.1292 -0.3038  0.0357
 1855TIP3    H129760   5.724   2.049  16.496 -1.5394 -0.6382  1.0676
 1855TIP3    H229761   5.791   2.182  16.468 -1.0136 -1.4818 -1.9957
 1856TIP3   OH229762   3.193   1.051  16.751  0.1890 -0.7413  0.0327
 1856TIP3    H129763   3.220   1.028  16.662 -0.0651 -1.8775  0.2394
 1856TIP3    H229764   3.261   1.015  16.807  0.3955  0.0514  0.2985
 1857TIP3   OH229765   4.420   2.185  18.500 -0.3230  0.0796  0.4260
 1857TIP3    H129766   4.392   2.272  18.526  0.4394 -0.0414  1.7114
 1857TIP3    H229767   4.425   2.189  18.404  0.5562  1.7197  0.5057
 1858TIP3   OH229768   6.446   3.817  18.421 -0.2254 -0.2082 -0.2025
 1858TIP3    H129769   6.411   3.760  18.489 -0.4941 -0.5584 -0.6273
 1858TIP3    H229770   6.426   3.906  18.451 -1.1976 -0.3948 -0.2805
 1859TIP3   OH229771   7.193   7.171  17.294 -0.7846 -0.6393 -0.3526
 1859TIP3    H129772   7.213   7.213  17.377  0.6759  0.7184 -1.3422
 1859TIP3    H229773   7.211   7.078  17.309  1.0096 -0.2035  0.4219
 1860TIP3   OH229774   5.833   5.748  18.707  0.3181 -0.2034 -0.3295
 1860TIP3    H129775   5.875   5.766  18.622  0.6372  1.9048  0.2204
 1860TIP3    H229776   5.887   5.795  18.771 -1.4046  0.4484  0.7201
 1861TIP3   OH229777   3.118   6.692  18.419 -0.1087 -0.2560 -0.5362
 1861TIP3    H129778   3.112   6.632  18.493  1.0268 -0.4605 -0.5976
 1861TIP3    H229779   3.209   6.722  18.419 -0.7823  2.0337 -0.0613
 1862TIP3   OH229780   4.536   4.013  19.313 -0.0542  0.1275 -0.3177
 1862TIP3    H129781   4.490   3.976  19.388 -0.1344 -0.2640 -0.5552
 1862TIP3    H229782   4.589   3.940  19.280  0.8988  0.6307  0.0817
 1863TIP3   OH229783   2.990   7.553  17.825 -0.3581  0.0675  0.6808
 1863TIP3    H129784   2.897   7.553  17.801 -0.6303 -1.9501  1.5021
 1863TIP3    H229785   2.991   7.516  17.913  1.2270  0.0746  0.6859
 1864TIP3   OH229786   6.278   4.181  19.595  0.1304  0.0833 -0.3761
 1864TIP3    H129787   6.363   4.164  19.554  0.3071  1.9903 -0.8865
 1864TIP3    H229788   6.222   4.209  19.523 -0.5381  0.1838  0.1753
 1865TIP3   OH229789   2.304   1.448  18.657  0.7619 -0.2808  0.3403
 1865TIP3    H129790   2.370   1.516  18.672 -0.9153  1.1791  1.5033
 1865TIP3    H229791   2.275   1.422  18.744 -0.7889 -0.2694 -0.1386
 1866TIP3   OH229792   6.228   3.859  17.494 -0.3812 -0.0442 -0.1641
 1866TIP3    H129793   6.291   3.798  17.456 -1.1513 -0.2668 -1.1368
 1866TIP3    H229794   6.168   3.880  17.422 -1.2778  0.3386  0.6660
 1867TIP3   OH229795   7.584   7.661  17.596  0.2254 -0.2365  0.2087
 1867TIP3    H129796   7.612   7.587  17.542 -0.2593  0.8004 -1.5436
 1867TIP3    H229797   7.602   7.633  17.686  1.4447 -1.8731 -0.4850
 1868TIP3   OH229798   0.665   1.154  19.145 -0.0157  0.0780 -0.3149
 1868TIP3    H129799   0.732   1.111  19.093 -1.5822 -1.5497 -1.0967
 1868TIP3    H229800   0.614   1.204  19.081 -0.3065  0.2860  0.0729
 1869TIP3   OH229801   0.961   1.532  17.189 -0.5047 -0.4348  0.6009
 1869TIP3    H129802   1.047   1.558  17.221 -1.0849 -1.0252  2.7459
 1869TIP3    H229803   0.918   1.615  17.167  0.1921 -0.0761  0.5520
 1870TIP3   OH229804   5.332   5.651  16.958 -0.0312  0.0247 -0.2789
 1870TIP3    H129805   5.241   5.676  16.942  0.6889  1.3570 -2.7545
 1870TIP3    H229806   5.363   5.714  17.024 -0.3996  0.7212 -0.7649
 1871TIP3   OH229807   5.286   5.188  19.189  0.1881  0.0372  0.2255
 1871TIP3    H129808   5.322   5.168  19.102 -1.3501 -0.3662 -0.3448
 1871TIP3    H229809   5.203   5.141  19.192 -0.5429  1.3378  1.3029
 1872TIP3   OH229810   3.779   2.131  17.527 -0.3515  0.3766  0.3634
 1872TIP3    H129811   3.741   2.065  17.470 -0.7240  1.1132 -0.2667
 1872TIP3    H229812   3.706   2.162  17.581 -0.1318  0.1234  0.8132
 1873TIP3   OH229813   3.210   3.225  17.951  0.3832  0.3048  0.2696
 1873TIP3    H129814   3.228   3.254  17.862 -0.7524  0.0783 -0.0556
 1873TIP3    H229815   3.145   3.287  17.984  0.7280  0.3321  0.9050
 1874TIP3   OH229816   5.876   2.916  17.563  0.3569  0.2247  0.6817
 1874TIP3    H129817   5.961   2.922  17.520  1.4316  0.3147  2.7345
 1874TIP3    H229818   5.817   2.965  17.506  1.1762 -1.5847 -1.8831
 1875TIP3   OH229819   5.438   2.298  17.593 -0.4489 -0.0679  0.4460
 1875TIP3    H129820   5.493   2.351  17.651  1.3220 -0.6060 -0.6695
 1875TIP3    H229821   5.383   2.248  17.653  0.3419  0.4140  1.6263
 1876TIP3   OH229822   6.224   2.705  17.388  0.6050 -0.2792  0.4532
 1876TIP3    H129823   6.144   2.756  17.391  0.0672 -0.9307 -1.4597
 1876TIP3    H229824   6.209   2.631  17.447 -0.8316 -1.2079 -1.0099
 1877TIP3   OH229825   0.086   3.417  18.688  0.3827  0.1300 -0.3956
 1877TIP3    H129826   0.105   3.485  18.752 -1.2083 -0.1303  0.3999
 1877TIP3    H229827   0.098   3.460  18.603 -0.7515  1.4848  0.0857
 1878TIP3   OH229828   1.065   0.262  18.641 -0.2929 -0.1473  0.7598
 1878TIP3    H129829   1.074   0.223  18.554  3.9408 -0.4598  1.0993
 1878TIP3    H229830   1.079   0.356  18.627  0.2966 -0.1848  1.0377
 1879TIP3   OH229831   7.173   0.281  17.768 -0.8373 -0.1991 -0.3760
 1879TIP3    H129832   7.201   0.313  17.682 -1.0715  0.8014 -0.0955
 1879TIP3    H229833   7.081   0.259  17.757 -1.5099  2.0796  0.1459
 1880TIP3   OH229834   0.350   2.206  19.288  0.3164 -0.3086  0.1252
 1880TIP3    H129835   0.354   2.299  19.309  2.5035 -0.0831 -1.0599
 1880TIP3    H229836   0.390   2.163  19.363 -0.9231 -0.3573  0.7892
 1881TIP3   OH229837   6.487   1.940  19.226  0.1583  0.3812 -0.4948
 1881TIP3    H129838   6.454   2.030  19.225 -0.0117  0.3169 -0.7187
 1881TIP3    H229839   6.443   1.899  19.300 -0.5645  0.1854 -1.0258
 1882TIP3   OH229840   2.286   3.902  17.110 -0.2605  0.4718 -0.2316
 1882TIP3    H129841   2.303   3.990  17.142  0.2137  0.2290  0.2016
 1882TIP3    H229842   2.303   3.845  17.186  0.3454 -0.0707 -0.7591
 1883TIP3   OH229843   5.341   4.223  19.192 -0.6409 -0.0224 -0.4237
 1883TIP3    H129844   5.355   4.317  19.205 -0.5057 -0.0951 -0.0134
 1883TIP3    H229845   5.412   4.182  19.241 -2.2875 -0.3949  1.8541
 1884TIP3   OH229846   4.155   1.335  17.513 -0.7785 -0.4310  0.3915
 1884TIP3    H129847   4.219   1.404  17.495 -0.6507 -0.6305  0.0600
 1884TIP3    H229848   4.106   1.326  17.431 -2.1230  0.6284  1.0453
 1885TIP3   OH229849   2.026   4.886  18.772  0.1667  0.8018 -0.2367
 1885TIP3    H129850   2.016   4.860  18.863  1.0713  0.4699 -0.2255
 1885TIP3    H229851   2.113   4.925  18.767  0.4443  0.1016 -1.1229
 1886TIP3   OH229852   7.449   0.856  18.625  0.1123 -0.0698 -0.5449
 1886TIP3    H129853   7.408   0.905  18.696  0.5725  0.2994 -0.5313
 1886TIP3    H229854   7.384   0.790  18.601  0.5814 -1.2791  1.3103
 1887TIP3   OH229855   6.251   1.194  17.087 -0.4268 -0.1263 -0.6296
 1887TIP3    H129856   6.346   1.210  17.083 -0.4636  0.0137 -0.9843
 1887TIP3    H229857   6.213   1.265  17.036 -0.6369 -0.9874 -1.7086
 1888TIP3   OH229858   0.357   2.383  17.658 -0.2377 -0.6812  0.1420
 1888TIP3    H129859   0.369   2.403  17.565  0.5294  0.1939  0.4117
 1888TIP3    H229860   0.405   2.453  17.704 -2.0843 -0.0505  1.2363
 1889TIP3   OH229861   1.123   6.555  17.274  0.2610 -0.1879  0.2465
 1889TIP3    H129862   1.168   6.637  17.250 -0.8054  0.3895  0.1710
 1889TIP3    H229863   1.053   6.583  17.333 -1.4080 -0.7633 -1.3701
 1890TIP3   OH229864   0.833   0.251  17.629 -0.4865  0.7605  0.6691
 1890TIP3    H129865   0.835   0.301  17.711  2.7385  1.0675  0.5410
 1890TIP3    H229866   0.844   0.316  17.560  0.8716  0.2118  0.3195
 1891TIP3   OH229867   1.427   0.971  18.747 -0.0689  0.5070  0.4882
 1891TIP3    H129868   1.465   1.036  18.807  1.4306 -0.9588  1.1911
 1891TIP3    H229869   1.432   1.013  18.661  2.0823  0.8672  0.7346
 1892TIP3   OH229870   0.886   1.988  19.239  0.1581  0.1706  0.6012
 1892TIP3    H129871   0.978   2.013  19.249  1.2433 -2.8597 -0.6457
 1892TIP3    H229872   0.883   1.942  19.155 -2.4824 -0.0293  0.7347
 1893TIP3   OH229873   3.013   1.208  18.277  0.5026  0.1023 -0.5861
 1893TIP3    H129874   2.991   1.132  18.330  0.1507  0.5804 -0.0327
 1893TIP3    H229875   2.942   1.215  18.213 -0.0760  0.6197  0.0894
 1894TIP3   OH229876   4.777   3.210  18.054  0.3708 -0.3047 -0.0238
 1894TIP3    H129877   4.831   3.278  18.096 -1.1976  1.6254 -0.9604
 1894TIP3    H229878   4.793   3.131  18.106  0.5547  1.3078  2.5660
 1895TIP3   OH229879   5.829   3.760  18.103  0.3901  0.1428  0.3274
 1895TIP3    H129880   5.789   3.726  18.183 -0.2813 -0.1657 -0.1272
 1895TIP3    H229881   5.801   3.851  18.099  0.1590  0.0719  0.2874
 1896TIP3   OH229882   4.123   1.518  18.314  0.4165  0.1755  0.0692
 1896TIP3    H129883   4.164   1.572  18.246  2.0015  1.5079  1.9634
 1896TIP3    H229884   4.029   1.535  18.304  0.6311  0.6268 -1.5237
 1897TIP3   OH229885   6.848   6.852  18.860 -0.5927  0.0156  0.4999
 1897TIP3    H129886   6.775   6.836  18.920 -0.8388  1.3416  0.5907
 1897TIP3    H229887   6.815   6.920  18.801  0.3789  0.2299  0.1889
 1898TIP3   OH229888   7.623   6.820  17.854 -0.0451  0.2470  0.5650
 1898TIP3    H129889   7.703   6.872  17.854  0.0377  0.1733  2.1217
 1898TIP3    H229890   7.552   6.885  17.862 -0.2629  0.3954 -1.8482
 1899TIP3   OH229891   6.998   5.633  18.629  0.2560  0.3862 -0.4377
 1899TIP3    H129892   6.921   5.602  18.581  0.0668  1.3024 -0.7443
 1899TIP3    H229893   6.975   5.621  18.721 -0.1184  0.3160 -0.5374
 1900TIP3   OH229894   4.867   1.241  17.181 -0.7032  1.1263  0.1961
 1900TIP3    H129895   4.908   1.318  17.143  0.3399  0.6258  0.2739
 1900TIP3    H229896   4.837   1.269  17.268 -1.4057  1.7548 -0.2342
 1901TIP3   OH229897   7.671   2.191  18.222 -0.5991  0.2232 -0.0036
 1901TIP3    H129898   7.610   2.175  18.149  0.2965  0.2699 -0.7878
 1901TIP3    H229899   7.617   2.184  18.300 -1.6262  0.3302 -0.6788
 1902TIP3   OH229900   1.608   3.983  17.904 -0.2756  0.0655 -0.0519
 1902TIP3    H129901   1.548   4.031  17.847  1.0608  1.3362 -0.4556
 1902TIP3    H229902   1.598   4.026  17.990  1.4916  1.6890 -0.5930
 1903TIP3   OH229903   5.228   4.376  17.560 -0.8495 -0.2863 -0.8546
 1903TIP3    H129904   5.299   4.410  17.505 -0.0890  3.0843  1.9016
 1903TIP3    H229905   5.148   4.411  17.522 -0.6238 -0.3710 -1.4121
 1904TIP3   OH229906   0.365   3.143  18.199  0.3898  0.0531 -0.1679
 1904TIP3    H129907   0.310   3.176  18.128 -1.5660 -1.3675  0.6043
 1904TIP3    H229908   0.359   3.211  18.266  0.0101  0.1479 -0.2941
 1905TIP3   OH229909   1.734   2.293  18.133 -0.1230 -0.2257  0.5319
 1905TIP3    H129910   1.690   2.291  18.048  2.0160  0.9244 -0.6956
 1905TIP3    H229911   1.713   2.379  18.168  0.3633 -0.0436  0.3804
 1906TIP3   OH229912   7.488   3.173  19.137 -0.3374  0.2552 -0.1471
 1906TIP3    H129913   7.528   3.144  19.219  0.3577  1.7393  0.0745
 1906TIP3    H229914   7.396   3.188  19.160 -0.6410 -1.3615 -0.1913
 1907TIP3   OH229915   2.528   3.777  17.006  0.3174 -0.5365 -0.4625
 1907TIP3    H129916   2.444   3.804  17.042  0.7581 -0.1245  0.3080
 1907TIP3    H229917   2.549   3.695  17.052  0.6273 -0.2944 -0.1543
 1908TIP3   OH229918   6.758   5.173  17.978 -0.2041 -0.2491  0.3964
 1908TIP3    H129919   6.707   5.099  18.011  0.3962 -0.4356  0.9379
 1908TIP3    H229920   6.838   5.171  18.030  1.2239 -1.1421 -1.7045
 1909TIP3   OH229921   3.728   0.693  18.348 -0.0821  0.2216 -0.4713
 1909TIP3    H129922   3.714   0.647  18.265  1.2820  1.2180 -1.2879
 1909TIP3    H229923   3.646   0.740  18.363 -0.6101 -0.5484 -0.8491
 1910TIP3   OH229924   6.292   6.540  17.968 -0.9220 -0.3349  0.0665
 1910TIP3    H129925   6.229   6.480  17.929  0.6600 -1.0244 -1.5903
 1910TIP3    H229926   6.377   6.508  17.939  0.0727  1.9227  0.2363
 1911TIP3   OH229927   3.016   5.256  17.924 -0.0433 -0.0300 -0.1345
 1911TIP3    H129928   2.988   5.252  18.016 -1.7310 -1.8038 -0.6494
 1911TIP3    H229929   2.943   5.298  17.879  0.7524  0.7888 -0.6814
 1912TIP3   OH229930   7.195   0.809  17.768 -0.0529  0.1231  0.1517
 1912TIP3    H129931   7.103   0.831  17.754 -0.6598 -0.4875  2.6131
 1912TIP3    H229932   7.244   0.885  17.737 -1.1368 -0.4707 -3.4305
 1913TIP3   OH229933   5.837   1.740  18.863 -0.0504  0.4391  0.0007
 1913TIP3    H129934   5.833   1.679  18.936  0.3474 -0.2725 -0.5594
 1913TIP3    H229935   5.915   1.713  18.813 -0.4065  0.8002 -0.7727
 1914TIP3   OH229936   2.559   2.537  17.000 -0.2505 -0.0934 -0.0389
 1914TIP3    H129937   2.520   2.468  16.946  1.9647 -0.5269 -1.2140
 1914TIP3    H229938   2.649   2.544  16.968  0.3960  1.4437  1.9167
 1915TIP3   OH229939   0.134   2.517  19.244  0.2912  0.2054 -0.4933
 1915TIP3    H129940   0.136   2.517  19.339 -0.4368  0.7278 -0.4698
 1915TIP3    H229941   0.219   2.553  19.218  0.3669  0.3634 -0.0370
 1916TIP3   OH229942   0.157   5.303  19.071  0.1246 -0.3780  0.2496
 1916TIP3    H129943   0.184   5.390  19.043 -1.0118 -0.2680 -0.5945
 1916TIP3    H229944   0.208   5.243  19.017  1.4173 -0.2610  1.3196
 1917TIP3   OH229945   0.269   0.874  18.009  0.1117  0.6008 -0.3406
 1917TIP3    H129946   0.221   0.856  17.928  1.4677  0.8133 -1.2201
 1917TIP3    H229947   0.319   0.953  17.990  1.6405 -0.2126  0.1450
 1918TIP3   OH229948   3.561   1.538  17.697  0.2157  0.3896  0.5413
 1918TIP3    H129949   3.607   1.515  17.617 -1.3311  0.2607 -0.3506
 1918TIP3    H229950   3.550   1.633  17.693  3.1893  0.9429  2.3524
 1919TIP3   OH229951   2.284   3.334  18.401 -0.2368  0.1924  0.2299
 1919TIP3    H129952   2.220   3.271  18.434 -0.0757  0.0439  0.2646
 1919TIP3    H229953   2.247   3.364  18.318  0.9619 -2.0719 -1.2450
 1920TIP3   OH229954   5.551   3.944  19.480  0.8017 -0.0806 -0.1864
 1920TIP3    H129955   5.560   3.957  19.575  1.9069  1.1801 -0.4358
 1920TIP3    H229956   5.529   4.030  19.446 -3.6424 -1.1748 -0.7291
 1921TIP3   OH229957   5.210   6.454  17.818 -0.2154 -0.0106 -0.5385
 1921TIP3    H129958   5.285   6.454  17.759 -1.2804 -0.4256 -1.9715
 1921TIP3    H229959   5.244   6.425  17.902  1.2807  0.1884 -1.0587
 1922TIP3   OH229960   1.941   0.098  18.424 -0.5260 -0.5199 -0.0972
 1922TIP3    H129961   1.889   0.177  18.407 -1.1476 -1.1460 -1.3097
 1922TIP3    H229962   1.877   0.033  18.454 -0.1302 -0.7628  0.2385
 1923TIP3   OH229963   6.925   3.044  16.736 -0.6206 -0.0059 -0.2296
 1923TIP3    H129964   6.836   3.067  16.765 -0.4779 -0.4050  0.5711
 1923TIP3    H229965   6.955   2.980  16.802 -0.3169 -1.0526 -1.3515
 1924TIP3   OH229966   1.540   7.018  17.707 -0.2539  0.2699  0.0498
 1924TIP3    H129967   1.591   7.077  17.651 -1.0830  0.7391 -0.2275
 1924TIP3    H229968   1.571   7.037  17.795  0.4813  0.1135 -0.1707
 1925TIP3   OH229969   3.395   1.072  18.080 -0.2481 -0.2299 -0.2073
 1925TIP3    H129970   3.415   0.996  18.135 -1.1150 -0.5340 -0.3091
 1925TIP3    H229971   3.300   1.069  18.067 -0.7566  2.4284  2.0841
 1926TIP3   OH229972   2.133   7.216  19.195  0.2735 -0.1694 -0.6328
 1926TIP3    H129973   2.086   7.299  19.187 -0.7808 -0.2982  2.6099
 1926TIP3    H229974   2.222   7.235  19.163 -0.8947  1.0979 -3.4229
 1927TIP3   OH229975   5.932   6.809  17.886  0.1114  0.2576 -0.1846
 1927TIP3    H129976   6.025   6.814  17.864  0.3153  1.2116  0.7836
 1927TIP3    H229977   5.922   6.726  17.932  1.0242  1.2630  1.9453
 1928TIP3   OH229978   1.005   0.539  18.598  0.4638 -0.3614 -0.3753
 1928TIP3    H129979   1.027   0.560  18.507 -0.6874 -1.0756 -0.8477
 1928TIP3    H229980   0.909   0.533  18.598  0.5286 -1.8823  0.5309
 1929TIP3   OH229981   5.170   2.424  19.318 -0.0892  0.1026 -0.5359
 1929TIP3    H129982   5.221   2.499  19.287 -4.4325  2.8501 -2.1095
 1929TIP3    H229983   5.163   2.367  19.242  0.6145 -0.2982 -0.3054
 1930TIP3   OH229984   2.963   5.044  18.855 -0.0987 -0.4255  0.0056
 1930TIP3    H129985   2.989   4.966  18.904  0.4028  0.5170  1.2977
 1930TIP3    H229986   2.870   5.032  18.837 -0.0240 -1.3142  0.1920
 1931TIP3   OH229987   0.054   7.311  19.017  0.5959 -0.4631  0.5153
 1931TIP3    H129988   0.093   7.254  19.083  1.6792  1.1866  1.3743
 1931TIP3    H229989  -0.028   7.268  18.993  0.9599 -1.9251  1.7401
 1932TIP3   OH229990   1.569   5.793  17.554 -0.0203 -0.1873  0.2616
 1932TIP3    H129991   1.492   5.840  17.585  2.1517  2.3191  2.2269
 1932TIP3    H229992   1.586   5.829  17.467 -1.2755 -1.1064 -0.3901
 1933TIP3   OH229993   3.405   0.729  18.475 -0.0634  0.1368  0.0951
 1933TIP3    H129994   3.400   0.824  18.471 -1.5952  0.1852  1.7827
 1933TIP3    H229995   3.353   0.698  18.401 -1.4048  0.6469  0.8014
 1934TIP3   OH229996   3.668   5.589  18.234 -0.2936 -0.3350 -0.6179
 1934TIP3    H129997   3.617   5.593  18.153 -1.0789 -0.0589 -0.1244
 1934TIP3    H229998   3.634   5.512  18.280 -1.6934  0.9537  0.6168
 1935TIP3   OH229999   3.406   3.440  16.928 -0.0129 -1.3435  0.1782
 1935TIP3    H130000   3.446   3.397  16.852  1.4118 -0.0764  0.1497
 1935TIP3    H230001   3.387   3.529  16.898  0.8376 -0.7362  1.3615
 1936TIP3   OH230002   1.878   4.538  18.874  0.4008 -0.0147  0.3932
 1936TIP3    H130003   1.891   4.443  18.873 -0.2746 -0.3138 -4.3935
 1936TIP3    H230004   1.783   4.549  18.873  0.4471  0.5216 -1.3495
 1937TIP3   OH230005   0.235   7.488  18.618  0.0461  0.6323  0.2971
 1937TIP3    H130006   0.199   7.431  18.686 -2.1107  1.0872 -0.3821
 1937TIP3    H230007   0.203   7.575  18.640 -0.3900  0.8493 -1.0580
 1938TIP3   OH230008   2.141   3.500  19.284 -0.1175  0.1224  0.2191
 1938TIP3    H130009   2.078   3.571  19.285 -0.9960 -0.6354  0.9879
 1938TIP3    H230010   2.199   3.518  19.358 -0.8114 -0.3531  0.8898
 1939TIP3   OH230011   2.599   0.960  18.707 -0.0577 -0.2791 -0.4562
 1939TIP3    H130012   2.522   1.013  18.727  0.6343  0.2507  1.0051
 1939TIP3    H230013   2.564   0.878  18.673 -1.3611 -0.6598  1.6453
 1940TIP3   OH230014   6.113   1.790  17.427 -0.0712 -0.2728 -0.2003
 1940TIP3    H130015   6.148   1.813  17.341  0.9763 -2.5189 -0.4469
 1940TIP3    H230016   6.173   1.831  17.490 -0.3034  0.5890 -0.5291
 1941TIP3   OH230017   3.946   5.565  18.228 -0.6467 -0.2973  0.3472
 1941TIP3    H130018   3.850   5.570  18.226 -0.7217 -1.5292 -0.4848
 1941TIP3    H230019   3.972   5.633  18.289 -2.0545  0.1014  0.5492
 1942TIP3   OH230020   2.720   2.243  18.133 -0.7581 -0.0330 -0.3593
 1942TIP3    H130021   2.764   2.158  18.139  1.6666  1.0956 -0.7613
 1942TIP3    H230022   2.670   2.239  18.052 -1.5336 -1.3939  0.1428
 1943TIP3   OH230023   3.108   0.511  18.446 -0.9148  0.6546  0.3376
 1943TIP3    H130024   3.158   0.540  18.523 -0.4497  0.7433  0.0025
 1943TIP3    H230025   3.114   0.584  18.385 -0.7742  0.3429 -0.0228
 1944TIP3   OH230026   3.131   1.754  19.158  0.3796  0.1648  0.4604
 1944TIP3    H130027   3.199   1.820  19.143 -1.1242  2.4190  2.7572
 1944TIP3    H230028   3.057   1.785  19.106  0.0699 -0.4401  0.5439
 1945TIP3   OH230029   6.728   6.571  19.458  0.5413 -0.2556 -0.3884
 1945TIP3    H130030   6.650   6.610  19.496 -1.0779 -1.6137 -2.1023
 1945TIP3    H230031   6.781   6.646  19.429 -0.3715  0.6888  0.3274
 1946TIP3   OH230032   0.294   6.949  17.577  0.5710  0.2789 -0.5832
 1946TIP3    H130033   0.315   6.874  17.632  2.4502  0.8094 -0.5087
 1946TIP3    H230034   0.365   6.953  17.513  0.1051  1.5319 -1.0598
 1947TIP3   OH230035   4.491   7.319  18.391  0.3273  0.5197  0.5508
 1947TIP3    H130036   4.584   7.343  18.395 -0.5890  4.6072  3.0351
 1947TIP3    H230037   4.457   7.369  18.317 -0.2722  0.8769  1.0614
 1948TIP3   OH230038   5.084   6.682  18.493 -0.4326  0.0100  0.8206
 1948TIP3    H130039   5.059   6.592  18.510  1.5687 -0.6924  0.3138
 1948TIP3    H230040   5.179   6.679  18.482 -0.4783  1.9548 -0.6448
 1949TIP3   OH230041   2.746   4.406  19.425  0.0126  0.4238 -0.0720
 1949TIP3    H130042   2.725   4.489  19.466  1.8601  0.3019  1.2033
 1949TIP3    H230043   2.807   4.428  19.355  0.7741  0.1210  0.4898
 1950TIP3   OH230044   4.860   7.607  17.878 -0.7084  0.2240  0.3380
 1950TIP3    H130045   4.908   7.533  17.914  0.7784 -0.1605 -2.1660
 1950TIP3    H230046   4.778   7.570  17.846  0.1986 -0.5291 -1.2741
 1951TIP3   OH230047   6.856   4.293  17.424  0.1085  0.5362 -0.0720
 1951TIP3    H130048   6.812   4.208  17.431  0.2706  0.5883  2.9831
 1951TIP3    H230049   6.785   4.357  17.417 -0.0845  0.2707 -0.5502
 1952TIP3   OH230050   3.874   6.294  18.025  0.0150  0.2112 -0.1968
 1952TIP3    H130051   3.917   6.323  17.944  1.6474 -0.1333  0.4991
 1952TIP3    H230052   3.931   6.226  18.060 -1.6129 -0.9399  0.3374
 1953TIP3   OH230053   7.019   4.715  17.475  0.0683  0.1849 -0.2343
 1953TIP3    H130054   7.089   4.676  17.528 -0.1728 -1.3009 -0.9356
 1953TIP3    H230055   7.008   4.653  17.402 -4.1263 -1.3859  1.4249
 1954TIP3   OH230056   3.545   0.013  17.437 -1.0539  0.1146 -0.0466
 1954TIP3    H130057   3.635   0.005  17.470 -1.4094  0.6444  1.0962
 1954TIP3    H230058   3.541   0.102  17.401 -1.7335  0.9320  1.9338
 1955TIP3   OH230059   5.213   0.873  19.156 -0.1322 -0.2996  0.3697
 1955TIP3    H130060   5.136   0.926  19.138 -0.4214 -1.0839 -0.8150
 1955TIP3    H230061   5.185   0.811  19.223 -0.3551 -0.2034  0.3665
 1956TIP3   OH230062   5.030   5.745  17.457  0.2218 -0.0868 -0.2611
 1956TIP3    H130063   5.058   5.660  17.422  1.8044 -0.2075  1.1679
 1956TIP3    H230064   5.014   5.799  17.379  1.6238 -0.9625 -1.1994
 1957TIP3   OH230065   7.527   5.307  19.503  0.5090  0.0503  0.1006
 1957TIP3    H130066   7.439   5.269  19.491 -0.0621  1.6195 -1.0068
 1957TIP3    H230067   7.573   5.286  19.422  0.7308  0.2877  0.1644
 1958TIP3   OH230068   5.030   4.430  17.773 -0.0803 -0.0385  0.2953
 1958TIP3    H130069   5.083   4.368  17.822 -0.0068 -0.6461 -0.5339
 1958TIP3    H230070   5.047   4.515  17.815  0.3965 -0.4555  0.9625
 1959TIP3   OH230071   2.908   3.925  18.222 -0.8525  0.1342  0.3671
 1959TIP3    H130072   2.938   3.841  18.187 -1.0728 -0.5129  1.6792
 1959TIP3    H230073   2.870   3.970  18.146  0.2863 -0.4579 -0.5926
 1960TIP3   OH230074   3.875   7.591  19.435 -0.0696  0.4379  0.0540
 1960TIP3    H130075   3.831   7.672  19.412 -1.8301 -0.4431  0.1296
 1960TIP3    H230076   3.911   7.607  19.522  0.3000  1.3872 -0.2682
 1961TIP3   OH230077   4.832   4.781  19.529  0.5155  0.0292  0.5264
 1961TIP3    H130078   4.820   4.689  19.553  0.1428 -0.1081 -0.1714
 1961TIP3    H230079   4.925   4.799  19.546  0.6141 -0.5080  0.5594
 1962TIP3   OH230080   1.365   1.900  17.535  0.6103  0.4694  0.1121
 1962TIP3    H130081   1.297   1.845  17.574  0.4695  0.0411 -0.7103
 1962TIP3    H230082   1.421   1.924  17.608  0.2743 -0.1965  0.5998
 1963TIP3   OH230083   7.621   6.502  17.325  0.4016  0.2898 -0.2010
 1963TIP3    H130084   7.659   6.514  17.238  2.0401  1.9717  0.6875
 1963TIP3    H230085   7.684   6.447  17.371  0.1915  0.4947  0.3328
 1964TIP3   OH230086   6.098   7.572  17.846 -0.6730 -0.6784  0.3587
 1964TIP3    H130087   6.070   7.514  17.917 -2.9029  0.1614  0.2399
 1964TIP3    H230088   6.098   7.659  17.885 -0.8943 -0.3280 -0.4156
 1965TIP3   OH230089   0.739   0.675  17.595 -0.7661  0.2898 -0.0156
 1965TIP3    H130090   0.776   0.598  17.552 -0.0367  0.6138  0.0143
 1965TIP3    H230091   0.764   0.748  17.539 -2.2914  0.4115 -0.5604
 1966TIP3   OH230092   6.388   5.650  17.924 -0.1430  0.1374 -0.3629
 1966TIP3    H130093   6.420   5.643  18.014  1.7050  2.1835 -0.7856
 1966TIP3    H230094   6.467   5.647  17.871 -1.0324  1.0175 -1.7845
 1967TIP3   OH230095   2.142   1.191  17.541 -0.0452  0.6626 -0.0073
 1967TIP3    H130096   2.109   1.148  17.620 -4.6035  0.3333 -1.8174
 1967TIP3    H230097   2.134   1.284  17.561 -0.6642  0.5843  0.1494
 1968TIP3   OH230098   6.446   1.462  18.164  0.5625  0.4296 -0.0467
 1968TIP3    H130099   6.410   1.449  18.076  1.4207 -0.3724 -0.2921
 1968TIP3    H230100   6.463   1.556  18.169  0.5457  0.4745 -0.7553
 1969TIP3   OH230101   3.124   7.300  18.199 -0.1231  0.3148 -1.0057
 1969TIP3    H130102   3.176   7.221  18.211 -2.1917 -1.3696 -2.3099
 1969TIP3    H230103   3.187   7.371  18.197  2.0353 -1.5208 -1.8461
 1970TIP3   OH230104   4.776   6.628  18.722 -0.1584  0.1291 -0.3634
 1970TIP3    H130105   4.793   6.677  18.802 -0.0623  0.1526 -0.3978
 1970TIP3    H230106   4.709   6.679  18.676 -0.0713  0.2200 -0.3902
 1971TIP3   OH230107   0.459   7.391  17.255 -0.7671 -0.0656 -0.1886
 1971TIP3    H130108   0.481   7.391  17.162 -3.0681  0.5522 -0.7963
 1971TIP3    H230109   0.481   7.479  17.286 -2.9501  0.8400 -0.9991
 1972TIP3   OH230110   4.440   3.920  18.561 -0.1254 -0.8823  0.1021
 1972TIP3    H130111   4.462   3.925  18.654 -2.1790  1.2947  0.5546
 1972TIP3    H230112   4.487   3.994  18.522 -1.9874  0.3826  0.1121
 1973TIP3   OH230113   6.157   5.516  18.566  0.0518 -0.5347  0.3839
 1973TIP3    H130114   6.135   5.603  18.532  0.5601  0.0281  1.4534
 1973TIP3    H230115   6.245   5.526  18.602 -0.2110 -1.2723  1.2598
 1974TIP3   OH230116   0.215   4.178  17.805 -0.2744  0.6327 -0.3348
 1974TIP3    H130117   0.254   4.162  17.719 -0.8496 -1.1649 -0.3110
 1974TIP3    H230118   0.286   4.159  17.867 -0.5588 -0.6319 -0.3601
 1975TIP3   OH230119   2.437   5.623  17.401 -0.0555  0.3953 -0.4432
 1975TIP3    H130120   2.394   5.688  17.346  1.9774  0.1721 -2.4534
 1975TIP3    H230121   2.526   5.656  17.412  1.7461 -2.8269 -3.2904
 1976TIP3   OH230122   0.770   7.525  17.241 -0.0912  0.1579 -0.0550
 1976TIP3    H130123   0.789   7.512  17.148 -1.7483 -1.0061 -0.2851
 1976TIP3    H230124   0.684   7.567  17.242  0.0641  0.4607  0.9480
 1977TIP3   OH230125   0.998   1.560  17.801 -0.1568  0.3901  0.3501
 1977TIP3    H130126   0.984   1.556  17.896  1.2544  0.5148  0.5847
 1977TIP3    H230127   1.051   1.482  17.782  0.6503  1.0326 -0.1170
 1978TIP3   OH230128   6.665   0.010  17.967 -0.4709  0.0068  0.0604
 1978TIP3    H130129   6.622  -0.067  17.932 -2.4262  0.6125  0.9611
 1978TIP3    H230130   6.758  -0.001  17.946 -1.0697 -1.3016 -2.1002
 1979TIP3   OH230131   5.295   6.350  19.079 -0.9873  0.4086  0.5128
 1979TIP3    H130132   5.355   6.330  19.008  0.1963  2.4065  0.8942
 1979TIP3    H230133   5.300   6.273  19.136  1.4623  0.5965  0.6709
 1980TIP3   OH230134   7.664   1.506  18.311 -0.0039 -0.5034 -0.4305
 1980TIP3    H130135   7.735   1.457  18.352  2.0432  0.6587 -2.4084
 1980TIP3    H230136   7.589   1.490  18.369  1.6822 -2.1786  1.4903
 1981TIP3   OH230137   3.824   2.773  18.490  0.4951  0.4516 -0.9850
 1981TIP3    H130138   3.879   2.817  18.425  0.9539  2.1698  0.4838
 1981TIP3    H230139   3.872   2.783  18.573 -1.1068  0.2964  0.0008
 1982TIP3   OH230140   2.226   2.071  18.845  0.3463 -0.0756  0.1260
 1982TIP3    H130141   2.314   2.034  18.835  0.6488  0.0959  1.7656
 1982TIP3    H230142   2.232   2.159  18.807  0.7343 -0.2522 -0.2304
 1983TIP3   OH230143   3.634   2.472  19.059 -0.0245  0.0300 -0.0506
 1983TIP3    H130144   3.685   2.407  19.107 -0.1141 -0.3139 -0.4186
 1983TIP3    H230145   3.608   2.428  18.978 -2.6873 -0.5555  1.0150
 1984TIP3   OH230146   7.371   6.052  17.032  0.3555  0.6313 -0.0372
 1984TIP3    H130147   7.314   5.992  16.985  0.1972  0.3116  0.5410
 1984TIP3    H230148   7.448   6.063  16.976  0.1160  0.3612 -0.4167
 1985TIP3   OH230149   6.947   5.744  19.211  0.4054  0.2165  0.5961
 1985TIP3    H130150   6.856   5.735  19.182  0.7861 -1.4823 -0.1946
 1985TIP3    H230151   6.970   5.834  19.187 -0.1669 -0.2225 -1.9960
 1986TIP3   OH230152   0.201   7.641  18.380 -0.1975  0.0223  0.3975
 1986TIP3    H130153   0.217   7.570  18.443  1.7604 -0.1636 -0.2579
 1986TIP3    H230154   0.161   7.597  18.305 -1.0395 -0.0134  0.8547
 1987TIP3   OH230155   7.273   7.639  19.494  0.0754 -0.0325  0.1934
 1987TIP3    H130156   7.315   7.725  19.489  0.0469  0.0389  0.9660
 1987TIP3    H230157   7.343   7.581  19.523  0.0496 -0.2384 -0.1531
 1988TIP3   OH230158   6.398   3.013  17.886  0.3379 -0.1645 -0.1547
 1988TIP3    H130159   6.411   3.095  17.934  0.9860  0.1753 -0.8925
 1988TIP3    H230160   6.306   3.016  17.858  0.3693  0.3139 -0.2057
 1989TIP3   OH230161   4.770   2.234  19.329  0.2937 -0.3023  0.1236
 1989TIP3    H130162   4.791   2.324  19.306 -0.0834 -0.3891 -0.5869
 1989TIP3    H230163   4.824   2.181  19.270  0.8424 -0.5489  0.8347
 1990TIP3   OH230164   4.948   5.574  18.437 -0.4062 -0.0626 -0.3260
 1990TIP3    H130165   4.941   5.503  18.372  0.9620  0.0210 -0.5866
 1990TIP3    H230166   4.859   5.609  18.443 -0.5405  0.0251 -2.2712
 1991TIP3   OH230167   5.379   0.354  17.814 -0.7677 -0.1718  0.2677
 1991TIP3    H130168   5.375   0.297  17.736 -1.3882 -1.4557  1.2063
 1991TIP3    H230169   5.304   0.327  17.867  2.4106 -3.2015  3.8673
 1992TIP3   OH230170   5.434   5.989  18.555 -0.8098  0.1704 -0.2535
 1992TIP3    H130171   5.414   5.990  18.461 -1.4348  1.6495 -0.1319
 1992TIP3    H230172   5.528   6.003  18.560 -0.5196 -1.4117 -0.6782
 1993TIP3   OH230173   1.338   1.375  16.578  0.0101 -0.0399 -0.3482
 1993TIP3    H130174   1.344   1.311  16.649  2.7539  1.5292  0.9624
 1993TIP3    H230175   1.245   1.400  16.576 -0.2131 -0.3103  2.5464
 1994TIP3   OH230176   7.465   5.134  17.451 -0.4772  0.0103 -0.3527
 1994TIP3    H130177   7.449   5.182  17.370  1.0158 -1.6227 -1.7022
 1994TIP3    H230178   7.411   5.055  17.443 -1.1520  0.3263  0.7796
 1995TIP3   OH230179   4.330   7.532  17.149 -0.2282 -0.2087 -0.6620
 1995TIP3    H130180   4.340   7.443  17.116  1.2173 -1.9040  3.6803
 1995TIP3    H230181   4.416   7.572  17.137 -0.5715  0.2790 -1.6137
 1996TIP3   OH230182   2.755   0.425  17.459  0.3132  0.1087 -0.0860
 1996TIP3    H130183   2.799   0.504  17.427  0.4516  0.2690  0.4885
 1996TIP3    H230184   2.822   0.357  17.456  1.5876  0.9794  3.5716
 1997TIP3   OH230185   3.310   7.580  17.377 -0.4614  0.0259 -0.0064
 1997TIP3    H130186   3.398   7.612  17.395 -0.3523  0.8628 -1.7912
 1997TIP3    H230187   3.252   7.649  17.410 -0.4297 -0.1451  0.4187
 1998TIP3   OH230188   5.150   6.651  18.838  0.4808 -0.1440  0.4011
 1998TIP3    H130189   5.147   6.573  18.782  2.4467  0.8874 -1.2880
 1998TIP3    H230190   5.099   6.717  18.791  0.6045  0.2062  0.7520
 1999TIP3   OH230191   4.964   2.737  18.760 -0.4635  0.3900  0.0004
 1999TIP3    H130192   5.051   2.757  18.727  0.0590 -1.0240  0.4260
 1999TIP3    H230193   4.968   2.758  18.853 -0.6019  0.4036  0.0037
 2000TIP3   OH230194   5.253   1.923  17.948 -0.0175  0.2382  0.5952
 2000TIP3    H130195   5.294   1.838  17.935 -0.3943 -0.2933  2.4764
 2000TIP3    H230196   5.163   1.902  17.976 -0.4269  1.2794  0.1109
 2001TIP3   OH230197   1.775   0.110  17.298  0.0212  0.2849  0.0502
 2001TIP3    H130198   1.689   0.130  17.261 -0.3652 -0.5779  0.4499
 2001TIP3    H230199   1.800   0.028  17.257  0.6771  0.5498 -0.0914
 2002TIP3   OH230200   2.227   7.316  17.666  0.3809 -0.3613 -0.1234
 2002TIP3    H130201   2.248   7.223  17.668  0.3121 -0.3704  0.1347
 2002TIP3    H230202   2.246   7.343  17.576 -1.7064 -1.1098 -0.8387
 2003TIP3   OH230203   4.602   2.096  18.039 -0.1633 -0.0441 -0.3769
 2003TIP3    H130204   4.549   2.146  18.101  1.0615  0.1988  0.5116
 2003TIP3    H230205   4.683   2.147  18.030  0.0547 -0.5475 -1.4813
 2004TIP3   OH230206   1.403   5.104  19.042  0.1063  0.1548  0.0170
 2004TIP3    H130207   1.422   5.120  18.950 -1.2014  0.2856 -0.2582
 2004TIP3    H230208   1.326   5.047  19.041 -0.0414  0.3120  1.0253
 2005TIP3   OH230209   6.807   4.301  19.516 -0.0539  0.2698  0.4987
 2005TIP3    H130210   6.878   4.330  19.574  0.6360 -1.9630  0.8688
 2005TIP3    H230211   6.798   4.208  19.535 -2.1814  0.2124 -0.5503
 2006TIP3   OH230212   1.632   0.260  18.733  0.1837 -0.3929 -0.2210
 2006TIP3    H130213   1.723   0.240  18.710 -0.1881  0.6326 -2.9704
 2006TIP3    H230214   1.620   0.351  18.705 -1.7118 -0.5328  0.0211
 2007TIP3   OH230215   5.843   4.018  19.542  0.0313  0.4258  0.3633
 2007TIP3    H130216   5.862   4.013  19.449  2.4271  1.9356  0.6904
 2007TIP3    H230217   5.906   3.958  19.583 -0.5225  0.3143  1.0780
 2008TIP3   OH230218   7.073   4.384  18.877 -0.1577  0.5533  0.5064
 2008TIP3    H130219   7.006   4.413  18.938 -2.2604  1.5577 -2.0437
 2008TIP3    H230220   7.078   4.289  18.888  1.0669  0.8554  3.5317
 2009TIP3   OH230221   6.982   2.131  17.634 -0.3361  0.1727 -0.1205
 2009TIP3    H130222   7.022   2.218  17.631 -1.0163  0.4866 -3.0207
 2009TIP3    H230223   7.029   2.081  17.568 -0.3090 -1.5708  1.1356
 2010TIP3   OH230224   6.755   1.937  19.107 -0.2734  0.3618 -0.1222
 2010TIP3    H130225   6.737   1.855  19.152  0.2284  0.3677  0.1047
 2010TIP3    H230226   6.686   1.997  19.136  0.9677  0.8663  1.9939
 2011TIP3   OH230227   0.248   5.834  17.250 -0.3110  0.2670 -0.0111
 2011TIP3    H130228   0.307   5.776  17.202 -3.0894 -1.9262 -1.0269
 2011TIP3    H230229   0.247   5.798  17.339 -0.0774  0.3688  0.0350
 2012TIP3   OH230230   3.019   7.381  17.374  0.5932  0.3820  1.0584
 2012TIP3    H130231   3.067   7.386  17.292 -2.1240 -1.4621 -0.8240
 2012TIP3    H230232   2.944   7.439  17.362 -0.6664 -1.0733  1.5490
 2013TIP3   OH230233   4.953   3.725  19.167  0.0075  0.0688 -0.3520
 2013TIP3    H130234   4.955   3.819  19.149 -0.7923  0.4726  1.4327
 2013TIP3    H230235   4.930   3.685  19.083 -0.6894  1.5515 -0.9064
 2014TIP3   OH230236   6.791   3.837  18.960 -0.7393 -0.3966 -0.0989
 2014TIP3    H130237   6.821   3.863  18.873  1.1630  0.4581  0.7607
 2014TIP3    H230238   6.706   3.795  18.945 -0.1616 -0.8303 -2.4108
 2015TIP3   OH230239   7.522   5.641  18.487  0.1506  0.3877 -0.1001
 2015TIP3    H130240   7.586   5.627  18.557 -0.1936  2.3996  0.7029
 2015TIP3    H230241   7.575   5.663  18.410  0.5072 -1.1612 -0.3139
 2016TIP3   OH230242   1.707   4.692  19.145 -0.4417  0.2612 -0.4734
 2016TIP3    H130243   1.695   4.724  19.235 -0.7330 -1.3991  0.1130
 2016TIP3    H230244   1.769   4.619  19.154 -1.6560 -0.9296 -1.3713
 2017TIP3   OH230245   1.163   4.369  17.186  0.4208 -0.5364 -0.8518
 2017TIP3    H130246   1.200   4.395  17.102 -0.9961  0.8680 -1.0813
 2017TIP3    H230247   1.070   4.358  17.169  0.2411 -1.0516  0.3564
 2018TIP3   OH230248   7.369   2.666  17.586  0.0809  0.1077 -0.3397
 2018TIP3    H130249   7.386   2.573  17.599 -0.1236 -0.3874 -3.0435
 2018TIP3    H230250   7.411   2.687  17.503 -0.1984  2.3600  0.0199
 2019TIP3   OH230251   0.582   4.243  17.081 -0.1946 -0.2220 -0.1860
 2019TIP3    H130252   0.493   4.234  17.046 -1.1093  0.2116  1.8830
 2019TIP3    H230253   0.610   4.329  17.052 -0.3793 -0.4081 -0.9546
 2020TIP3   OH230254   6.415   1.587  19.329 -0.0244  0.5622 -0.3750
 2020TIP3    H130255   6.346   1.572  19.393 -0.9830 -1.2357 -1.7736
 2020TIP3    H230256   6.382   1.657  19.273 -0.0593  0.7464 -0.1231
 2021TIP3   OH230257   1.760   2.381  16.675 -0.2262  0.1661  0.0337
 2021TIP3    H130258   1.674   2.421  16.673 -0.3372  0.0151  0.9757
 2021TIP3    H230259   1.744   2.288  16.663 -0.2460  0.0921  0.5720
 2022TIP3   OH230260   4.199   4.595  18.675  0.4085 -0.0299  0.2405
 2022TIP3    H130261   4.263   4.648  18.722 -0.4586  1.1043  0.1743
 2022TIP3    H230262   4.183   4.520  18.733 -0.9820  1.5495  2.0638
 2023TIP3   OH230263   5.617   2.678  17.510 -0.1179 -0.3151 -0.4660
 2023TIP3    H130264   5.616   2.677  17.414  0.6429 -0.3251 -0.4744
 2023TIP3    H230265   5.530   2.711  17.534 -0.2067 -0.0255 -1.1638
 2024TIP3   OH230266   4.357   6.458  18.018 -0.0354 -0.4115 -0.1389
 2024TIP3    H130267   4.320   6.466  17.931 -0.8607 -1.4838  0.0960
 2024TIP3    H230268   4.443   6.418  18.005 -0.5875 -1.5486 -0.3971
 2025TIP3   OH230269   2.131   4.553  18.449  0.4442 -0.2316  0.3817
 2025TIP3    H130270   2.093   4.566  18.535 -2.7258 -2.6532 -0.4790
 2025TIP3    H230271   2.091   4.621  18.395  1.3752  0.4235  0.4928
 2026TIP3   OH230272   7.103   1.142  17.690  0.3784 -0.1830  0.3304
 2026TIP3    H130273   7.164   1.187  17.749  1.9349 -1.9743  0.1969
 2026TIP3    H230274   7.118   1.183  17.605  1.4114 -0.5845  0.3071
 2027TIP3   OH230275   3.274   3.042  17.539  0.0466 -0.3160  0.2464
 2027TIP3    H130276   3.343   3.010  17.482  2.1507  0.3632  2.2442
 2027TIP3    H230277   3.194   2.998  17.509  0.6710  1.0766 -4.0350
 2028TIP3   OH230278   6.299   2.244  16.694 -0.7093  0.9808 -0.1210
 2028TIP3    H130279   6.384   2.206  16.716 -0.3674  1.2749 -0.9049
 2028TIP3    H230280   6.295   2.325  16.744 -1.9281 -0.5600  2.4742
 2029TIP3   OH230281   6.390   0.010  19.137 -0.7508  0.2969 -0.2912
 2029TIP3    H130282   6.305  -0.025  19.163 -1.1052 -0.9385 -2.8526
 2029TIP3    H230283   6.371   0.070  19.065  0.4402  1.0304 -0.0153
 2030TIP3   OH230284   5.144   0.608  19.087  0.1732  0.4083 -0.0796
 2030TIP3    H130285   5.225   0.609  19.036  1.9245  2.5315  2.5413
 2030TIP3    H230286   5.153   0.532  19.144 -0.7039 -0.5583 -1.1682
 2031TIP3   OH230287   1.483   0.083  17.263 -0.3247 -0.2399 -0.2692
 2031TIP3    H130288   1.443   0.166  17.240 -1.2962 -0.4761  0.4809
 2031TIP3    H230289   1.475   0.078  17.359  1.4892 -0.3148 -0.0776
 2032TIP3   OH230290   0.021   7.369  18.715  0.0133 -0.3470 -0.1307
 2032TIP3    H130291   0.029   7.278  18.744 -0.8345 -0.0700  1.0729
 2032TIP3    H230292  -0.031   7.411  18.783 -1.1683  0.6238 -1.5798
 2033TIP3   OH230293   7.283   4.001  17.530 -0.3615  0.0906 -0.2037
 2033TIP3    H130294   7.217   4.067  17.510 -0.6944 -0.3751 -0.6760
 2033TIP3    H230295   7.233   3.920  17.543 -0.0487  0.1003  1.2918
 2034TIP3   OH230296   1.471   5.405  18.592 -0.0797  0.3078  1.0809
 2034TIP3    H130297   1.521   5.387  18.672  4.0114  0.5069 -1.2229
 2034TIP3    H230298   1.461   5.500  18.591 -2.0041  0.1913  2.2210
 2035TIP3   OH230299   7.363   1.069  17.869  0.1951  0.1113 -0.2705
 2035TIP3    H130300   7.358   1.164  17.864  0.5124  0.1302 -0.2604
 2035TIP3    H230301   7.447   1.047  17.829 -0.4738 -0.2692 -1.5215
 2036TIP3   OH230302   7.612   2.976  17.052 -0.0988 -0.1269 -0.7781
 2036TIP3    H130303   7.556   2.912  17.006 -0.8624  0.7127 -1.0565
 2036TIP3    H230304   7.604   3.056  17.000 -0.5320  0.6911  0.5022
 2037TIP3   OH230305   6.359   3.363  18.268 -0.3786  0.7582  0.7889
 2037TIP3    H130306   6.398   3.311  18.338 -0.2726 -0.0536  0.1411
 2037TIP3    H230307   6.432   3.414  18.232  0.4235 -1.5046 -1.0943
 2038TIP3   OH230308   2.372   4.377  19.402  0.1267 -0.4208  0.6993
 2038TIP3    H130309   2.379   4.282  19.395 -0.8879 -0.4814  0.2665
 2038TIP3    H230310   2.459   4.410  19.378 -0.0670 -1.1591 -1.2663
 2039TIP3   OH230311   6.199   2.537  18.073 -0.4677  0.8097  0.1431
 2039TIP3    H130312   6.218   2.462  18.130 -2.2768  0.4994  0.3799
 2039TIP3    H230313   6.121   2.577  18.111 -0.3132  2.0271 -0.7703
 2040TIP3   OH230314   0.529   2.789  18.415  0.1932  0.2271 -0.1218
 2040TIP3    H130315   0.549   2.796  18.509  0.9066 -0.1556 -0.2368
 2040TIP3    H230316   0.439   2.758  18.412  0.6764 -1.3382  0.4735
 2041TIP3   OH230317   0.218   7.041  18.373  0.2749  0.2556  0.4072
 2041TIP3    H130318   0.157   7.099  18.327  1.1065  0.5760 -0.3503
 2041TIP3    H230319   0.169   6.961  18.388 -0.3432  0.5142 -0.1520
 2042TIP3   OH230320   3.734   5.241  18.624 -0.3332 -0.1025 -0.0285
 2042TIP3    H130321   3.708   5.149  18.620 -1.1959  0.1561 -1.0181
 2042TIP3    H230322   3.821   5.243  18.583  1.1993 -0.9080  2.9051
 2043TIP3   OH230323   6.195   6.797  17.662  0.7927 -0.1132 -0.6990
 2043TIP3    H130324   6.209   6.780  17.755 -0.3688  0.3334 -0.4185
 2043TIP3    H230325   6.186   6.892  17.655 -0.0315 -0.2049 -1.1066
 2044TIP3   OH230326   6.452   6.570  18.196  0.4009  0.5459 -0.7518
 2044TIP3    H130327   6.503   6.490  18.204 -0.1191  0.1931 -0.8655
 2044TIP3    H230328   6.392   6.553  18.123 -1.7382 -0.1043  1.0502
 2045TIP3   OH230329   3.911   1.496  19.219 -0.1678  0.2154 -0.1858
 2045TIP3    H130330   3.882   1.585  19.239 -0.4191  0.0283  0.3162
 2045TIP3    H230331   3.830   1.445  19.215  0.0788 -0.3763  1.5409
 2046TIP3   OH230332   1.688   1.918  18.956 -0.3008 -0.5884 -0.1218
 2046TIP3    H130333   1.696   1.847  19.020 -0.3008 -0.7511 -0.3022
 2046TIP3    H230334   1.732   1.885  18.878 -1.4731 -0.9220 -0.6570
 2047TIP3   OH230335   1.689   1.493  17.678 -0.5240 -0.5806  0.3723
 2047TIP3    H130336   1.714   1.557  17.612  0.5194 -0.9829  0.3578
 2047TIP3    H230337   1.636   1.541  17.741  1.3016  0.6396  1.0684
 2048TIP3   OH230338   1.809   7.254  19.109 -0.3891  0.3811 -0.1519
 2048TIP3    H130339   1.808   7.225  19.017 -1.2310  2.1358 -0.7609
 2048TIP3    H230340   1.785   7.176  19.159  1.5901 -1.0273 -1.2516
 2049TIP3   OH230341   3.256   7.162  18.738 -0.6802 -0.2112 -0.6213
 2049TIP3    H130342   3.345   7.134  18.713 -0.5989  0.8754 -1.6198
 2049TIP3    H230343   3.267   7.252  18.769 -1.2031 -0.6310  0.9001
 2050TIP3   OH230344   3.345   2.713  19.095 -0.4710  0.6378  0.0918
 2050TIP3    H130345   3.358   2.679  19.006 -1.6360 -1.5829  0.6940
 2050TIP3    H230346   3.298   2.795  19.083 -1.0461  0.1333 -1.3527
 2051TIP3   OH230347   2.214   5.498  19.111  0.1248  0.5832  0.6254
 2051TIP3    H130348   2.266   5.457  19.041 -1.0395  1.4623 -0.8351
 2051TIP3    H230349   2.173   5.425  19.157  0.2798 -0.0040 -0.1430
 2052TIP3   OH230350   4.483   1.127  17.390  0.0577 -0.0712 -0.2390
 2052TIP3    H130351   4.403   1.126  17.338  0.6142 -1.0716 -1.1060
 2052TIP3    H230352   4.468   1.196  17.455 -1.9062 -0.8938  0.2747
 2053TIP3   OH230353   3.116   2.173  19.304 -0.0361 -0.5022 -0.4776
 2053TIP3    H130354   3.174   2.098  19.317 -0.7350 -0.9392  0.2658
 2053TIP3    H230355   3.173   2.243  19.272  0.4960 -1.5687 -1.9801
 2054TIP3   OH230356   1.815   3.270  19.150 -0.4276 -0.4002  0.2959
 2054TIP3    H130357   1.791   3.179  19.167 -0.4958 -0.5233 -0.4476
 2054TIP3    H230358   1.732   3.317  19.143 -0.3878 -0.2128  1.0152
 2055TIP3   OH230359   3.217   0.064  18.744 -0.3152 -0.5632 -0.1550
 2055TIP3    H130360   3.200   0.158  18.737  1.4539 -0.2692 -1.0347
 2055TIP3    H230361   3.188   0.041  18.832 -0.9564  0.7489  0.0072
 2056TIP3   OH230362   5.130   6.096  18.834 -0.2529  0.8565  0.1014
 2056TIP3    H130363   5.110   6.047  18.914  0.6279 -0.0566 -0.2055
 2056TIP3    H230364   5.117   6.033  18.763 -0.0276  1.3529 -0.3928
 2057TIP3   OH230365   3.066   0.996  18.941  0.6766 -0.1580  0.0984
 2057TIP3    H130366   3.023   1.066  18.990 -0.5369 -0.8218  0.0180
 2057TIP3    H230367   2.995   0.937  18.916  1.4919 -0.6998 -1.0351
 2058TIP3   OH230368   3.341   2.580  18.857 -0.1917  0.1603 -0.5800
 2058TIP3    H130369   3.275   2.514  18.839 -0.1721 -0.4928  1.5236
 2058TIP3    H230370   3.424   2.537  18.837 -0.2856  0.3676 -1.4624
 2059TIP3   OH230371   0.564   6.610  17.218 -1.2489  0.0701 -0.3741
 2059TIP3    H130372   0.539   6.691  17.173 -0.9075  1.5918  1.9792
 2059TIP3    H230373   0.532   6.540  17.162 -1.7670  1.8377 -2.3963
 2060TIP3   OH230374   0.814   3.482  19.082  0.0182 -0.1699 -0.2002
 2060TIP3    H130375   0.900   3.449  19.109  0.2946 -0.9921 -1.9295
 2060TIP3    H230376   0.769   3.405  19.047 -1.1077  0.4210 -0.0894
 2061TIP3   OH230377   2.906   1.042  17.218  0.2646  0.0685 -0.3105
 2061TIP3    H130378   2.959   0.966  17.243 -1.2761 -1.6801 -1.9181
 2061TIP3    H230379   2.948   1.075  17.139  1.4320  1.4988  0.8644
 2062TIP3   OH230380   4.232   2.045  18.634  0.4248 -0.2241  0.2206
 2062TIP3    H130381   4.301   2.016  18.694  1.5345 -0.4023 -1.1011
 2062TIP3    H230382   4.278   2.066  18.553 -1.0102  0.2875 -0.4927
 2063TIP3   OH230383   0.195   4.775  18.079 -0.1843  0.5076 -0.7420
 2063TIP3    H130384   0.219   4.720  18.005 -0.5031  2.0417 -2.0348
 2063TIP3    H230385   0.127   4.725  18.125  0.4564 -0.7424 -1.1041
 2064TIP3   OH230386   5.250   5.336  19.424 -0.1977  0.4660 -0.2413
 2064TIP3    H130387   5.289   5.277  19.359 -1.3949  1.5000 -2.0127
 2064TIP3    H230388   5.320   5.398  19.444 -0.5837  2.0018 -3.0030
 2065TIP3   OH230389   3.880   5.816  18.018  0.0131  0.3581 -0.6866
 2065TIP3    H130390   3.852   5.848  17.933 -0.7515  0.5198 -0.3814
 2065TIP3    H230391   3.936   5.741  17.998  0.9692  1.2327 -1.3689
 2066TIP3   OH230392   5.739   4.634  17.282  0.0590  0.6122  0.1243
 2066TIP3    H130393   5.757   4.728  17.282 -0.3697  0.7044 -0.9464
 2066TIP3    H230394   5.750   4.607  17.191  1.8999 -0.7315  0.6729
 2067TIP3   OH230395   0.702   5.437  19.037  0.1625  0.6359  0.0605
 2067TIP3    H130396   0.768   5.440  18.969  0.8082 -0.2963  0.6300
 2067TIP3    H230397   0.618   5.442  18.990  0.6133  1.0526 -0.7082
 2068TIP3   OH230398   3.329   2.257  17.997  0.5165  0.3921  0.1002
 2068TIP3    H130399   3.412   2.258  17.949  1.6417  0.3834  1.9566
 2068TIP3    H230400   3.345   2.199  18.071 -0.8361  1.1848  1.0461
 2069TIP3   OH230401   7.414   1.359  18.715 -0.0848 -0.7951  0.3237
 2069TIP3    H130402   7.432   1.408  18.795 -1.2825  0.1977 -0.0016
 2069TIP3    H230403   7.334   1.310  18.733  0.6105 -1.9873  0.3313
 2070TIP3   OH230404   5.692   4.664  19.298 -0.1768  0.1816  0.2385
 2070TIP3    H130405   5.708   4.574  19.269  1.2415  0.5655 -0.2148
 2070TIP3    H230406   5.744   4.718  19.239 -1.9934  1.4236 -0.3290
 2071TIP3   OH230407   5.489   7.597  18.394  0.0143 -0.0866  0.9098
 2071TIP3    H130408   5.535   7.557  18.468  1.4448  0.4913  0.3694
 2071TIP3    H230409   5.477   7.689  18.420 -0.6529 -0.1831  0.9555
 2072TIP3   OH230410   1.127   4.307  18.709  0.7266  0.0313 -0.3942
 2072TIP3    H130411   1.115   4.359  18.789 -0.4106  2.6713 -2.1548
 2072TIP3    H230412   1.039   4.277  18.687  0.9301 -0.0889 -1.0503
 2073TIP3   OH230413   3.564   4.650  18.175  0.2780  0.0335 -0.1909
 2073TIP3    H130414   3.644   4.700  18.187  0.2706  0.7475 -2.5531
 2073TIP3    H230415   3.593   4.563  18.150  0.3753  0.3654 -1.3167
 2074TIP3   OH230416   6.664   6.737  18.136  0.2117  0.2799 -0.2284
 2074TIP3    H130417   6.582   6.696  18.164  0.8365  0.0133  1.3163
 2074TIP3    H230418   6.717   6.664  18.105 -0.3316  0.5266 -1.7930
 2075TIP3   OH230419   4.332   4.668  17.759 -0.0021 -0.4491  0.2768
 2075TIP3    H130420   4.299   4.697  17.674  3.0753 -1.3670 -1.4013
 2075TIP3    H230421   4.329   4.746  17.814 -0.0838  0.7523 -1.3492
 2076TIP3   OH230422   5.302   0.105  19.259  0.0889  0.2927  0.3027
 2076TIP3    H130423   5.225   0.159  19.280 -0.8638 -0.4425 -1.1083
 2076TIP3    H230424   5.314   0.050  19.337 -1.1431  0.0635  0.3527
 2077TIP3   OH230425   3.287   6.997  17.832 -0.3945 -0.2472 -0.0834
 2077TIP3    H130426   3.241   7.080  17.822  0.9800  0.4601 -0.9207
 2077TIP3    H230427   3.278   6.955  17.746  1.9303  0.7179 -0.8945
 2078TIP3   OH230428   5.978   1.175  19.271  0.4897 -0.3413  0.3064
 2078TIP3    H130429   5.983   1.080  19.285  0.3813 -0.2141  1.3102
 2078TIP3    H230430   5.886   1.196  19.282  0.7452  0.1125  1.8959
 2079TIP3   OH230431   0.151   1.429  16.894  0.2967  0.2070 -0.2705
 2079TIP3    H130432   0.062   1.400  16.873 -0.1371  0.9672  0.4789
 2079TIP3    H230433   0.156   1.518  16.858  0.0294  0.9759  1.5114
 2080TIP3   OH230434   0.309   6.607  18.099  0.4372 -0.3901  0.4000
 2080TIP3    H130435   0.224   6.650  18.091  0.6886 -0.0037 -0.3219
 2080TIP3    H230436   0.288   6.514  18.111 -0.0838 -0.4456 -0.8156
 2081TIP3   OH230437   1.628   3.688  17.192 -0.5409 -0.0373 -0.3033
 2081TIP3    H130438   1.657   3.732  17.111  2.3837  0.4327  0.8651
 2081TIP3    H230439   1.693   3.619  17.205  1.4768  2.2705  3.5638
 2082TIP3   OH230440   2.121   1.631  18.837 -0.5865 -0.2797  0.2308
 2082TIP3    H130441   2.210   1.633  18.801  0.4772  2.4709  2.6623
 2082TIP3    H230442   2.107   1.539  18.860  1.1455 -0.9706 -1.1942
 2083TIP3   OH230443   2.020   6.253  17.592 -0.2376  0.3169  0.3310
 2083TIP3    H130444   2.081   6.214  17.529 -0.8197 -1.6463  0.9314
 2083TIP3    H230445   2.059   6.338  17.612  1.5090 -0.2446 -0.4446
 2084TIP3   OH230446   7.020   4.931  18.999  0.0036 -0.0883 -0.8195
 2084TIP3    H130447   7.089   4.967  18.944  0.1285  1.2231  0.1600
 2084TIP3    H230448   6.966   5.006  19.023  0.2993 -0.4945  1.3281
 2085TIP3   OH230449   5.118   6.830  17.754  0.2039 -0.1172 -0.4280
 2085TIP3    H130450   5.074   6.883  17.820 -2.4989 -2.1155 -0.4331
 2085TIP3    H230451   5.088   6.741  17.771  2.6188 -1.3219 -1.9108
 2086TIP3   OH230452   6.299   3.302  17.950  0.2283  0.0452 -0.4563
 2086TIP3    H130453   6.301   3.291  18.045 -0.4420  1.2237 -0.2793
 2086TIP3    H230454   6.310   3.396  17.937  0.9333 -0.1698 -1.5861
 2087TIP3   OH230455   2.484   3.278  17.348  0.1477 -0.4761  0.1851
 2087TIP3    H130456   2.475   3.327  17.430 -0.0542  0.3919 -0.3418
 2087TIP3    H230457   2.463   3.342  17.280  0.0235 -1.2648 -0.5313
 2088TIP3   OH230458   3.924   5.416  18.826  0.0217 -0.3444  0.1297
 2088TIP3    H130459   3.923   5.380  18.737 -0.1889  0.3677 -0.1618
 2088TIP3    H230460   3.873   5.496  18.820 -0.8989 -0.8382  1.1389
 2089TIP3   OH230461   2.859   4.483  17.097 -0.1148 -0.2916  0.0229
 2089TIP3    H130462   2.809   4.559  17.068 -1.8028 -0.7442  1.5498
 2089TIP3    H230463   2.817   4.409  17.052  0.6250 -0.4610 -0.3957
 2090TIP3   OH230464   2.544   1.697  18.367  0.2913  0.5190  0.3361
 2090TIP3    H130465   2.547   1.646  18.286 -3.4917 -0.1429  0.4458
 2090TIP3    H230466   2.632   1.735  18.375  1.5490 -1.4195 -2.7008
 2091TIP3   OH230467   0.626   4.736  17.631  0.4262 -0.0848  0.3539
 2091TIP3    H130468   0.550   4.792  17.614 -0.0418 -1.2683 -1.7721
 2091TIP3    H230469   0.624   4.722  17.726 -0.5420  1.8895  0.6774
 2092TIP3   OH230470   6.478   6.337  18.421 -0.0640  0.2984  0.4904
 2092TIP3    H130471   6.548   6.276  18.445 -0.9892  0.2022  3.2090
 2092TIP3    H230472   6.477   6.402  18.491 -3.2446 -0.2262  1.0752
 2093TIP3   OH230473   7.271   0.154  18.422  0.4438 -0.3617 -0.2045
 2093TIP3    H130474   7.211   0.121  18.356  1.3850 -0.9371 -0.7951
 2093TIP3    H230475   7.241   0.243  18.441 -1.1076 -0.9424  0.1601
 2094TIP3   OH230476   5.994   1.985  19.555  0.5266  0.3828 -0.8434
 2094TIP3    H130477   5.916   1.961  19.505  0.2581 -0.3132 -0.1268
 2094TIP3    H230478   6.022   2.069  19.519 -1.6663  1.6247  0.1385
 2095TIP3   OH230479   3.961   0.568  16.812  0.4327 -0.2084  0.9087
 2095TIP3    H130480   4.038   0.532  16.857  1.1594 -0.5555 -0.5415
 2095TIP3    H230481   3.894   0.575  16.880  2.3083  1.9671  2.6684
 2096TIP3   OH230482   2.994   6.257  18.488  0.5421 -0.1616 -0.6077
 2096TIP3    H130483   3.050   6.222  18.419  1.9312  0.5803  0.1035
 2096TIP3    H230484   3.027   6.216  18.569  0.1296  0.3637 -0.1645
 2097TIP3   OH230485   4.004   2.986  17.716  0.0841 -0.0570  0.3926
 2097TIP3    H130486   4.053   3.047  17.660 -2.3309  0.8590 -0.8694
 2097TIP3    H230487   3.980   2.914  17.658  1.1811 -1.2675  1.3821
 2098TIP3   OH230488   4.945   3.859  19.421 -0.3905  0.3268 -0.3777
 2098TIP3    H130489   4.984   3.775  19.443 -1.0937  0.0954  0.0391
 2098TIP3    H230490   5.016   3.923  19.432  0.0457 -0.1627 -0.3318
 2099TIP3   OH230491   1.375   6.402  16.852 -0.0131  0.5952 -0.5058
 2099TIP3    H130492   1.356   6.317  16.811 -1.0849  0.3367  0.4752
 2099TIP3    H230493   1.466   6.395  16.880 -0.0480 -0.1862 -0.5550
 2100TIP3   OH230494   2.717   6.248  18.498 -0.9075  0.0077 -0.1929
 2100TIP3    H130495   2.808   6.270  18.481 -1.0169  0.0186 -0.7836
 2100TIP3    H230496   2.719   6.198  18.579 -0.2716 -0.8261 -0.7110
 2101TIP3   OH230497   5.569   2.006  19.064  0.2967 -0.3048  0.2914
 2101TIP3    H130498   5.650   1.956  19.078  2.3502  2.7169  0.1461
 2101TIP3    H230499   5.560   2.011  18.969  0.3666 -0.0603  0.2955
 2102TIP3   OH230500   4.767   1.036  18.077  0.2162  0.4138  0.2003
 2102TIP3    H130501   4.730   1.124  18.088 -0.6016  0.2732 -1.2024
 2102TIP3    H230502   4.710   0.994  18.013  2.7672  0.1669 -2.0636
 2103TIP3   OH230503   5.379   1.976  19.478 -0.2454  0.1856  0.2896
 2103TIP3    H130504   5.329   1.977  19.396 -0.6550 -3.2031  0.3707
 2103TIP3    H230505   5.324   2.024  19.540 -0.5682  1.6147 -1.0269
 2104TIP3   OH230506   6.966   7.592  18.880 -0.2117  0.0122  0.3932
 2104TIP3    H130507   7.006   7.656  18.939  0.6291 -0.3660  0.2588
 2104TIP3    H230508   6.946   7.517  18.936  1.9350 -0.9360  0.0067
 2105TIP3   OH230509   2.789   0.613  18.415 -0.3184 -0.1180  0.5895
 2105TIP3    H130510   2.803   0.678  18.484 -0.8634  1.3018 -0.5757
 2105TIP3    H230511   2.798   0.529  18.459 -1.1296  0.7269  2.4839
 2106TIP3   OH230512   7.326   4.288  18.450 -0.0882  0.2897 -0.3072
 2106TIP3    H130513   7.327   4.350  18.377 -0.2896 -0.1800 -0.7094
 2106TIP3    H230514   7.362   4.338  18.524 -0.2967  0.9018 -0.6142
 2107TIP3   OH230515   6.766   1.952  17.166  0.5096  0.3832  0.0724
 2107TIP3    H130516   6.792   1.861  17.180 -0.2013 -0.1995 -1.9591
 2107TIP3    H230517   6.822   1.982  17.094 -0.7741  0.8117 -0.7762
 2108TIP3   OH230518   2.179   7.315  18.416 -0.7355  0.1304  0.2516
 2108TIP3    H130519   2.084   7.299  18.419 -0.6117 -1.0479 -1.1732
 2108TIP3    H230520   2.217   7.227  18.416  0.1974  0.4369 -2.7550
 2109TIP3   OH230521   1.313   4.583  17.069  0.0090 -0.2209  0.7489
 2109TIP3    H130522   1.357   4.584  16.984  1.4699  2.0770  1.4342
 2109TIP3    H230523   1.378   4.547  17.129 -0.1245  0.4082  1.2744
 2110TIP3   OH230524   6.564   5.867  17.219 -0.1698  0.2884 -0.4282
 2110TIP3    H130525   6.595   5.890  17.131  0.6209 -0.7846 -0.4464
 2110TIP3    H230526   6.473   5.840  17.206 -0.1172  0.3306 -0.8863
 2111TIP3   OH230527   2.501   0.401  18.625 -0.2699  0.1083  0.0005
 2111TIP3    H130528   2.415   0.442  18.636 -0.9284 -1.4613  1.2494
 2111TIP3    H230529   2.533   0.433  18.541 -0.9702  2.6378  0.6274
 2112TIP3   OH230530   5.228   6.454  18.653  0.4517  0.3998 -0.4038
 2112TIP3    H130531   5.322   6.452  18.669  0.4430 -1.5584 -0.3300
 2112TIP3    H230532   5.217   6.404  18.572 -0.6124 -0.4413  0.2368
 2113TIP3   OH230533   7.287   5.729  19.472 -0.2098 -0.0401  1.0028
 2113TIP3    H130534   7.316   5.781  19.547  1.5945  0.6067 -0.0861
 2113TIP3    H230535   7.252   5.793  19.411  1.8042 -0.0772 -0.2510
 2114TIP3   OH230536   7.541   7.375  17.958  0.1414  0.0239 -0.4329
 2114TIP3    H130537   7.519   7.458  18.001  1.2691 -0.2824  0.8235
 2114TIP3    H230538   7.494   7.308  18.008  0.5490 -0.2319 -0.3798
 2115TIP3   OH230539   2.702   1.425  16.563  0.5804 -0.1554 -0.0445
 2115TIP3    H130540   2.796   1.443  16.559  1.0214 -2.4206 -1.0220
 2115TIP3    H230541   2.694   1.351  16.623 -0.5874 -0.0771 -0.0802
 2116TIP3   OH230542   7.319   6.067  16.665 -0.3335  0.0927  0.3374
 2116TIP3    H130543   7.247   6.003  16.659  0.0420 -0.3324  0.3290
 2116TIP3    H230544   7.281   6.148  16.634 -1.1057  0.1112  1.2679
 2117TIP3   OH230545   4.924   0.364  18.194  0.3295 -0.3359  0.1593
 2117TIP3    H130546   4.870   0.286  18.183 -0.8839  0.4763  0.0716
 2117TIP3    H230547   4.981   0.365  18.117  0.9941 -1.5922  0.6062
 2118TIP3   OH230548   5.541   2.146  18.710 -0.3136 -0.7023  0.3129
 2118TIP3    H130549   5.551   2.051  18.704 -1.9369 -1.0646  2.1725
 2118TIP3    H230550   5.470   2.159  18.773  0.7862  1.7807  1.1974
 2119TIP3   OH230551   7.076   4.975  17.486  0.0504  0.1389 -0.1793
 2119TIP3    H130552   7.041   4.886  17.483 -0.6364  0.4322 -1.3686
 2119TIP3    H230553   7.167   4.966  17.457 -0.3371 -0.0412 -1.3817
 2120TIP3   OH230554   4.382   0.714  16.978 -0.1816 -0.2011  1.1701
 2120TIP3    H130555   4.467   0.745  17.010 -0.4079  1.1891  0.4964
 2120TIP3    H230556   4.332   0.794  16.964 -0.7350 -0.8458 -0.8606
 2121TIP3   OH230557   5.196   2.252  17.981 -0.3610  0.1087  0.9613
 2121TIP3    H130558   5.150   2.320  17.931  0.5709  0.1987  0.2008
 2121TIP3    H230559   5.168   2.266  18.071 -1.2927  0.5881  0.6107
 2122TIP3   OH230560   2.315   5.178  17.340  0.1210  0.3263  0.3084
 2122TIP3    H130561   2.313   5.182  17.244  0.1247 -1.0754  0.2372
 2122TIP3    H230562   2.227   5.150  17.365  0.9739 -2.4857  0.4958
 2123TIP3   OH230563   6.959   6.026  18.034  0.3293  0.3821 -0.1488
 2123TIP3    H130564   7.055   6.028  18.036  0.3583  1.1406 -1.5700
 2123TIP3    H230565   6.938   5.979  17.954 -0.4911  0.8437 -0.2082
 2124TIP3   OH230566   3.809   1.200  17.351 -0.0707  0.2785 -0.1714
 2124TIP3    H130567   3.898   1.197  17.316  0.3692  1.3301  0.7927
 2124TIP3    H230568   3.762   1.261  17.294 -0.2341 -0.4025 -0.7793
 2125TIP3   OH230569   3.555   2.789  18.381  0.3824  0.1962  0.1287
 2125TIP3    H130570   3.583   2.870  18.339  0.6619 -1.0237 -2.1647
 2125TIP3    H230571   3.628   2.765  18.438 -0.0813  1.9710  1.5787
 2126TIP3   OH230572   3.128   2.374  17.707 -0.1636 -0.7163  0.1889
 2126TIP3    H130573   3.033   2.388  17.707  0.0766  1.3380 -0.8279
 2126TIP3    H230574   3.158   2.416  17.626  1.7320 -0.4719  0.9655
 2127TIP3   OH230575   1.028   6.301  18.916  0.2008  0.9243  0.2041
 2127TIP3    H130576   1.089   6.348  18.858  2.1977  1.9625  2.9218
 2127TIP3    H230577   0.977   6.370  18.958 -0.1298  0.3236  0.8074
 2128TIP3   OH230578   7.078   2.224  17.248  0.4780  0.0715  0.0672
 2128TIP3    H130579   7.132   2.293  17.286  0.1295  1.9971 -2.6043
 2128TIP3    H230580   7.139   2.171  17.198  0.3131  0.6565 -0.7874
 2129TIP3   OH230581   3.258   0.136  18.155 -0.7630  0.6941 -0.2217
 2129TIP3    H130582   3.203   0.197  18.206 -0.6814  1.1063 -0.6217
 2129TIP3    H230583   3.197   0.096  18.093 -0.6481  1.0232 -0.5497
 2130TIP3   OH230584   0.194   2.025  18.160 -0.2155 -0.0409  0.4929
 2130TIP3    H130585   0.237   2.017  18.245  1.0119 -0.2706 -0.1134
 2130TIP3    H230586   0.126   2.091  18.172  0.4729  0.5134  1.4435
 2131TIP3   OH230587   0.804   4.766  19.158 -0.3355 -0.1068  0.0954
 2131TIP3    H130588   0.761   4.687  19.125 -0.0573 -0.6384  0.9797
 2131TIP3    H230589   0.742   4.836  19.141 -0.9269 -0.6383  0.0191
 2132TIP3   OH230590   5.096   7.663  18.550 -0.8824 -0.3536 -0.2513
 2132TIP3    H130591   5.019   7.713  18.524 -0.6495 -0.7520 -1.7724
 2132TIP3    H230592   5.074   7.630  18.638 -2.8838 -1.2967 -1.0411
 2133TIP3   OH230593   6.734   6.643  19.123 -0.5391 -0.0486 -0.2131
 2133TIP3    H130594   6.771   6.695  19.194 -0.6542  0.6128 -0.6304
 2133TIP3    H230595   6.659   6.598  19.163  0.3464 -0.9647  0.4928
 2134TIP3   OH230596   0.299   6.843  17.919  0.0617 -0.3977  0.1646
 2134TIP3    H130597   0.312   6.775  17.985 -1.2839 -0.3409  0.5120
 2134TIP3    H230598   0.248   6.910  17.964 -1.6463 -0.7397 -1.1356
 2135TIP3   OH230599   1.620   7.109  17.974  0.4212  0.4959  0.1396
 2135TIP3    H130600   1.685   7.040  17.985 -0.0821 -0.2412 -1.2332
 2135TIP3    H230601   1.603   7.141  18.063 -0.3755 -2.1566  1.0308
 2136TIP3   OH230602   7.565   3.534  17.542  0.1646 -0.3579 -0.2773
 2136TIP3    H130603   7.599   3.551  17.454  3.3811 -1.7038  0.5658
 2136TIP3    H230604   7.559   3.438  17.547 -0.1408 -0.2913  0.9408
 2137TIP3   OH230605   1.998   3.519  17.997  0.2886  0.0909  0.2654
 2137TIP3    H130606   1.932   3.519  17.928  0.7144  0.7844 -0.1456
 2137TIP3    H230607   2.005   3.427  18.023 -2.8343  0.2849  2.2731
 2138TIP3   OH230608   1.572   3.216  18.549 -0.2464  0.2889 -0.3715
 2138TIP3    H130609   1.569   3.165  18.469  2.0634 -2.3976  1.0838
 2138TIP3    H230610   1.664   3.235  18.563 -0.4898  0.1848  1.8904
 2139TIP3   OH230611   5.831   4.870  18.009 -0.0790  0.0470  0.0639
 2139TIP3    H130612   5.902   4.810  17.987  1.2831  1.2701  0.9110
 2139TIP3    H230613   5.873   4.938  18.062 -1.8215  1.0263  0.2619
 2140TIP3   OH230614   1.304   0.227  18.800 -0.1234  0.2373 -0.8584
 2140TIP3    H130615   1.330   0.319  18.798 -0.5610  0.3705 -0.6602
 2140TIP3    H230616   1.209   0.229  18.784 -0.8762  0.1297  2.7466
 2141TIP3   OH230617   7.522   4.425  18.617  0.4141  0.0935 -0.2033
 2141TIP3    H130618   7.562   4.372  18.687  1.3461  0.4552 -0.4425
 2141TIP3    H230619   7.583   4.417  18.544  0.9048  1.9987 -0.0448
 2142TIP3   OH230620   6.214   2.972  18.427  0.8360 -0.2385 -0.2904
 2142TIP3    H130621   6.192   2.971  18.333 -0.2072 -0.2183 -0.0627
 2142TIP3    H230622   6.240   2.882  18.446 -0.0245 -0.5173 -0.3735
 2143TIP3   OH230623   5.885   3.717  17.534  0.3434 -0.1882 -0.4759
 2143TIP3    H130624   5.949   3.646  17.537  1.5183  0.8341 -0.1097
 2143TIP3    H230625   5.931   3.788  17.487 -1.6170 -0.4327 -2.9961
 2144TIP3   OH230626   6.547   4.858  17.697  0.3497 -0.2077 -0.0005
 2144TIP3    H130627   6.467   4.909  17.681  1.2199  0.8098 -1.3661
 2144TIP3    H230628   6.520   4.787  17.755 -1.2569  0.9018  0.6692
 2145TIP3   OH230629   7.546   6.172  16.737 -0.4731 -0.3303  0.2460
 2145TIP3    H130630   7.593   6.110  16.792 -0.2401  0.0836  0.5140
 2145TIP3    H230631   7.473   6.121  16.701 -0.3454 -0.7315  0.5444
 2146TIP3   OH230632   1.924   2.633  18.293 -0.1515 -0.8062 -0.4057
 2146TIP3    H130633   1.924   2.597  18.382  0.5141 -1.7395 -0.7661
 2146TIP3    H230634   1.848   2.593  18.251 -0.8751  0.1670 -0.0740
 2147TIP3   OH230635   7.488   5.958  18.387 -0.0408  0.0930 -0.0016
 2147TIP3    H130636   7.421   5.911  18.437 -0.0894  1.4047  1.2176
 2147TIP3    H230637   7.564   5.960  18.444  0.6550 -0.3260 -0.8984
 2148TIP3   OH230638   3.996   5.716  17.619  0.1418  0.0437 -0.5445
 2148TIP3    H130639   4.049   5.701  17.541 -1.2728  0.2413 -1.5833
 2148TIP3    H230640   3.961   5.804  17.607 -0.6134 -0.1766 -0.0052
 2149TIP3   OH230641   1.331   0.718  18.690 -0.4087 -0.4511 -0.4179
 2149TIP3    H130642   1.381   0.798  18.678 -1.7520  0.3208 -1.1115
 2149TIP3    H230643   1.397   0.650  18.708  0.8774  0.4707 -1.5142
 2150TIP3   OH230644   7.278   2.635  18.096 -0.0175  0.1915  0.0981
 2150TIP3    H130645   7.355   2.611  18.148  0.0917 -0.0480 -0.1674
 2150TIP3    H230646   7.213   2.568  18.116  0.9094 -1.4945 -2.0380
 2151TIP3   OH230647   3.769   0.483  17.861 -0.3210 -0.1353  0.1812
 2151TIP3    H130648   3.681   0.486  17.824 -0.9410  0.4650  1.6300
 2151TIP3    H230649   3.797   0.575  17.864  0.3597 -0.3182 -0.2497
 2152TIP3   OH230650   1.261   0.345  17.182  0.2357  0.0724  0.1371
 2152TIP3    H130651   1.210   0.311  17.108 -1.1135 -1.6989  1.7939
 2152TIP3    H230652   1.329   0.399  17.141  0.9781 -2.6369 -2.5713
 2153TIP3   OH230653   7.319   4.897  17.384 -0.0789 -0.0425 -0.3639
 2153TIP3    H130654   7.331   4.803  17.401  0.2767 -0.2446 -1.6706
 2153TIP3    H230655   7.353   4.911  17.296  0.2162  1.3970 -0.0507
 2154TIP3   OH230656   0.371   6.212  17.873 -0.4802 -0.4068  0.2307
 2154TIP3    H130657   0.325   6.132  17.898 -0.8515 -0.3869 -0.3680
 2154TIP3    H230658   0.304   6.265  17.828 -0.0886 -0.0111  0.1080
 2155TIP3   OH230659   6.585   7.156  19.500 -0.8533  0.5301 -0.3630
 2155TIP3    H130660   6.565   7.097  19.573 -0.8167  0.2082 -0.6094
 2155TIP3    H230661   6.576   7.244  19.537  1.7520  0.4078  0.7358
 2156TIP3   OH230662   5.977   3.151  18.539  0.3894  0.1739  0.1844
 2156TIP3    H130663   5.988   3.227  18.483  0.4686 -0.3905 -0.5916
 2156TIP3    H230664   5.994   3.076  18.481 -0.4650 -0.4595  0.7292
 2157TIP3   OH230665   2.543   5.387  18.340 -0.0780  0.2622  0.0063
 2157TIP3    H130666   2.540   5.438  18.259 -0.1016 -0.2037 -0.2909
 2157TIP3    H230667   2.549   5.296  18.310  2.1147  0.1781  0.5017
 2158TIP3   OH230668   5.916   4.727  18.867 -0.5424 -0.9230 -0.3231
 2158TIP3    H130669   5.937   4.648  18.818  0.2528  0.6055 -2.6327
 2158TIP3    H230670   5.952   4.799  18.814 -2.2796  1.0976  1.0421
 2159TIP3   OH230671   2.336   5.710  19.267 -0.5301 -0.0197  0.4413
 2159TIP3    H130672   2.309   5.637  19.211  0.2774  0.8606 -1.1890
 2159TIP3    H230673   2.427   5.726  19.243 -1.0324  2.3004 -0.1727
 2160TIP3   OH230674   3.811   1.530  17.441 -0.3662 -0.4569 -0.1215
 2160TIP3    H130675   3.751   1.507  17.370  0.2157 -2.0520 -0.1512
 2160TIP3    H230676   3.899   1.515  17.404  0.2245  3.2136 -0.5713
 2161TIP3   OH230677   0.189   4.579  18.448  0.5657  0.9353 -0.0893
 2161TIP3    H130678   0.104   4.566  18.405  0.8513  2.4098 -1.1943
 2161TIP3    H230679   0.179   4.537  18.533 -1.5846  1.7894  0.1552
 2162TIP3   OH230680   5.789   4.133  17.288  0.1526 -0.0321 -0.0185
 2162TIP3    H130681   5.822   4.208  17.238 -0.9286 -0.3089 -1.1952
 2162TIP3    H230682   5.734   4.172  17.356  0.0421  0.2696 -0.2769
 2163TIP3   OH230683   7.248   5.350  19.383  0.7490 -0.3620 -0.1878
 2163TIP3    H130684   7.166   5.392  19.408  0.2346 -1.1271 -0.5639
 2163TIP3    H230685   7.310   5.423  19.372 -0.0283  0.2699 -0.4865
 2164TIP3   OH230686   1.804   6.516  18.729 -0.1074 -0.2897  0.3901
 2164TIP3    H130687   1.870   6.583  18.708 -0.7562 -0.1812 -1.4942
 2164TIP3    H230688   1.727   6.566  18.756 -0.7652 -0.2037 -1.5292
 2165TIP3   OH230689   7.666   6.431  18.169  0.7391 -0.0938 -0.1194
 2165TIP3    H130690   7.708   6.357  18.213 -1.3944 -0.6206  1.2088
 2165TIP3    H230691   7.627   6.482  18.240 -0.1201  0.8061 -1.1933
 2166TIP3   OH230692   2.001   3.542  17.568 -0.0336  0.3876  0.3674
 2166TIP3    H130693   1.924   3.598  17.581  0.9482  1.9940 -0.4187
 2166TIP3    H230694   2.074   3.603  17.558  1.1165 -1.0508 -0.4645
 2167TIP3   OH230695   5.039   1.558  19.297 -1.2141  0.3184 -0.2611
 2167TIP3    H130696   5.125   1.591  19.271  0.4658 -1.8344  2.1019
 2167TIP3    H230697   4.992   1.636  19.326  1.2181  1.2046  1.6169
 2168TIP3   OH230698   2.592   0.496  19.305  0.0942 -0.3336 -0.1695
 2168TIP3    H130699   2.553   0.420  19.348 -2.1056  1.0192  0.3631
 2168TIP3    H230700   2.589   0.475  19.212 -2.1820 -0.2154 -0.1620
 2169TIP3   OH230701   7.050   4.709  18.794 -0.0725 -0.6784  0.3060
 2169TIP3    H130702   7.110   4.782  18.778 -1.0756  0.1071  0.0092
 2169TIP3    H230703   7.018   4.724  18.883  0.8593 -1.6235  0.8271
 2170TIP3   OH230704   6.684   6.310  19.338 -0.1118 -0.5333 -0.0752
 2170TIP3    H130705   6.715   6.379  19.397  0.8910  0.0580 -1.2612
 2170TIP3    H230706   6.760   6.253  19.327 -0.9903 -2.0026  1.0681
 2171TIP3   OH230707   2.501   3.949  18.495  0.1732  0.0602  0.2288
 2171TIP3    H130708   2.436   3.889  18.459  0.6028  0.2146 -0.8682
 2171TIP3    H230709   2.455   3.996  18.564 -0.2234 -1.3736  0.9818
 2172TIP3   OH230710   3.928   1.777  17.546  0.1948 -0.7831  0.1583
 2172TIP3    H130711   3.876   1.697  17.533  0.8187 -1.2137  0.2404
 2172TIP3    H230712   3.910   1.803  17.637 -1.1511  0.0195 -0.3124
 2173TIP3   OH230713   4.112   0.907  18.549 -0.5529 -0.9707  0.4986
 2173TIP3    H130714   4.159   0.911  18.466 -1.7194  3.2089 -0.2022
 2173TIP3    H230715   4.020   0.906  18.525 -0.9154  0.4017  1.6464
 2174TIP3   OH230716   1.370   6.998  17.452 -0.3166 -0.6611 -0.0815
 2174TIP3    H130717   1.376   7.093  17.451  0.7425 -0.6852 -2.4075
 2174TIP3    H230718   1.444   6.969  17.504 -1.4453 -0.2422  1.8474
 2175TIP3   OH230719   4.109   6.779  19.100 -0.6575 -0.2611  0.5855
 2175TIP3    H130720   4.096   6.862  19.146  0.3451  0.4264 -0.3221
 2175TIP3    H230721   4.024   6.761  19.058 -2.3468 -2.0488  4.3398
 2176TIP3   OH230722   0.470   5.393  19.507  0.0866  0.8500 -0.1952
 2176TIP3    H130723   0.544   5.449  19.489  1.0302 -0.4349 -0.4590
 2176TIP3    H230724   0.425   5.434  19.581  0.3285  2.2953 -0.8254
 2177TIP3   OH230725   3.414   3.621  18.569  0.1783  0.1666 -0.2393
 2177TIP3    H130726   3.465   3.587  18.495  0.4237 -1.6798  0.7114
 2177TIP3    H230727   3.324   3.597  18.549  0.1866  0.0617 -0.1510
 2178TIP3   OH230728   2.807   0.938  18.871 -0.1324  0.3641  0.2976
 2178TIP3    H130729   2.799   0.865  18.932 -0.7086  0.4274  0.3057
 2178TIP3    H230730   2.725   0.937  18.821 -0.2737  1.1761  0.4919
 2179TIP3   OH230731   5.367   4.392  19.851 -0.8017  0.2566 -0.9590
 2179TIP3    H130732   5.370   4.297  19.849  0.5315  0.1915  0.9061
 2179TIP3    H230733   5.454   4.420  19.823 -1.1303  0.9270 -1.3489
 2180TIP3   OH230734   0.011   3.131  16.479  0.8250 -0.1962  0.1935
 2180TIP3    H130735  -0.063   3.104  16.425  0.5720  0.9708 -0.0624
 2180TIP3    H230736   0.076   3.163  16.417 -0.0031  2.4762  0.5439
 2181TIP3   OH230737   2.664   6.789  17.028 -0.3148  0.3164  0.1127
 2181TIP3    H130738   2.614   6.763  16.951 -0.9675 -0.4759  0.7870
 2181TIP3    H230739   2.599   6.801  17.096  0.3545 -0.0615  0.8303
 2182TIP3   OH230740   4.859   6.047  17.451  1.0322  0.1291 -0.2675
 2182TIP3    H130741   4.792   6.006  17.505  0.2028  0.7029 -0.8365
 2182TIP3    H230742   4.853   6.001  17.367  0.6891  0.8024 -0.6248
 2183TIP3   OH230743   5.576   3.074  16.597  0.7494  0.8886  0.3893
 2183TIP3    H130744   5.514   3.071  16.670  0.5482  2.6338  0.3287
 2183TIP3    H230745   5.522   3.085  16.519  1.0830  1.6069  0.2526
 2184TIP3   OH230746   1.915   6.160  18.144 -0.1412  0.0768  0.4801
 2184TIP3    H130747   1.962   6.201  18.071  2.2954 -0.8164  1.4436
 2184TIP3    H230748   1.868   6.087  18.103  0.9768 -0.2504 -0.2767
 2185TIP3   OH230749   3.825   4.603  17.073  0.4135 -0.5758  0.6004
 2185TIP3    H130750   3.847   4.692  17.046 -1.4734 -0.0233  0.7843
 2185TIP3    H230751   3.745   4.581  17.025 -0.8767 -0.9935  2.7787
 2186TIP3   OH230752   2.106   4.072  17.509  0.1050  0.0540  0.1223
 2186TIP3    H130753   2.063   4.095  17.591  1.1269 -1.0346  0.9868
 2186TIP3    H230754   2.169   4.004  17.532  0.7125  0.0134 -1.4927
 2187TIP3   OH230755   0.276   6.732  17.274  0.1307 -0.1648  0.4124
 2187TIP3    H130756   0.338   6.792  17.315 -0.0904  0.0667  0.4105
 2187TIP3    H230757   0.277   6.756  17.181 -0.3189  0.1559  0.4909
 2188TIP3   OH230758   2.418   6.116  17.947 -0.1050 -0.3983  0.0578
 2188TIP3    H130759   2.340   6.061  17.939 -1.7617  2.0421 -2.7596
 2188TIP3    H230760   2.402   6.189  17.887  3.9482  0.7702  0.0972
 2189TIP3   OH230761   0.383   4.707  17.876 -0.5408  0.3127 -0.1766
 2189TIP3    H130762   0.421   4.621  17.888 -0.0883  0.4086 -0.8339
 2189TIP3    H230763   0.449   4.768  17.910 -0.1059  0.4758 -1.2704
 2190TIP3   OH230764   1.254   4.979  17.579 -0.6197 -0.2936  0.1487
 2190TIP3    H130765   1.241   5.051  17.517 -0.8944 -0.9561 -0.5784
 2190TIP3    H230766   1.339   4.941  17.554  0.4008  0.8798  1.6764
 2191TIP3   OH230767   6.311   3.419  18.530  0.4279 -0.3893 -1.2120
 2191TIP3    H130768   6.241   3.461  18.579  1.5941 -0.1944  0.3610
 2191TIP3    H230769   6.281   3.421  18.439 -1.4631 -0.0936 -0.6175
 2192TIP3   OH230770   3.051   0.147  17.854  0.1099 -0.0239  0.4575
 2192TIP3    H130771   3.050   0.054  17.835  1.0813 -0.0230  0.3550
 2192TIP3    H230772   3.126   0.181  17.805 -0.1093  0.7701  0.6587
 2193TIP3   OH230773   4.654   1.876  16.917 -0.5324 -0.3869 -0.3250
 2193TIP3    H130774   4.658   1.793  16.868  0.7290 -0.4536 -0.1436
 2193TIP3    H230775   4.697   1.940  16.860 -1.5478  0.1781 -0.4852
 2194TIP3   OH230776   0.377   5.655  17.048  0.3837 -0.5320  0.8856
 2194TIP3    H130777   0.469   5.628  17.043  0.7739  0.6970  1.2731
 2194TIP3    H230778   0.329   5.578  17.017  1.6110 -0.6024 -1.0224
 2195TIP3   OH230779   5.330   7.586  17.682  0.3023 -0.3354  0.6837
 2195TIP3    H130780   5.249   7.634  17.696 -0.2505 -0.9575 -0.3415
 2195TIP3    H230781   5.368   7.624  17.603 -0.1632 -1.5897 -0.1689
 2196TIP3   OH230782   3.269   3.434  18.202  0.5993  0.7095 -0.5181
 2196TIP3    H130783   3.297   3.374  18.134  0.3079 -0.0309  0.0038
 2196TIP3    H230784   3.344   3.442  18.260  0.7752  1.1717 -0.8048
 2197TIP3   OH230785   5.927   6.286  17.122 -0.1658  0.1225 -0.1852
 2197TIP3    H130786   5.977   6.206  17.112  1.0596  0.6538  1.2348
 2197TIP3    H230787   5.852   6.262  17.176 -0.0208 -0.1529 -0.1079
 2198TIP3   OH230788   4.961   0.287  18.699  0.0399  0.0538  0.7175
 2198TIP3    H130789   5.031   0.264  18.638  0.3983  0.9132  0.7927
 2198TIP3    H230790   4.881   0.275  18.649  0.3654  1.9301 -0.3716
 2199TIP3   OH230791   1.314   7.158  18.902 -0.0421 -0.1445  0.7065
 2199TIP3    H130792   1.253   7.126  18.835  0.0341 -0.6813  0.8841
 2199TIP3    H230793   1.384   7.092  18.904 -0.0840 -0.1726  1.3656
 2200TIP3   OH230794   6.483   6.393  16.947  0.4410 -0.0644 -0.1590
 2200TIP3    H130795   6.458   6.357  16.862 -2.2368 -1.7114  1.1773
 2200TIP3    H230796   6.546   6.330  16.982  1.2316  0.3987 -0.7205
 2201TIP3   OH230797   1.080   6.511  18.420 -0.4734  0.7800  0.1526
 2201TIP3    H130798   1.106   6.465  18.500 -1.5568 -1.5416 -0.7313
 2201TIP3    H230799   1.022   6.581  18.450  1.2040  1.6516  1.5600
 2202TIP3   OH230800   5.682   6.142  19.183 -0.0434  0.4556  0.6301
 2202TIP3    H130801   5.676   6.117  19.275  0.0662  0.5986  0.6763
 2202TIP3    H230802   5.728   6.070  19.141  2.7783  1.7740  1.2484
 2203TIP3   OH230803   6.535   7.054  19.024 -0.3090  0.0069  0.0264
 2203TIP3    H130804   6.616   7.060  19.075  0.2068  0.8747 -0.8548
 2203TIP3    H230805   6.469   7.026  19.087  0.9041 -1.9594  0.5152
 2204TIP3   OH230806   5.920   4.505  17.781 -0.0803 -0.4445  0.0230
 2204TIP3    H130807   6.014   4.495  17.768 -0.2017 -0.4074 -0.9617
 2204TIP3    H230808   5.907   4.493  17.875  0.9127 -0.3894  0.1736
 2205TIP3   OH230809   4.534   4.496  18.531 -0.3895  0.2427 -0.0959
 2205TIP3    H130810   4.461   4.448  18.492  0.1331 -1.5896  1.0726
 2205TIP3    H230811   4.609   4.476  18.475  0.2272 -1.8874  1.3907
 2206TIP3   OH230812   3.730   7.083  18.228  0.3053  0.5382  0.1780
 2206TIP3    H130813   3.822   7.056  18.221  0.8433  2.1681  0.5103
 2206TIP3    H230814   3.707   7.067  18.320 -0.2160 -1.1772 -0.2111
 2207TIP3   OH230815   4.668   2.511  18.628  0.4787 -0.0319 -0.2871
 2207TIP3    H130816   4.702   2.533  18.541  1.2991  2.2939  0.5582
 2207TIP3    H230817   4.599   2.574  18.644  0.6161 -0.1590  0.9160
 2208TIP3   OH230818   2.917   4.421  19.212 -0.2453  0.0425  0.2193
 2208TIP3    H130819   2.901   4.506  19.171  1.0269  0.5892  0.7818
 2208TIP3    H230820   2.954   4.367  19.143 -1.2340 -0.1345 -0.1904
 2209TIP3   OH230821   6.489   0.466  18.401  0.1172  0.1140 -0.4020
 2209TIP3    H130822   6.416   0.432  18.453 -1.1874  1.2049 -1.4500
 2209TIP3    H230823   6.538   0.388  18.374 -2.6145 -1.0303 -2.5217
 2210TIP3   OH230824   7.494   2.469  18.445 -0.4423  0.1320 -0.3179
 2210TIP3    H130825   7.512   2.454  18.353 -1.0556 -0.4203 -0.3523
 2210TIP3    H230826   7.473   2.563  18.451  0.2936  0.3220 -0.6099
 2211TIP3   OH230827   4.649   0.384  17.397  0.1783 -0.3978 -0.4662
 2211TIP3    H130828   4.711   0.396  17.325 -2.3823  0.4201 -2.7157
 2211TIP3    H230829   4.611   0.298  17.381 -0.7575 -0.0051 -0.4044
 2212TIP3   OH230830   1.361   2.480  18.619  0.3233  0.2691  0.2719
 2212TIP3    H130831   1.307   2.401  18.609 -1.2047  1.4189 -1.0004
 2212TIP3    H230832   1.345   2.509  18.709 -2.9768  1.7408 -0.6303
 2213TIP3   OH230833   3.084   2.164  18.412 -0.1183  0.3245  0.3832
 2213TIP3    H130834   3.162   2.111  18.425 -0.0320 -0.5561 -2.8466
 2213TIP3    H230835   3.112   2.253  18.433  1.3135 -0.1709  0.6985
 2214TIP3   OH230836   0.076   2.480  18.604  0.0977  0.2033  0.1730
 2214TIP3    H130837   0.124   2.541  18.547 -1.5643  2.4382  1.0272
 2214TIP3    H230838  -0.005   2.461  18.557  0.1662 -0.6235  0.3600
 2215TIP3   OH230839   0.309   0.431  18.674 -0.1356 -0.1730  0.1391
 2215TIP3    H130840   0.356   0.421  18.757 -1.0059  3.8344  1.3569
 2215TIP3    H230841   0.220   0.401  18.693  0.3260 -1.8035 -0.2131
 2216TIP3   OH230842   6.523   5.356  19.026  0.2191  0.5036 -0.3762
 2216TIP3    H130843   6.477   5.389  19.103  0.6494  1.0585 -0.3506
 2216TIP3    H230844   6.535   5.263  19.044 -0.2424  0.5001 -0.0583
 2217TIP3   OH230845   3.372   1.354  18.767  0.0143 -0.4962 -0.4684
 2217TIP3    H130846   3.404   1.299  18.839  0.1959  0.2188  0.0153
 2217TIP3    H230847   3.438   1.423  18.759 -0.1798 -0.3820 -1.0991
 2218TIP3   OH230848   1.270   1.112  17.239 -0.0392  0.2800  0.4652
 2218TIP3    H130849   1.338   1.172  17.208 -0.2186  0.1408 -0.2260
 2218TIP3    H230850   1.270   1.041  17.175 -1.0353  0.4333  0.2781
 2219TIP3   OH230851   5.466   4.225  19.569  0.0806 -0.7803 -0.1709
 2219TIP3    H130852   5.541   4.207  19.626  0.3858 -0.8108 -0.5792
 2219TIP3    H230853   5.461   4.321  19.567  0.4395 -0.7672 -0.5691
 2220TIP3   OH230854   3.045   2.390  17.026 -0.2475  0.5495 -0.4445
 2220TIP3    H130855   3.092   2.308  17.008 -0.7916 -0.1835  1.3001
 2220TIP3    H230856   3.109   2.444  17.073 -0.5530  0.3090  0.2419
 2221TIP3   OH230857   2.609   4.741  17.946 -0.4922 -0.0827 -0.3680
 2221TIP3    H130858   2.569   4.722  17.861  1.8029 -1.5680 -1.2158
 2221TIP3    H230859   2.703   4.735  17.930  0.0726 -3.2808  2.8010
 2222TIP3   OH230860   3.468   1.888  17.963  1.2336 -0.2480 -0.2485
 2222TIP3    H130861   3.476   1.895  17.867  2.9246  0.2292 -0.1152
 2222TIP3    H230862   3.425   1.804  17.978  2.5555 -1.1807 -1.4106
 2223TIP3   OH230863   6.622   6.291  19.015  0.0003 -1.1140 -0.1602
 2223TIP3    H130864   6.707   6.295  18.971  0.5079 -1.7688  0.7383
 2223TIP3    H230865   6.593   6.201  19.003 -0.4759 -0.9455 -0.2833
 2224TIP3   OH230866   6.790   5.651  18.112 -0.5489 -0.4918  0.0969
 2224TIP3    H130867   6.844   5.646  18.033  0.4810 -1.4830  0.8256
 2224TIP3    H230868   6.847   5.691  18.177 -0.8540 -1.0984  0.7474
 2225TIP3   OH230869   0.403   2.139  17.779  0.1677 -0.1148  0.3259
 2225TIP3    H130870   0.417   2.158  17.872  1.2328 -1.0414  0.3795
 2225TIP3    H230871   0.373   2.222  17.742 -1.0362  0.0682  1.6314
 2226TIP3   OH230872   6.219   0.146  18.957  0.8234 -0.4309  0.1335
 2226TIP3    H130873   6.171   0.204  19.015  0.5980  0.7317 -1.1524
 2226TIP3    H230874   6.254   0.204  18.889  2.3551 -1.5274 -0.0680
 2227TIP3   OH230875   2.680   0.722  17.746  0.1762 -0.2947  0.0202
 2227TIP3    H130876   2.689   0.812  17.777 -1.2272 -0.6654  1.7091
 2227TIP3    H230877   2.633   0.729  17.663  0.3166  0.5579  0.0100
 2228TIP3   OH230878   1.991   2.122  17.880 -0.4352 -0.4541  0.2777
 2228TIP3    H130879   2.060   2.056  17.888  0.7575  0.7064 -0.0076
 2228TIP3    H230880   2.016   2.191  17.942 -2.3557 -0.8109  1.5490
 2229TIP3   OH230881   5.271   3.426  17.170  0.2292  0.1244  0.2692
 2229TIP3    H130882   5.253   3.333  17.156 -0.3328  0.2738 -0.0267
 2229TIP3    H230883   5.336   3.427  17.241 -0.6319 -0.4574  1.0975
 2230TIP3   OH230884   0.286   4.583  19.811 -0.4950 -0.2010 -0.0890
 2230TIP3    H130885   0.259   4.613  19.898 -1.4026  0.0442 -0.4404
 2230TIP3    H230886   0.209   4.536  19.777 -0.1313 -0.3362 -0.7404
 2231TIP3   OH230887   7.390   3.380  18.861  0.0368  0.2299  0.3021
 2231TIP3    H130888   7.359   3.442  18.927  0.0179 -0.4240  0.9161
 2231TIP3    H230889   7.312   3.331  18.836  0.2958 -0.4702  0.8282
 2232TIP3   OH230890   7.613   3.699  17.902  0.0880  0.1813  0.9541
 2232TIP3    H130891   7.682   3.722  17.964  0.6692 -2.1858  1.2622
 2232TIP3    H230892   7.582   3.613  17.930 -0.0522 -0.7052 -1.6482
 2233TIP3   OH230893   7.011   6.033  18.363 -0.0707  0.1130  0.4536
 2233TIP3    H130894   7.023   6.078  18.279 -1.4923 -1.0199 -0.4097
 2233TIP3    H230895   7.042   6.095  18.429 -1.3396  2.1000 -0.7239
 2234TIP3   OH230896   5.388   4.127  17.155  0.2421  0.2128 -0.2065
 2234TIP3    H130897   5.480   4.101  17.157  0.2865  0.3623 -0.2699
 2234TIP3    H230898   5.387   4.216  17.189  0.1292  0.2352 -0.2672
 2235TIP3   OH230899   2.654   2.284  19.389 -0.3337 -0.7446 -0.0660
 2235TIP3    H130900   2.705   2.284  19.469  1.3836 -1.6748 -1.1022
 2235TIP3    H230901   2.681   2.363  19.342 -0.3824 -0.8605 -0.2948
 2236TIP3   OH230902   2.010   3.982  18.402 -0.2367  0.3605  0.5215
 2236TIP3    H130903   2.011   4.045  18.331  2.1201  0.7995  0.8444
 2236TIP3    H230904   2.049   3.903  18.364  0.1901  0.3032  1.0654
 2237TIP3   OH230905   4.196   7.617  19.357 -0.2280 -0.2096  0.2654
 2237TIP3    H130906   4.123   7.558  19.377 -1.1858  0.4595 -1.0641
 2237TIP3    H230907   4.155   7.689  19.309  1.0232  1.1578  1.1532
 2238TIP3   OH230908   3.342   2.222  18.633  0.0890 -0.5701 -0.4222
 2238TIP3    H130909   3.342   2.136  18.675  0.0333 -0.2759  0.1800
 2238TIP3    H230910   3.274   2.271  18.678  0.7734  0.1125 -0.1001
 2239TIP3   OH230911   1.443   2.807  19.119  0.0327  0.4635 -0.0874
 2239TIP3    H130912   1.467   2.761  19.038 -0.3569 -1.0730  0.6214
 2239TIP3    H230913   1.497   2.765  19.187  1.0307  2.3542  0.3447
 2240TIP3   OH230914   5.848   0.992  18.594  0.5076 -0.6345  0.1950
 2240TIP3    H130915   5.865   0.948  18.677  1.2361 -0.0843  0.3514
 2240TIP3    H230916   5.803   1.073  18.618  3.4257  1.0446  0.3807
 2241TIP3   OH230917   1.019   2.684  17.665  0.9307 -0.3855 -0.7298
 2241TIP3    H130918   1.036   2.764  17.715  1.0003  0.1184 -1.5431
 2241TIP3    H230919   0.927   2.663  17.685  1.6412 -1.6093  1.5505
 2242TIP3   OH230920   7.322   6.303  17.759 -0.2677  0.0094 -0.3188
 2242TIP3    H130921   7.378   6.277  17.685  0.8139  0.8925  0.1629
 2242TIP3    H230922   7.380   6.353  17.816 -1.7837  1.8209 -0.2742
 2243TIP3   OH230923   7.293   7.444  18.358 -0.0803 -0.1382 -0.4770
 2243TIP3    H130924   7.230   7.409  18.422 -0.2236 -1.1775 -1.1764
 2243TIP3    H230925   7.378   7.424  18.396 -0.1213 -2.7509 -1.6005
 2244TIP3   OH230926   3.190   1.589  17.288  0.4650 -0.0657 -0.4708
 2244TIP3    H130927   3.203   1.494  17.294  1.2051  0.0619  0.2348
 2244TIP3    H230928   3.199   1.608  17.194  0.4600 -0.6749 -0.6035
 2245TIP3   OH230929   5.779   1.913  17.125 -0.0829 -0.4484  0.3278
 2245TIP3    H130930   5.859   1.860  17.118  0.4814  0.4745 -0.3018
 2245TIP3    H230931   5.733   1.898  17.043 -0.0719 -0.2006  0.2772
 2246TIP3   OH230932   6.440   2.616  17.243 -0.3693  0.0574  0.1291
 2246TIP3    H130933   6.517   2.670  17.260  0.4226 -1.2303  0.8873
 2246TIP3    H230934   6.371   2.653  17.298 -0.0881  0.7917 -0.0085
 2247TIP3   OH230935   2.558   3.435  17.592 -0.2024 -0.0401  0.2626
 2247TIP3    H130936   2.587   3.511  17.642  0.4561 -1.1264  1.5791
 2247TIP3    H230937   2.638   3.385  17.575 -0.8947 -1.6303  1.4687
 2248TIP3   OH230938   7.098   6.229  19.448  0.0208  0.3970 -0.4659
 2248TIP3    H130939   7.026   6.177  19.411 -0.5435  0.1237  0.9609
 2248TIP3    H230940   7.055   6.301  19.494  0.7536  1.3895 -1.2894
 2249TIP3   OH230941   3.099   4.377  18.785  0.2642 -0.2104 -0.2096
 2249TIP3    H130942   3.056   4.344  18.864  1.3419 -0.6795  0.2038
 2249TIP3    H230943   3.028   4.390  18.723 -0.5946  0.1079  0.8137
 2250TIP3   OH230944   4.244   3.483  19.158  0.0014 -0.5598 -0.7782
 2250TIP3    H130945   4.158   3.480  19.118 -0.3351 -1.5303 -0.0176
 2250TIP3    H230946   4.261   3.577  19.171 -0.7724 -0.3459 -1.2540
 2251TIP3   OH230947   1.030   5.724  18.923 -0.5362 -0.2437  0.0421
 2251TIP3    H130948   1.061   5.684  19.005 -1.2885  0.0190  0.4692
 2251TIP3    H230949   1.040   5.818  18.937 -0.3987 -0.2117 -0.2805
 2252TIP3   OH230950   6.491   3.768  17.801  0.0575 -0.2522  0.4925
 2252TIP3    H130951   6.453   3.838  17.748 -0.0748 -0.3502  0.4563
 2252TIP3    H230952   6.416   3.716  17.831  0.2107 -1.0297 -0.3993
 2253TIP3   OH230953   7.421   1.818  18.683  0.0562  0.0433 -0.2340
 2253TIP3    H130954   7.396   1.760  18.611 -1.0867 -1.5597  1.3638
 2253TIP3    H230955   7.362   1.893  18.674  1.6970  1.1900 -2.4492
 2254TIP3   OH230956   5.010   4.175  18.641  0.0705  0.3864 -0.1043
 2254TIP3    H130957   5.096   4.216  18.641  0.0454  0.4811 -1.5033
 2254TIP3    H230958   4.979   4.183  18.551 -1.1288 -0.2291  0.2252
 2255TIP3   OH230959   6.738   6.176  18.774  0.2939 -0.3515 -0.2130
 2255TIP3    H130960   6.718   6.083  18.761  0.6816 -0.3223 -1.0387
 2255TIP3    H230961   6.734   6.214  18.686  0.2613  0.3918  0.1038
 2256TIP3   OH230962   4.539   0.452  19.268  0.0427  0.1453 -0.0798
 2256TIP3    H130963   4.568   0.363  19.287  0.0060  0.4619  1.6529
 2256TIP3    H230964   4.619   0.503  19.263  0.0243  0.1511 -0.3511
 2257TIP3   OH230965   7.676   2.314  19.054  0.0550  0.2655 -0.0877
 2257TIP3    H130966   7.735   2.363  19.110 -0.5585  1.0373 -0.1024
 2257TIP3    H230967   7.660   2.371  18.979  0.1447 -0.3799 -0.6102
 2258TIP3   OH230968   6.165   5.254  17.253  0.0382  0.2783 -0.1074
 2258TIP3    H130969   6.129   5.314  17.318  0.3339  0.1849  0.1413
 2258TIP3    H230970   6.125   5.170  17.274 -2.7129  0.9064 -2.2419
 2259TIP3   OH230971   6.827   6.481  18.354 -0.1694  0.5252 -0.0360
 2259TIP3    H130972   6.747   6.436  18.325  0.9431 -2.6274  1.2854
 2259TIP3    H230973   6.804   6.520  18.438 -0.3519 -0.3869  0.3517
 2260TIP3   OH230974   7.669   5.751  17.118  0.3428 -0.3056  0.3180
 2260TIP3    H130975   7.602   5.712  17.175  0.3022 -3.2029 -1.5139
 2260TIP3    H230976   7.748   5.754  17.172 -0.3321 -0.4597  1.3438
 2261TIP3   OH230977   4.308   1.584  17.443  0.5631  0.2678 -0.3090
 2261TIP3    H130978   4.284   1.607  17.354 -1.7003  1.1398  0.4548
 2261TIP3    H230979   4.348   1.663  17.479 -1.6196  1.1010  0.4307
 2262TIP3   OH230980   5.132   3.096  19.558 -0.1269 -0.1034  0.0836
 2262TIP3    H130981   5.095   3.039  19.626  0.7261  1.6917  2.1804
 2262TIP3    H230982   5.062   3.158  19.538 -0.0037  0.0698  0.1838
 2263TIP3   OH230983   5.201   5.475  19.100  0.4903 -0.4107  0.3564
 2263TIP3    H130984   5.203   5.402  19.162 -0.3131 -1.2867 -0.6164
 2263TIP3    H230985   5.229   5.437  19.017 -0.4689  0.2531 -0.2889
 2264TIP3   OH230986   7.259   2.242  18.480  0.3517  0.1344  0.6084
 2264TIP3    H130987   7.250   2.171  18.416 -1.3698  1.1713 -0.3846
 2264TIP3    H230988   7.251   2.198  18.565  1.2639 -1.0869  0.1026
 2265TIP3   OH230989   2.925   3.477  18.315  0.0244 -0.2075 -0.2613
 2265TIP3    H130990   2.836   3.451  18.293  0.1789 -0.8471 -0.1742
 2265TIP3    H230991   2.915   3.534  18.391 -0.3064 -0.3434 -0.2001
 2266TIP3   OH230992   0.616   1.637  18.354  0.0728 -0.4101 -0.3738
 2266TIP3    H130993   0.669   1.610  18.429 -0.1237 -1.1743 -0.4958
 2266TIP3    H230994   0.647   1.724  18.332  1.7411 -1.0866 -0.8539
 2267TIP3   OH230995   6.993   3.827  19.356 -0.1660 -0.2181 -0.0717
 2267TIP3    H130996   7.015   3.806  19.265  0.1593 -2.1113  0.4101
 2267TIP3    H230997   6.919   3.770  19.377 -0.4801  0.4647  0.7556
 2268TIP3   OH230998   2.496   2.993  18.563 -0.2371 -0.2266  0.1205
 2268TIP3    H130999   2.512   3.087  18.553  0.8387 -0.5302 -1.4293
 2268TIP3    H231000   2.411   2.987  18.607 -0.0489  1.4560  0.7947
 2269TIP3   OH231001   6.070   0.626  16.860 -0.8757  0.4414  0.2078
 2269TIP3    H131002   5.998   0.563  16.871 -1.2766  1.1489  2.0678
 2269TIP3    H231003   6.046   0.699  16.918  1.9100  0.1931  1.8188
 2270TIP3   OH231004   2.334   2.685  17.843  0.5049  0.3968 -0.0559
 2270TIP3    H131005   2.274   2.738  17.791 -0.7557 -0.2942  0.6294
 2270TIP3    H231006   2.348   2.736  17.923 -0.4475 -0.1026  0.4603
 2271TIP3   OH231007   4.208   0.042  17.905  0.3569 -0.3638 -0.5237
 2271TIP3    H131008   4.166   0.029  17.990 -1.6384 -1.4589 -1.5907
 2271TIP3    H231009   4.298   0.014  17.917  0.0927 -0.5473  1.2186
 2272TIP3   OH231010   4.173   6.279  19.517 -0.1546 -0.4942 -0.0149
 2272TIP3    H131011   4.263   6.261  19.491 -0.3498 -1.4715 -0.0464
 2272TIP3    H231012   4.153   6.364  19.478  0.0028 -1.3183 -1.9871
 2273TIP3   OH231013   3.331   6.000  19.407 -0.8283 -0.0522 -0.0590
 2273TIP3    H131014   3.273   5.938  19.364 -0.3184  0.3112 -1.2991
 2273TIP3    H231015   3.385   5.946  19.466 -2.7042 -0.3424  1.5114
 2274TIP3   OH231016   0.216   3.938  18.483  0.4509 -0.5720  0.3165
 2274TIP3    H131017   0.279   3.896  18.425 -0.2002 -1.7772  0.4646
 2274TIP3    H231018   0.219   3.887  18.563  0.3782  0.2850  0.8787
 2275TIP3   OH231019   2.822   5.647  18.296  0.2002  0.0949 -0.2275
 2275TIP3    H131020   2.887   5.622  18.230  0.2107  0.6867 -0.4428
 2275TIP3    H231021   2.854   5.729  18.333 -0.2502  0.2187 -0.0966
 2276TIP3   OH231022   5.657   3.846  18.603  0.2025 -0.4626 -0.5622
 2276TIP3    H131023   5.565   3.867  18.620  0.6052  1.3453 -0.4468
 2276TIP3    H231024   5.688   3.806  18.684  0.0033  0.6894  0.1006
 2277TIP3   OH231025   6.324   6.967  19.200  0.6594  0.1761  0.0988
 2277TIP3    H131026   6.268   6.898  19.163 -0.4042  0.1379  1.6503
 2277TIP3    H231027   6.396   6.919  19.241  0.0125 -0.0360  1.0249
 2278TIP3   OH231028   0.307   4.000  19.540 -0.4925 -0.5294 -0.0828
 2278TIP3    H131029   0.231   4.021  19.487 -1.8626 -0.4040  1.8444
 2278TIP3    H231030   0.310   3.904  19.540 -1.2212 -0.5619  0.5703
 2279TIP3   OH231031   5.826   0.312  18.156  0.5166 -0.9155  0.1006
 2279TIP3    H131032   5.828   0.247  18.227  0.2644  0.1973  1.1540
 2279TIP3    H231033   5.770   0.273  18.090  1.0488 -2.1406  0.3440
 2280TIP3   OH231034   0.875   3.239  17.598  0.3318  0.2939 -0.2817
 2280TIP3    H131035   0.854   3.277  17.683  0.1315  0.3033 -0.3355
 2280TIP3    H231036   0.824   3.289  17.535  0.0656 -0.0600 -0.3526
 2281TIP3   OH231037   3.461   5.399  19.302  0.3269 -0.2858 -0.2947
 2281TIP3    H131038   3.507   5.315  19.311  0.4018 -0.3401 -1.1516
 2281TIP3    H231039   3.524   5.464  19.333  1.2361 -0.2946 -2.0180
 2282TIP3   OH231040   4.530   4.037  17.536 -0.1570  0.8505  0.5713
 2282TIP3    H131041   4.601   4.078  17.585 -0.6620 -0.3244  2.3680
 2282TIP3    H231042   4.566   4.025  17.448  1.0863  2.2366  0.8535
 2283TIP3   OH231043   2.791   6.902  19.138  0.2736 -0.6818  0.4635
 2283TIP3    H131044   2.780   6.995  19.120 -1.0047 -1.0472 -0.7395
 2283TIP3    H231045   2.854   6.872  19.073  1.3718 -0.5212  1.4034
 2284TIP3   OH231046   1.828   0.594  17.336  0.0960  0.3190  0.1038
 2284TIP3    H131047   1.774   0.662  17.296 -0.6871 -0.1968  0.2594
 2284TIP3    H231048   1.902   0.585  17.277  0.1766  1.2550  0.0428
 2285TIP3   OH231049   3.945   4.395  17.395  0.0466  0.0847 -0.4722
 2285TIP3    H131050   3.911   4.483  17.375 -0.9525  0.2595  1.7302
 2285TIP3    H231051   4.014   4.411  17.459  0.5568 -0.6860 -0.8224
 2286TIP3   OH231052   2.057   3.389  17.332  0.1560  0.3358 -0.4445
 2286TIP3    H131053   2.070   3.378  17.426 -3.3686  1.5718  0.3172
 2286TIP3    H231054   2.136   3.433  17.302  0.7085  1.3388  2.2341
 2287TIP3   OH231055   2.454   1.935  19.141  0.2911 -0.5061  0.3498
 2287TIP3    H131056   2.438   2.011  19.196 -1.0078 -0.1098 -0.5058
 2287TIP3    H231057   2.378   1.879  19.156 -0.2717 -0.2352 -1.2372
 2288TIP3   OH231058   7.675   1.552  17.365  0.0868 -0.1232  0.3058
 2288TIP3    H131059   7.660   1.526  17.274 -0.0757  0.7077  0.0918
 2288TIP3    H231060   7.604   1.612  17.385  0.3337 -0.0118  0.8653
 2289TIP3   OH231061   3.732   4.229  16.657  0.2957  0.2019 -0.3777
 2289TIP3    H131062   3.732   4.301  16.594  1.8763  0.8972  0.3675
 2289TIP3    H231063   3.656   4.176  16.633 -1.4019  2.5174 -0.4656
 2290TIP3   OH231064   1.676   1.885  18.298 -0.4003 -0.3118  0.2363
 2290TIP3    H131065   1.637   1.812  18.345 -0.7015 -0.3679 -0.1026
 2290TIP3    H231066   1.653   1.962  18.350  0.2885 -0.4969  0.8352
 2291TIP3   OH231067   5.139   4.507  19.364  0.1922 -0.2026 -0.2482
 2291TIP3    H131068   5.154   4.508  19.459 -0.2238  0.7405 -0.1822
 2291TIP3    H231069   5.118   4.598  19.342 -1.9624 -0.8164 -0.9005
 2292TIP3   OH231070   3.959   1.019  18.256 -0.1223  0.3437  0.2509
 2292TIP3    H131071   3.896   1.090  18.240 -0.4505 -0.3181 -1.6191
 2292TIP3    H231072   3.928   0.978  18.337 -0.5016  1.7076  0.8267
 2293TIP3   OH231073   2.506   5.037  18.011 -0.2473 -0.3405  0.3628
 2293TIP3    H131074   2.596   5.040  18.042 -0.0812  1.2027 -0.2057
 2293TIP3    H231075   2.509   4.977  17.936  0.6695  0.9685 -0.6963
 2294TIP3   OH231076   6.823   0.156  17.461 -0.1811  0.4207 -0.1729
 2294TIP3    H131077   6.772   0.134  17.383 -1.7570  0.3535  0.8324
 2294TIP3    H231078   6.845   0.249  17.450 -1.6378  0.8010 -0.0434
 2295TIP3   OH231079   3.273   0.055  18.471  0.0842  0.6880 -0.6802
 2295TIP3    H131080   3.351   0.001  18.468  0.2876  0.9073  0.3268
 2295TIP3    H231081   3.252   0.063  18.564 -2.3510 -1.0977 -0.9658
 2296TIP3   OH231082   1.301   5.906  19.123 -0.4180  0.6637  0.1633
 2296TIP3    H131083   1.255   5.855  19.191 -0.0200  1.0119  0.7034
 2296TIP3    H231084   1.343   5.977  19.171 -0.9171  1.4861 -0.5720
 2297TIP3   OH231085   4.615   7.441  19.259  0.2097  0.4175  0.0345
 2297TIP3    H131086   4.556   7.415  19.187  0.6397 -1.8059  0.3911
 2297TIP3    H231087   4.557   7.448  19.335  0.1954 -0.4797  0.1182
 2298TIP3   OH231088   6.787   3.471  18.380 -0.4089 -0.1709 -0.0247
 2298TIP3    H131089   6.820   3.384  18.400 -0.8670 -0.3076  0.1582
 2298TIP3    H231090   6.797   3.479  18.285 -0.0709 -0.2968 -0.0009
 2299TIP3   OH231091   4.672   0.017  18.195 -0.2182  0.0483 -0.2557
 2299TIP3    H131092   4.734   0.088  18.181 -0.0530 -0.0439  0.0068
 2299TIP3    H231093   4.707  -0.057  18.144 -0.2477  0.0710 -0.3107
 2300TIP3   OH231094   3.838   0.857  18.071 -0.4896 -0.2350  0.0405
 2300TIP3    H131095   3.812   0.902  17.990  1.1900 -0.9759 -0.9710
 2300TIP3    H231096   3.862   0.927  18.131  0.6238  0.3109 -0.9904
 2301TIP3   OH231097   0.864   7.045  17.476  0.2718  0.0754 -0.0761
 2301TIP3    H131098   0.959   7.037  17.479  0.2858  0.3959  1.1224
 2301TIP3    H231099   0.848   7.136  17.454  0.2755  0.3938  1.1602
 2302TIP3   OH231100   7.513   2.509  18.163 -0.0059 -0.1442 -0.5821
 2302TIP3    H131101   7.590   2.528  18.110 -0.9761 -1.2512 -2.4929
 2302TIP3    H231102   7.463   2.445  18.112 -0.7088 -1.7938  1.9699
 2303TIP3   OH231103   7.237   0.918  18.838 -0.3178  0.0720  0.4822
 2303TIP3    H131104   7.277   0.955  18.916  1.5765  0.0547 -0.4232
 2303TIP3    H231105   7.144   0.943  18.844  0.2727  2.2417  1.4484
 2304TIP3   OH231106   0.479   4.551  16.819  0.3348  0.5240  0.4094
 2304TIP3    H131107   0.454   4.644  16.817 -1.7551  0.0101  0.0975
 2304TIP3    H231108   0.513   4.534  16.731 -0.6759  0.6801 -0.0349
 2305TIP3   OH231109   2.332   6.384  17.215 -0.2022 -0.7436  0.0807
 2305TIP3    H131110   2.239   6.407  17.216  0.1882  0.9522 -0.1479
 2305TIP3    H231111   2.373   6.454  17.165  0.9285 -2.6526 -1.8177
 2306TIP3   OH231112   0.247   3.501  18.359 -0.6889  0.1276  0.0106
 2306TIP3    H131113   0.294   3.583  18.345  0.2669 -0.6351 -1.4963
 2306TIP3    H231114   0.202   3.485  18.276 -1.0006 -0.7884  0.3435
 2307TIP3   OH231115   0.091   5.339  18.268 -0.2670 -0.0485  0.2143
 2307TIP3    H131116   0.169   5.340  18.323 -0.4748  1.0577  0.5132
 2307TIP3    H231117   0.102   5.263  18.211  1.6006  0.7844 -0.5933
 2308TIP3   OH231118   0.002   0.183  16.705  0.2885 -0.8555  0.0917
 2308TIP3    H131119   0.023   0.277  16.703 -1.3536 -0.4566  0.4644
 2308TIP3    H231120  -0.046   0.167  16.624 -0.0700 -1.2201  0.3732
 2309TIP3   OH231121   2.758   4.296  16.928  0.1260  0.0973  0.5683
 2309TIP3    H131122   2.746   4.208  16.894 -1.0187 -0.4114  2.1204
 2309TIP3    H231123   2.679   4.344  16.900  1.3916  1.0918 -1.4749
 2310TIP3   OH231124   5.106   0.187  17.332 -0.4472  0.0142  0.6348
 2310TIP3    H131125   5.057   0.231  17.401 -1.1344 -0.6728  0.6080
 2310TIP3    H231126   5.104   0.248  17.258 -3.4507 -0.9308 -0.2249
 2311TIP3   OH231127   1.679   3.784  19.093  0.0812  0.3701 -0.1749
 2311TIP3    H131128   1.601   3.743  19.130 -0.1782 -1.2736 -2.3397
 2311TIP3    H231129   1.652   3.872  19.069 -0.2255  0.8471  1.7761
 2312TIP3   OH231130   2.213   3.581  17.824  0.9204  0.2338 -0.1536
 2312TIP3    H131131   2.261   3.540  17.896  1.4231 -2.2255 -1.7631
 2312TIP3    H231132   2.121   3.566  17.844  0.9147  1.6653  1.0826
 2313TIP3   OH231133   3.138   1.170  17.588  0.2599 -0.2389  0.0918
 2313TIP3    H131134   3.069   1.145  17.649  0.4050 -1.6520 -0.2933
 2313TIP3    H231135   3.207   1.105  17.601  1.0531  0.4988 -0.3177
 2314TIP3   OH231136   0.582   1.379  17.089 -0.2460 -0.0439  0.0322
 2314TIP3    H131137   0.488   1.364  17.099 -0.4080  0.3270 -0.8068
 2314TIP3    H231138   0.589   1.468  17.054  0.4036 -0.1223 -0.0604
 2315TIP3   OH231139   6.905   7.607  17.855 -0.0736  0.2906 -0.5154
 2315TIP3    H131140   7.000   7.622  17.848 -0.1200  0.9934  0.1962
 2315TIP3    H231141   6.894   7.514  17.839  0.6764  0.3045 -1.1893
 2316TIP3   OH231142   2.028   7.552  18.903  0.7519  0.2209 -0.2735
 2316TIP3    H131143   2.062   7.572  18.815 -1.2610  1.3147 -0.8687
 2316TIP3    H231144   2.035   7.635  18.951 -0.9549  0.4876 -0.4194
 2317TIP3   OH231145   0.896   0.640  18.943  0.3670  0.3917  0.0649
 2317TIP3    H131146   0.888   0.701  18.870 -1.7992  0.2228  0.1181
 2317TIP3    H231147   0.871   0.555  18.907  0.9136 -0.0050  0.6024
 2318TIP3   OH231148   2.037   3.772  18.858  0.5699 -0.0215  0.0735
 2318TIP3    H131149   1.944   3.751  18.847  0.7117 -1.0407  0.7076
 2318TIP3    H231150   2.055   3.755  18.950  2.0492 -2.6611 -0.6012
 2319TIP3   OH231151   6.337   3.831  18.871 -0.4337  0.0263  0.0708
 2319TIP3    H131152   6.295   3.895  18.928 -0.5876 -0.8577  0.9772
 2319TIP3    H231153   6.266   3.799  18.815 -0.8523 -0.9184  1.0934
 2320TIP3   OH231154   3.400   3.673  19.257  0.3826 -0.5210  0.2957
 2320TIP3    H131155   3.490   3.680  19.226  0.0356  0.6010 -0.5358
 2320TIP3    H231156   3.362   3.603  19.204 -0.3209  1.6379 -2.3008
 2321TIP3   OH231157   3.322   0.843  19.092  0.3281 -0.0757 -0.5434
 2321TIP3    H131158   3.262   0.787  19.140 -0.3014  0.6761 -0.4371
 2321TIP3    H231159   3.275   0.864  19.011  0.1166  1.1388 -0.1175
 2322TIP3   OH231160   3.498   6.432  17.805 -0.4428 -0.5305 -0.5505
 2322TIP3    H131161   3.547   6.365  17.852  1.6554  0.9730 -0.4505
 2322TIP3    H231162   3.564   6.475  17.750 -1.3078  2.4438  0.5398
 2323TIP3   OH231163   2.325   0.003  18.442  0.3294  0.0952 -0.1180
 2323TIP3    H131164   2.288   0.035  18.359  0.8914 -0.6015 -0.6543
 2323TIP3    H231165   2.382   0.073  18.472  0.3281  0.2432 -0.4571
 2324TIP3   OH231166   4.932   2.057  18.724 -0.8238  0.2629 -0.1098
 2324TIP3    H131167   4.942   2.110  18.646 -0.7018  0.7991  0.2629
 2324TIP3    H231168   4.911   1.969  18.692  3.8232 -0.7847 -1.0068
 2325TIP3   OH231169   4.903   1.384  18.670 -0.0361  0.4661  0.4707
 2325TIP3    H131170   4.857   1.315  18.717  0.8364 -0.7194 -0.3599
 2325TIP3    H231171   4.838   1.418  18.609  0.0777 -1.0783 -0.5685
 2326TIP3   OH231172   0.225   2.812  16.589  0.2268 -0.0384 -0.2017
 2326TIP3    H131173   0.153   2.874  16.591 -2.7719 -3.1006 -1.8263
 2326TIP3    H231174   0.197   2.741  16.646  1.9945 -1.3276 -0.8310
 2327TIP3   OH231175   2.825   6.882  17.601  0.3970  0.5511  0.2948
 2327TIP3    H131176   2.865   6.848  17.681 -1.2872  1.4449  1.5695
 2327TIP3    H231177   2.809   6.975  17.619  0.4005  0.8870 -1.2663
 2328TIP3   OH231178   2.721   0.384  18.798  0.2487 -0.1315  0.0812
 2328TIP3    H131179   2.630   0.355  18.795  0.0069  0.6282 -0.8761
 2328TIP3    H231180   2.747   0.391  18.706  0.8557  0.8796  0.3038
 2329TIP3   OH231181   5.620   4.205  16.807  0.3794  0.3255 -0.1647
 2329TIP3    H131182   5.634   4.272  16.873  1.7102  1.0072 -1.0733
 2329TIP3    H231183   5.688   4.223  16.741 -1.0721 -0.1305 -1.8546
 2330TIP3   OH231184   2.256   0.130  18.229  0.4477  0.1556 -0.6799
 2330TIP3    H131185   2.347   0.112  18.206  0.6999  0.2167  0.2253
 2330TIP3    H231186   2.236   0.212  18.183  0.2185 -0.8448 -2.4385
 2331TIP3   OH231187   3.724   7.238  18.825  0.1868  0.5511 -0.1827
 2331TIP3    H131188   3.766   7.236  18.739 -2.0329 -1.4300 -1.3700
 2331TIP3    H231189   3.793   7.214  18.887  1.4191  0.0616 -1.6742
 2332TIP3   OH231190   1.393   3.767  16.705 -0.5304  0.0257 -0.1075
 2332TIP3    H131191   1.438   3.815  16.636  2.1409 -0.9355  0.8264
 2332TIP3    H231192   1.313   3.735  16.663  0.6954 -0.0492 -2.6154
 2333TIP3   OH231193   0.924   3.667  18.811 -0.7125  0.1988  0.1208
 2333TIP3    H131194   1.009   3.637  18.844 -0.2550  1.4921  0.1871
 2333TIP3    H231195   0.877   3.696  18.890 -0.8327  0.3978 -0.0244
 2334TIP3   OH231196   0.114   0.296  18.836 -0.2463 -0.3377 -0.3958
 2334TIP3    H131197   0.055   0.372  18.831  0.3499  0.2411  0.8276
 2334TIP3    H231198   0.166   0.312  18.915  1.7801 -0.6626 -1.5767
 2335TIP3   OH231199   1.414   2.338  18.330 -0.2645 -0.4616  0.0553
 2335TIP3    H131200   1.389   2.417  18.281  1.3141 -0.1467 -0.2954
 2335TIP3    H231201   1.484   2.299  18.278 -0.6761 -1.8330  0.4899
 2336TIP3   OH231202   1.352   1.365  18.852  0.4021 -0.3804  0.5121
 2336TIP3    H131203   1.408   1.435  18.820 -0.6674  1.4947  2.4964
 2336TIP3    H231204   1.264   1.403  18.853 -0.6730 -2.6220 -0.7460
 2337TIP3   OH231205   1.539   4.617  19.597  0.0760  0.3023  0.0254
 2337TIP3    H131206   1.565   4.709  19.604 -0.4833  0.4300  0.5079
 2337TIP3    H231207   1.520   4.591  19.687 -0.7956  0.0186 -0.2330
 2338TIP3   OH231208   5.218   5.638  18.413 -0.5165  0.1446  0.3346
 2338TIP3    H131209   5.223   5.718  18.362 -0.4241 -0.6594 -0.9666
 2338TIP3    H231210   5.125   5.620  18.422 -0.6044 -1.3634 -2.3558
 2339TIP3   OH231211   6.504   6.880  18.778 -0.1918 -0.0880 -0.4656
 2339TIP3    H131212   6.571   6.948  18.771 -0.3297  0.2848  1.3893
 2339TIP3    H231213   6.424   6.923  18.748  0.1397 -0.1599 -1.4999
 2340TIP3   OH231214   2.947   1.615  17.661 -0.2081  0.3171  0.5055
 2340TIP3    H131215   2.978   1.623  17.751  1.3236  1.6034 -0.0943
 2340TIP3    H231216   3.021   1.645  17.608 -1.0496 -0.4936 -1.1915
 2341TIP3   OH231217   1.210   7.461  19.150 -0.3286  0.0545 -0.0178
 2341TIP3    H131218   1.270   7.448  19.077 -1.9364 -0.9195 -1.2159
 2341TIP3    H231219   1.199   7.556  19.154  1.9454  0.3636  0.8500
 2342TIP3   OH231220   3.171   5.859  17.502  0.2390  0.2379 -0.1540
 2342TIP3    H131221   3.106   5.904  17.448  0.4898  0.0121 -0.6436
 2342TIP3    H231222   3.137   5.867  17.591  0.3054  1.4594 -0.2171
 2343TIP3   OH231223   3.796   3.728  17.298 -0.1992 -0.7097 -0.5867
 2343TIP3    H131224   3.713   3.726  17.251 -0.5817 -1.7075  0.0746
 2343TIP3    H231225   3.863   3.735  17.229 -0.7454 -1.9741 -1.2959
 2344TIP3   OH231226   0.341   3.804  17.808  0.1285 -0.5094  0.2576
 2344TIP3    H131227   0.303   3.842  17.887 -0.9128 -0.1769 -0.3747
 2344TIP3    H231228   0.265   3.785  17.752  0.8384 -0.7491 -0.6501
 2345TIP3   OH231229   4.755   6.357  18.818 -0.3397  0.3283 -0.5136
 2345TIP3    H131230   4.844   6.354  18.784 -0.7307  0.0786 -1.5329
 2345TIP3    H231231   4.716   6.435  18.778 -1.6849 -1.4472 -2.9782
 2346TIP3   OH231232   1.751   6.130  17.322  0.3347  0.4128 -0.0097
 2346TIP3    H131233   1.715   6.195  17.262  1.0492 -0.8057 -1.8717
 2346TIP3    H231234   1.844   6.126  17.300  0.2951 -1.2812 -0.0692
 2347TIP3   OH231235   4.406   5.228  18.723 -0.4659 -0.1677 -0.0095
 2347TIP3    H131236   4.379   5.316  18.750 -0.8263 -0.5580  0.9633
 2347TIP3    H231237   4.325   5.177  18.723  0.0498 -1.0661  1.7795
 2348TIP3   OH231238   1.114   4.961  17.280  0.1199  0.1092 -0.3189
 2348TIP3    H131239   1.129   4.866  17.289 -1.9600 -0.2438  0.0886
 2348TIP3    H231240   1.025   4.974  17.314 -0.3180  1.9512 -1.9767
 2349TIP3   OH231241   0.833   0.062  16.914  0.1586 -0.1442 -0.2810
 2349TIP3    H131242   0.838  -0.033  16.927  1.3368  0.2279  2.7960
 2349TIP3    H231243   0.740   0.083  16.925 -0.2097 -0.9357 -1.5793
 2350TIP3   OH231244   1.417   4.523  19.382  0.3099  0.2271  0.1603
 2350TIP3    H131245   1.463   4.568  19.454  0.7670 -0.6551  0.4377
 2350TIP3    H231246   1.326   4.550  19.392  0.5068  0.7819  0.5583
 2351TIP3   OH231247   7.658   1.001  17.874  0.2157  0.6572  0.2129
 2351TIP3    H131248   7.717   1.038  17.940 -0.6539  0.1031  1.3352
 2351TIP3    H231249   7.696   0.917  17.852  0.7717  1.0517 -0.3782
 2352TIP3   OH231250   0.798   7.154  17.138 -0.3253  0.1146  0.6320
 2352TIP3    H131251   0.829   7.179  17.051  1.0830  0.1772  1.1197
 2352TIP3    H231252   0.853   7.204  17.198 -2.8551  1.9515  1.5898
 2353TIP3   OH231253   2.549   1.205  17.879  0.0496 -0.2226 -0.6888
 2353TIP3    H131254   2.564   1.293  17.844  2.1505 -0.1161  0.3210
 2353TIP3    H231255   2.545   1.217  17.974  1.0614 -1.2778 -0.4898
 2354TIP3   OH231256   6.672   0.222  18.292  0.2923  0.0048 -0.0515
 2354TIP3    H131257   6.645   0.152  18.233 -0.0705  1.1878 -1.3490
 2354TIP3    H231258   6.739   0.183  18.348 -0.7882 -1.7107  0.1100
 2355TIP3   OH231259   1.633   6.680  18.087  0.1370  0.4173 -0.1118
 2355TIP3    H131260   1.633   6.586  18.103  1.4424  0.4703  0.3078
 2355TIP3    H231261   1.546   6.709  18.113 -0.5300 -0.7653 -0.9221
 2356TIP3   OH231262   3.496   0.397  17.074 -0.3422 -0.3367  0.2479
 2356TIP3    H131263   3.552   0.321  17.091 -0.4590 -0.6428 -0.6724
 2356TIP3    H231264   3.544   0.447  17.008 -0.6931 -0.0830  0.1832
 2357TIP3   OH231265   3.045   3.300  17.587  0.0178 -0.2927  0.0893
 2357TIP3    H131266   3.037   3.268  17.496 -0.3940  1.3647 -0.4883
 2357TIP3    H231267   3.139   3.317  17.598 -0.1204  1.1380 -0.6526
 2358TIP3   OH231268   6.421   7.521  17.986 -0.2218  0.2388  0.1246
 2358TIP3    H131269   6.468   7.452  18.033 -0.8789  0.1077  0.6139
 2358TIP3    H231270   6.379   7.476  17.912  0.7629  0.4345 -0.5595
 2359TIP3   OH231271   2.276   3.751  18.456 -0.7758  0.5832 -0.1968
 2359TIP3    H131272   2.284   3.667  18.411  1.3628 -0.1187  1.3118
 2359TIP3    H231273   2.217   3.733  18.529 -0.4523  0.4148  0.0279
 2360TIP3   OH231274   7.442   0.960  19.371 -0.0225  0.3551  0.1508
 2360TIP3    H131275   7.441   0.865  19.359 -3.6869  0.1070  1.1262
 2360TIP3    H231276   7.465   0.972  19.464  1.3343  0.5230 -0.1914
 2361TIP3   OH231277   5.317   4.105  17.593 -0.2492  0.3551 -0.1629
 2361TIP3    H131278   5.274   4.190  17.597 -0.1792  0.3560  1.3509
 2361TIP3    H231279   5.387   4.116  17.529 -0.3444  1.3933 -0.1030
 2362TIP3   OH231280   0.250   1.954  17.414  0.0345  0.1669  0.4870
 2362TIP3    H131281   0.291   1.925  17.495 -1.0880  0.2744  1.1228
 2362TIP3    H231282   0.172   2.002  17.442 -0.8322 -0.5041 -0.6625
 2363TIP3   OH231283   6.324   6.306  18.952 -0.1497 -0.3900 -0.2932
 2363TIP3    H131284   6.287   6.321  19.038  1.0680  1.8479 -0.0914
 2363TIP3    H231285   6.419   6.308  18.966  0.0672 -0.4887 -1.6160
 2364TIP3   OH231286   2.382   3.837  19.327  0.1363  0.4386 -1.0640
 2364TIP3    H131287   2.452   3.794  19.377 -1.6711 -1.5589 -0.0837
 2364TIP3    H231288   2.379   3.789  19.244 -1.6604 -1.2737 -0.1010
 2365TIP3   OH231289   3.803   4.088  18.206  0.4953 -0.4199 -0.9626
 2365TIP3    H131290   3.845   4.132  18.132 -0.2372 -0.8436 -1.6526
 2365TIP3    H231291   3.714   4.069  18.175 -0.1722  0.3295  0.4154
 2366TIP3   OH231292   0.886   4.361  17.132 -0.2083  0.7034  0.1130
 2366TIP3    H131293   0.806   4.409  17.109 -0.7615  0.0382  0.6073
 2366TIP3    H231294   0.857   4.294  17.194  0.2586 -1.3066 -1.7323
 2367TIP3   OH231295   4.852   3.025  17.339 -0.2845 -0.3162  0.4664
 2367TIP3    H131296   4.760   3.037  17.361 -0.3929  2.6403 -0.9969
 2367TIP3    H231297   4.878   3.109  17.299  2.6024 -1.5934 -0.6454
 2368TIP3   OH231298   0.087   0.696  18.409  0.6209 -0.0307 -0.2824
 2368TIP3    H131299   0.119   0.611  18.380 -0.2569 -0.9089  1.2008
 2368TIP3    H231300   0.133   0.713  18.491 -0.9406 -0.2382  0.6855
 2369TIP3   OH231301   0.273   6.544  19.375 -0.5806 -0.0023 -0.0936
 2369TIP3    H131302   0.345   6.526  19.314 -0.1258 -0.2631  0.5086
 2369TIP3    H231303   0.210   6.474  19.360 -0.1170 -0.4989  0.2736
 2370TIP3   OH231304   6.890   5.902  17.553  0.3659 -0.5303  0.2539
 2370TIP3    H131305   6.975   5.861  17.540 -0.1364 -1.0164 -2.1377
 2370TIP3    H231306   6.828   5.840  17.516 -1.1885 -0.6432  2.8605
 2371TIP3   OH231307   0.247   4.385  18.000  0.2494  0.0406 -0.3369
 2371TIP3    H131308   0.179   4.415  18.060  1.7437  1.6529  0.6501
 2371TIP3    H231309   0.206   4.314  17.951 -1.7487  0.1664  1.0238
 2372TIP3   OH231310   0.569   6.647  18.902 -0.0324  0.4797  0.1191
 2372TIP3    H131311   0.642   6.707  18.885 -0.4902  1.0977  0.3317
 2372TIP3    H231312   0.491   6.702  18.901 -0.7219 -0.4521 -1.9493
 2373TIP3   OH231313   0.190   2.491  18.141 -0.3113  0.0454  0.1423
 2373TIP3    H131314   0.211   2.559  18.205 -0.8508  0.5457 -0.2058
 2373TIP3    H231315   0.129   2.433  18.187  0.6130 -0.5536  0.6410
 2374TIP3   OH231316   5.919   3.981  19.269  0.0211  0.3830  0.0280
 2374TIP3    H131317   5.923   3.886  19.254 -0.7245  0.5307 -1.2875
 2374TIP3    H231318   5.830   4.005  19.243 -0.1900  1.2756  1.4905
 2375TIP3   OH231319   5.557   0.325  19.323  0.3204  0.4316  0.0227
 2375TIP3    H131320   5.619   0.388  19.359 -0.6869  0.8603  1.0794
 2375TIP3    H231321   5.593   0.239  19.347  0.5989  0.6730  0.4845
 2376TIP3   OH231322   0.834   0.880  17.416  0.0834  0.1488  0.5219
 2376TIP3    H131323   0.887   0.815  17.371 -0.9789 -0.0838 -0.4469
 2376TIP3    H231324   0.897   0.944  17.450  0.9253  0.5059 -1.5964
 2377TIP3   OH231325   5.241   4.633  19.048 -0.0746  0.1221 -0.4562
 2377TIP3    H131326   5.156   4.590  19.055  0.9727 -1.7483  2.5905
 2377TIP3    H231327   5.239   4.701  19.116  0.6189  0.5346 -0.8378
 2378TIP3   OH231328   4.612   2.156  17.275 -0.0082 -0.1880 -0.7239
 2378TIP3    H131329   4.627   2.063  17.294  4.0996  0.6389  1.1987
 2378TIP3    H231330   4.587   2.195  17.359  0.4717  0.7549 -0.9996
 2379TIP3   OH231331   7.063   0.225  18.947 -0.0221 -0.0352 -0.4848
 2379TIP3    H131332   7.159   0.232  18.943 -0.0896  1.6822  0.1042
 2379TIP3    H231333   7.045   0.199  19.038 -0.1475  0.3429 -0.4015
 2380TIP3   OH231334   6.965   2.883  17.299 -0.1203  0.3910  0.2488
 2380TIP3    H131335   7.051   2.863  17.335 -0.0447  0.3329  0.0436
 2380TIP3    H231336   6.951   2.814  17.233  0.5093  1.4802 -1.0721
 2381TIP3   OH231337   1.651   2.794  17.067  0.0459  0.5482  0.1656
 2381TIP3    H131338   1.700   2.786  17.148  0.8781  1.8761 -0.1668
 2381TIP3    H231339   1.563   2.820  17.094  0.3058  0.9417  0.6491
 2382TIP3   OH231340   0.842   0.726  18.229 -0.0303 -0.5695  0.6994
 2382TIP3    H131341   0.752   0.734  18.262  0.3884 -0.5759  1.8643
 2382TIP3    H231342   0.846   0.786  18.155 -0.7240  0.1499  1.2297
 2383TIP3   OH231343   6.619   7.167  18.405  0.1536  0.4066  0.5073
 2383TIP3    H131344   6.704   7.210  18.416  0.6188  0.0238 -1.2557
 2383TIP3    H231345   6.638   7.088  18.355 -1.2440  0.3175  0.0719
 2384TIP3   OH231346   1.509   4.062  16.953 -0.4171  0.2082  0.3292
 2384TIP3    H131347   1.599   4.052  16.923 -0.6828 -0.4703 -0.2848
 2384TIP3    H231348   1.463   4.098  16.877 -1.0663 -1.3771 -0.0692
 2385TIP3   OH231349   6.382   7.203  17.241 -0.2177 -0.4991  0.5522
 2385TIP3    H131350   6.466   7.159  17.252  0.3488  0.1219 -1.0043
 2385TIP3    H231351   6.405   7.294  17.221 -1.1566 -0.6668 -1.5585
 2386TIP3   OH231352   3.858   7.026  17.758  0.0340  0.1082 -0.0688
 2386TIP3    H131353   3.847   6.957  17.692  0.5849  0.0750 -0.1247
 2386TIP3    H231354   3.952   7.033  17.771 -0.0894 -0.6808  1.5564
 2387TIP3   OH231355   1.034   2.801  19.435 -0.5929  0.0823 -0.1289
 2387TIP3    H131356   0.997   2.757  19.512  1.9304 -0.3128  0.9481
 2387TIP3    H231357   1.020   2.894  19.452 -0.8401 -0.0434  0.3913
 2388TIP3   OH231358   0.425   6.079  18.428 -0.0963  0.0763 -0.2970
 2388TIP3    H131359   0.416   6.130  18.508  1.8244 -1.4469  0.9993
 2388TIP3    H231360   0.496   6.121  18.381 -1.4489  1.1738 -1.4354
 2389TIP3   OH231361   7.560   2.724  18.958  0.1685 -0.5507  0.2645
 2389TIP3    H131362   7.576   2.813  18.925 -0.4752 -0.9171 -1.1265
 2389TIP3    H231363   7.640   2.701  19.005  0.4572  0.6546  0.3927
 2390TIP3   OH231364   0.553   0.002  16.969 -0.9104 -0.1693 -0.1075
 2390TIP3    H131365   0.459   0.017  16.960 -1.0445 -0.9617 -0.1309
 2390TIP3    H231366   0.585   0.076  17.020 -1.6215 -0.1174  0.2705
 2391TIP3   OH231367   1.377   3.825  17.233  0.3548 -0.2473 -0.4785
 2391TIP3    H131368   1.350   3.825  17.142 -1.4818 -0.4429  0.0156
 2391TIP3    H231369   1.452   3.766  17.236  3.0024  2.7059 -2.4604
 2392TIP3   OH231370   0.092   3.813  17.680 -0.1021 -0.5588 -0.1010
 2392TIP3    H131371   0.032   3.769  17.740  0.3177 -1.9947 -0.6977
 2392TIP3    H231372   0.035   3.858  17.618 -0.5540  1.3375  1.5764
 2393TIP3   OH231373   1.240   1.743  17.921  0.2340  0.3536 -0.3214
 2393TIP3    H131374   1.226   1.652  17.944  0.2726  0.6153  0.7795
 2393TIP3    H231375   1.322   1.767  17.964  1.0817  0.4625 -1.9360
 2394TIP3   OH231376   6.395   3.228  17.525  1.0297 -0.3090 -0.2607
 2394TIP3    H131377   6.335   3.215  17.598  1.6651 -0.9331  0.1634
 2394TIP3    H231378   6.478   3.189  17.554  1.2107 -0.8492 -1.4256
 2395TIP3   OH231379   4.636   6.270  19.364 -0.1664  0.0803  0.2298
 2395TIP3    H131380   4.680   6.341  19.317 -0.3573  0.4244  0.5649
 2395TIP3    H231381   4.707   6.224  19.409 -0.0123 -0.0960 -0.1834
 2396TIP3   OH231382   0.114   6.305  19.278  0.4433  0.5198  0.4044
 2396TIP3    H131383   0.035   6.272  19.320 -0.1138  0.0809 -0.9373
 2396TIP3    H231384   0.179   6.236  19.291 -0.1452 -0.2649 -0.6730
 2397TIP3   OH231385   3.345   0.986  17.570 -0.3460  0.6942  0.6564
 2397TIP3    H131386   3.355   0.891  17.578 -1.4816  0.4328 -0.6187
 2397TIP3    H231387   3.425   1.016  17.528  1.0708  0.6830  3.1004
 2398TIP3   OH231388   6.980   6.316  18.056 -0.9338  0.0675  0.2449
 2398TIP3    H131389   6.970   6.222  18.039 -0.5529  0.1950 -0.7184
 2398TIP3    H231390   7.075   6.327  18.067 -0.7751  0.6282 -1.4689
 2399TIP3   OH231391   0.692   5.273  19.246 -0.3849  0.0970  0.3899
 2399TIP3    H131392   0.705   5.331  19.171 -0.7427 -0.7859 -0.3843
 2399TIP3    H231393   0.599   5.249  19.242 -0.6229  0.7362  1.6501
 2400TIP3   OH231394   5.706   1.863  16.448  0.4875  0.0463 -0.1123
 2400TIP3    H131395   5.756   1.835  16.525 -0.8294 -1.1212  0.3528
 2400TIP3    H231396   5.625   1.813  16.452  0.0866  0.4767 -1.8972
 2401TIP3   OH231397   4.995   2.289  16.775 -0.1009  0.2813 -0.0897
 2401TIP3    H131398   5.061   2.260  16.712  0.4791 -1.1941  1.1118
 2401TIP3    H231399   4.964   2.207  16.815 -1.2221  1.0990  0.7576
 2402TIP3   OH231400   0.075   4.421  19.726  0.8256  0.2985  0.2903
 2402TIP3    H131401   0.040   4.463  19.648  2.2118  1.3234  0.1750
 2402TIP3    H231402   0.076   4.328  19.706 -2.4213  0.0836  0.5809
 2403TIP3   OH231403   7.176   0.419  17.542 -0.0218  0.3075 -0.3111
 2403TIP3    H131404   7.088   0.453  17.559  0.2216  0.9796 -0.3525
 2403TIP3    H231405   7.190   0.436  17.448 -1.0776 -2.7081 -1.1247
 2404TIP3   OH231406   2.048   6.039  18.350 -0.9761  0.0850  0.2313
 2404TIP3    H131407   2.019   6.063  18.262 -0.9278  0.8811  0.4273
 2404TIP3    H231408   2.108   6.109  18.375 -1.7854  0.4175  1.3033
 2405TIP3   OH231409   7.672   6.025  18.592 -0.4248 -0.0967  0.3632
 2405TIP3    H131410   7.603   5.995  18.650 -1.0462 -0.6297 -0.6227
 2405TIP3    H231411   7.750   5.975  18.618 -0.6807 -0.2788  0.7765
 2406TIP3   OH231412   2.054   3.786  17.027 -0.0529  0.3537  0.3217
 2406TIP3    H131413   2.009   3.777  17.111  0.6976  1.0422  0.8124
 2406TIP3    H231414   2.138   3.825  17.049 -0.0694  1.0701 -0.8210
 2407TIP3   OH231415   6.650   5.000  19.500  0.7608  0.1511  0.0696
 2407TIP3    H131416   6.673   4.994  19.593  0.9001  1.3657  0.1193
 2407TIP3    H231417   6.573   5.056  19.498  0.8889  0.3068 -0.5769
 2408TIP3   OH231418   3.576   6.849  18.839  0.2138 -0.5836 -0.1951
 2408TIP3    H131419   3.494   6.814  18.872  0.4659 -2.3333 -1.2723
 2408TIP3    H231420   3.622   6.881  18.917 -0.9878 -0.6489  0.5577
 2409TIP3   OH231421   2.662   1.129  17.445 -0.1859 -0.5461  0.7210
 2409TIP3    H131422   2.604   1.206  17.441 -0.4972 -0.8363 -1.1847
 2409TIP3    H231423   2.743   1.162  17.483 -0.8282  0.3835  1.3207
 2410TIP3   OH231424   3.576   2.087  19.356  0.0929  0.0151  0.0966
 2410TIP3    H131425   3.496   2.140  19.361 -1.2619 -1.6664 -1.9979
 2410TIP3    H231426   3.554   2.006  19.402  0.5657 -0.4609 -0.4992
 2411TIP3   OH231427   0.070   2.118  17.507 -0.0296  0.8070 -0.3395
 2411TIP3    H131428   0.073   2.213  17.492 -0.2042  0.7960 -0.4345
 2411TIP3    H231429   0.069   2.109  17.603  1.9541  0.8583 -0.2697
 2412TIP3   OH231430   6.566   5.365  17.908  0.1918 -0.2801  0.0928
 2412TIP3    H131431   6.639   5.309  17.937  0.0482 -0.5603 -0.0899
 2412TIP3    H231432   6.608   5.448  17.884  0.4946 -0.5678 -0.3725
 2413TIP3   OH231433   4.148   1.604  17.703  0.1205  0.1048 -0.3016
 2413TIP3    H131434   4.187   1.601  17.615 -0.5162  0.2456 -0.5956
 2413TIP3    H231435   4.093   1.525  17.706  1.0422 -0.5371  0.4123
 2414TIP3   OH231436   2.155   6.232  19.401 -0.1890 -0.0982 -0.1202
 2414TIP3    H131437   2.158   6.136  19.404  1.3365 -0.0748 -0.4213
 2414TIP3    H231438   2.210   6.260  19.474 -0.4911  0.5595 -0.1400
 2415TIP3   OH231439   5.769   4.311  19.597  0.0121  0.2943  0.3717
 2415TIP3    H131440   5.798   4.231  19.553 -2.0698  1.0832 -2.7474
 2415TIP3    H231441   5.849   4.348  19.634  1.3311 -2.2052  0.2600
 2416TIP3   OH231442   4.121   2.099  18.206  0.3424 -0.2517 -0.0883
 2416TIP3    H131443   4.199   2.139  18.167  1.3698  0.1069  2.1494
 2416TIP3    H231444   4.081   2.170  18.256 -0.3469 -0.9202  0.3151
 2417TIP3   OH231445   3.940   3.797  18.289  0.2259  0.4296 -0.3391
 2417TIP3    H131446   3.928   3.856  18.214 -0.2938  1.8741  0.8353
 2417TIP3    H231447   4.008   3.839  18.342  1.2335 -1.0351 -0.4139
 2418TIP3   OH231448   1.429   3.038  18.976  0.2868 -0.2279 -0.3767
 2418TIP3    H131449   1.409   2.957  19.022 -0.8698  0.5349  0.5028
 2418TIP3    H231450   1.501   3.076  19.025 -0.2376  0.0571  0.1843
 2419TIP3   OH231451   5.274   4.192  18.647 -0.5200  0.5785 -0.4943
 2419TIP3    H131452   5.315   4.224  18.567 -0.8830 -1.8889 -1.7474
 2419TIP3    H231453   5.324   4.233  18.718  0.5621  1.8923 -1.9582
 2420TIP3   OH231454   2.297   3.560  19.518  0.0733  0.1855  0.6342
 2420TIP3    H131455   2.328   3.647  19.543 -0.2438  0.0453  1.5587
 2420TIP3    H231456   2.328   3.502  19.587  1.5346 -0.7092 -0.7137
 2421TIP3   OH231457   4.635   0.072  18.691  1.1200  0.4978  0.0505
 2421TIP3    H131458   4.614   0.138  18.757 -2.1729 -0.1707 -0.1556
 2421TIP3    H231459   4.582  -0.004  18.715  2.6716 -1.1269 -1.3045
 2422TIP3   OH231460   1.236   5.594  17.812  0.0951  0.1456 -0.4950
 2422TIP3    H131461   1.176   5.658  17.850 -0.0271  1.1168 -2.1848
 2422TIP3    H231462   1.207   5.510  17.846 -1.1337  0.7810  0.0818
 2423TIP3   OH231463   2.231   1.066  18.967 -0.3391  0.4672 -0.6918
 2423TIP3    H131464   2.316   1.022  18.967 -0.5236  0.0393  0.6537
 2423TIP3    H231465   2.171   1.003  18.928 -0.3097  0.1334 -0.2122
 2424TIP3   OH231466   6.966   6.636  17.575  0.4252  0.7144 -0.2777
 2424TIP3    H131467   7.002   6.578  17.642 -0.7646 -0.9137 -0.9533
 2424TIP3    H231468   7.031   6.637  17.506  1.4023  1.9416  0.6207
 2425TIP3   OH231469   4.094   4.678  18.430 -0.1108  0.6022 -0.1059
 2425TIP3    H131470   4.139   4.658  18.512  0.0238 -0.2961 -0.3901
 2425TIP3    H231471   4.004   4.647  18.443 -0.1915  0.8090 -0.1623
 2426TIP3   OH231472   2.357   0.270  16.875 -0.7348  0.1809  0.5684
 2426TIP3    H131473   2.335   0.290  16.966 -1.9744  1.8680 -0.0527
 2426TIP3    H231474   2.405   0.187  16.879 -0.3692  0.4539  2.7839
 2427TIP3   OH231475   4.747   2.692  18.929  0.6403 -0.0143 -0.0357
 2427TIP3    H131476   4.702   2.609  18.916 -0.8995  0.7129  0.3578
 2427TIP3    H231477   4.784   2.713  18.843  2.0669 -1.6340  0.1355
 2428TIP3   OH231478   7.486   4.331  16.760  0.1372  0.2380  0.7043
 2428TIP3    H131479   7.479   4.249  16.809  1.6900 -1.5750 -1.8865
 2428TIP3    H231480   7.401   4.373  16.773 -0.9918 -2.1143  1.5618
 2429TIP3   OH231481   1.489   0.283  17.915 -0.7119  0.0599  0.1341
 2429TIP3    H131482   1.516   0.197  17.948  1.6126  0.3892 -0.7068
 2429TIP3    H231483   1.401   0.295  17.949 -0.8925 -2.4160  0.7275
 2430TIP3   OH231484   0.056   3.998  19.399  0.4737  0.3327  0.0736
 2430TIP3    H131485  -0.022   4.008  19.344  0.4565 -0.2085  0.0008
 2430TIP3    H231486   0.023   4.006  19.488  0.1202 -1.1771  0.1004
 2431TIP3   OH231487   0.298   5.645  18.473 -0.2180 -0.3088  0.1222
 2431TIP3    H131488   0.246   5.709  18.425 -2.4297 -2.1036 -0.0979
 2431TIP3    H231489   0.376   5.692  18.501 -0.4573  1.7153 -2.2925
 2432TIP3   OH231490   6.753   5.303  18.894 -0.2852 -0.1507  0.1926
 2432TIP3    H131491   6.736   5.231  18.834 -0.6997  0.1598 -0.0748
 2432TIP3    H231492   6.666   5.330  18.925 -0.0385 -0.6986  1.4134
 2433TIP3   OH231493   3.905   2.874  18.741  0.2718 -0.1219 -0.3036
 2433TIP3    H131494   3.881   2.945  18.682  0.1966 -1.5650 -2.0743
 2433TIP3    H231495   3.824   2.852  18.787 -0.0714 -0.0885 -0.8909
 2434TIP3   OH231496   3.749   1.989  18.154  0.5924 -0.5674  0.0894
 2434TIP3    H131497   3.833   1.986  18.109  1.2602 -0.3940  1.2716
 2434TIP3    H231498   3.709   1.904  18.135  1.1165 -0.7276 -0.3199
 2435TIP3   OH231499   7.216   1.543  17.209 -0.3869  0.0090 -0.4316
 2435TIP3    H131500   7.287   1.511  17.153 -0.0182  1.2492 -0.7102
 2435TIP3    H231501   7.205   1.635  17.183 -1.7876 -0.0343 -0.0691
 2436TIP3   OH231502   5.470   6.797  18.009 -0.2097 -0.3867  0.6933
 2436TIP3    H131503   5.521   6.736  17.955 -1.1253 -0.7469  0.2169
 2436TIP3    H231504   5.450   6.870  17.950 -0.1704 -0.2079  0.9024
 2437TIP3   OH231505   6.357   3.402  17.327 -0.2464 -0.0328 -0.4212
 2437TIP3    H131506   6.394   3.336  17.385 -1.8873 -1.3939 -0.8480
 2437TIP3    H231507   6.378   3.371  17.239 -0.0226  0.6340 -0.6085
 2438TIP3   OH231508   0.906   5.099  19.197 -0.2716 -0.0666  0.1456
 2438TIP3    H131509   0.842   5.169  19.188 -1.7502 -1.3638  0.1904
 2438TIP3    H231510   0.854   5.020  19.210  1.1621 -1.8352 -3.4427
 2439TIP3   OH231511   3.850   2.469  19.465 -0.9437  0.2073 -0.7585
 2439TIP3    H131512   3.802   2.409  19.521 -0.6468 -1.3679 -2.1199
 2439TIP3    H231513   3.942   2.443  19.474 -0.6311  1.3874 -0.3019
 2440TIP3   OH231514   3.436   1.618  18.018  0.2880  0.9176  0.1749
 2440TIP3    H131515   3.441   1.588  17.927  0.6183  1.2440  0.0840
 2440TIP3    H231516   3.442   1.537  18.070 -1.3720  0.5808 -0.1099
 2441TIP3   OH231517   3.572   2.774  17.722  0.3017 -0.4204 -0.3064
 2441TIP3    H131518   3.662   2.788  17.751  0.8169 -1.2687 -1.4105
 2441TIP3    H231519   3.531   2.725  17.793  1.5720 -2.5859 -0.9452
 2442TIP3   OH231520   2.602   6.782  18.223 -0.0472 -0.1151  0.2935
 2442TIP3    H131521   2.663   6.713  18.196  0.3185 -0.1994  1.2908
 2442TIP3    H231522   2.643   6.863  18.193 -0.4587 -0.3067 -0.8510
 2443TIP3   OH231523   4.101   4.015  18.743  0.2666 -0.4959  0.7836
 2443TIP3    H131524   4.192   4.022  18.770  1.0802 -0.5982 -1.6689
 2443TIP3    H231525   4.100   4.045  18.652 -2.3416  0.4533  1.0292
 2444TIP3   OH231526   2.853   1.614  18.397  0.4378  0.0376 -0.4841
 2444TIP3    H131527   2.935   1.661  18.382 -0.0094  1.2469  0.6973
 2444TIP3    H231528   2.852   1.597  18.491 -0.5479 -0.1820 -0.5265
 2445TIP3   OH231529   3.555   2.870  16.824 -0.1933 -0.6350  0.4646
 2445TIP3    H131530   3.561   2.941  16.761  0.1109 -0.4632  0.6866
 2445TIP3    H231531   3.622   2.807  16.796  0.3566 -0.2770  0.9710
 2446TIP3   OH231532   1.324   4.285  16.916  0.0100  0.2123  0.0799
 2446TIP3    H131533   1.274   4.229  16.856  1.2368 -1.1212  0.2335
 2446TIP3    H231534   1.388   4.329  16.860 -0.6961  1.1831  0.0208
 2447TIP3   OH231535   3.979   5.114  19.034  0.3740  0.4055  0.0515
 2447TIP3    H131536   3.916   5.051  18.999 -0.1505  0.2294  1.2502
 2447TIP3    H231537   3.996   5.083  19.123  1.6282  0.8493 -0.0227
 2448TIP3   OH231538   5.633   4.321  18.559  0.2742 -0.1187  0.1014
 2448TIP3    H131539   5.638   4.291  18.650  0.5399  0.6817  0.3549
 2448TIP3    H231540   5.711   4.283  18.518  0.6510  0.2817  0.4405
 2449TIP3   OH231541   2.112   1.018  17.743 -0.1329 -0.3622 -0.5896
 2449TIP3    H131542   2.206   1.026  17.762 -0.4745  2.2496  0.3937
 2449TIP3    H231543   2.106   0.943  17.684  2.3346 -1.8552  0.8615
 2450TIP3   OH231544   5.550   4.727  18.247 -0.0067  0.8614 -0.7496
 2450TIP3    H131545   5.585   4.645  18.281  0.0636  1.7242  1.4454
 2450TIP3    H231546   5.576   4.729  18.155  1.1686 -0.9230 -0.4891
 2451TIP3   OH231547   5.060   5.667  17.016 -0.0617 -0.2067  0.5477
 2451TIP3    H131548   5.097   5.725  17.082 -0.5182  0.4220  0.2657
 2451TIP3    H231549   4.979   5.711  16.989  0.8298  0.2902 -1.4613
 2452TIP3   OH231550   6.714   7.463  19.484 -0.1739  0.0413  0.8194
 2452TIP3    H131551   6.760   7.542  19.457 -0.0889 -0.7120 -1.4156
 2452TIP3    H231552   6.647   7.450  19.418  0.5217 -2.3471  0.4998
 2453TIP3   OH231553   7.385   6.923  18.996  0.3774 -0.3522 -0.0588
 2453TIP3    H131554   7.409   6.841  18.953 -1.6296 -0.5291 -0.9237
 2453TIP3    H231555   7.469   6.966  19.015  1.3912 -1.1115 -2.5026
 2454TIP3   OH231556   6.688   4.757  17.354  0.0074 -0.6329 -0.2834
 2454TIP3    H131557   6.593   4.763  17.362 -0.0417 -1.6395  0.0125
 2454TIP3    H231558   6.716   4.844  17.326 -0.7910  0.3182  1.7438
 2455TIP3   OH231559   7.498   6.460  17.952 -0.0918  0.3667  0.2225
 2455TIP3    H131560   7.553   6.465  18.030 -0.2258 -0.8535  0.4250
 2455TIP3    H231561   7.559   6.469  17.879  0.9071 -3.4147  0.3508
 2456TIP3   OH231562   3.370   5.471  18.455 -0.3318  0.3002  0.1688
 2456TIP3    H131563   3.448   5.442  18.408 -0.0493  2.2157 -0.6212
 2456TIP3    H231564   3.379   5.432  18.542  1.5041  0.4472  0.0841
 2457TIP3   OH231565   6.737   5.899  18.311 -0.2070 -0.2285  0.0483
 2457TIP3    H131566   6.832   5.893  18.296 -0.2364  0.4891 -0.4880
 2457TIP3    H231567   6.725   5.869  18.401  0.4812 -0.7072 -0.0080
 2458TIP3   OH231568   4.000   0.884  18.885 -0.5275  0.6701 -0.2206
 2458TIP3    H131569   4.049   0.928  18.954  0.4441  1.5413 -1.4199
 2458TIP3    H231570   4.058   0.813  18.856 -1.2654 -0.1929  0.3807
 2459TIP3   OH231571   0.703   7.383  18.364  0.0004  0.2819  0.2038
 2459TIP3    H131572   0.678   7.427  18.283  1.7122  2.3016  0.6842
 2459TIP3    H231573   0.639   7.412  18.428 -0.0705  0.4426  0.0618
 2460TIP3   OH231574   2.370   5.662  17.927 -0.5603  0.1425  0.2547
 2460TIP3    H131575   2.287   5.697  17.962 -0.2457  0.0791  1.0887
 2460TIP3    H231576   2.348   5.633  17.838 -1.7205 -0.9178  0.8512
 2461TIP3   OH231577   0.530   2.394  19.400  0.1529 -0.0028 -0.1147
 2461TIP3    H131578   0.535   2.487  19.420 -0.1242 -0.0052 -0.0338
 2461TIP3    H231579   0.620   2.369  19.380  0.4094  0.0475  0.9028
 2462TIP3   OH231580   6.029   0.606  17.258  0.2228 -0.0239 -0.1980
 2462TIP3    H131581   6.030   0.519  17.218 -1.4210 -0.1104 -0.0948
 2462TIP3    H231582   5.995   0.663  17.189  0.1617  0.3307  0.1257
 2463TIP3   OH231583   5.173   0.575  18.806 -0.0931  0.4465  0.8464
 2463TIP3    H131584   5.114   0.641  18.769 -0.3207 -0.3945 -0.3443
 2463TIP3    H231585   5.115   0.516  18.854 -0.8382 -2.2364 -2.9381
 2464TIP3   OH231586   5.334   1.758  16.765 -0.0640  0.1631  0.2233
 2464TIP3    H131587   5.427   1.780  16.760 -0.3147  1.4771  0.8225
 2464TIP3    H231588   5.299   1.817  16.833 -1.3649 -0.1689 -0.1207
 2465TIP3   OH231589   3.864   6.259  19.530 -0.0889  0.3541  0.0624
 2465TIP3    H131590   3.899   6.171  19.550  0.0378  0.4097  0.0886
 2465TIP3    H231591   3.940   6.317  19.540 -0.2914  0.5371  0.5655
 2466TIP3   OH231592   5.950   3.685  19.237  0.6165  0.0156 -0.7120
 2466TIP3    H131593   5.994   3.689  19.152  0.7066 -0.9719 -0.7257
 2466TIP3    H231594   5.959   3.594  19.264  0.4869  0.2909  0.3069
 2467TIP3   OH231595   6.622   5.862  19.421  0.1539 -0.2552 -0.3184
 2467TIP3    H131596   6.687   5.918  19.464  0.2221  0.2747 -1.0852
 2467TIP3    H231597   6.640   5.774  19.454  1.8280 -0.2623 -1.1334
 2468TIP3   OH231598   4.401   0.396  17.679  0.1593 -0.2872 -0.6555
 2468TIP3    H131599   4.464   0.442  17.622 -0.3177  0.5409 -0.5215
 2468TIP3    H231600   4.455   0.362  17.750  0.5566 -0.1497 -0.8820
 2469TIP3   OH231601   5.410   0.962  18.976  0.3032 -0.2609 -0.4997
 2469TIP3    H131602   5.342   0.939  19.039  0.8749 -0.1617  0.1756
 2469TIP3    H231603   5.410   0.891  18.912  1.7402 -1.9931  1.2983
 2470TIP3   OH231604   5.624   5.916  18.778  0.2589 -0.4467 -0.0635
 2470TIP3    H131605   5.691   5.853  18.753 -0.1802 -1.5664  1.4576
 2470TIP3    H231606   5.546   5.889  18.729  0.3350 -0.4567 -0.1812
 2471TIP3   OH231607   5.983   3.913  17.385  0.0757  0.1607  0.1252
 2471TIP3    H131608   5.961   4.006  17.396  1.0316  0.6656 -1.7735
 2471TIP3    H231609   5.952   3.891  17.297  1.1997 -0.8828 -0.0415
 2472TIP3   OH231610   3.497   1.628  18.437 -0.4032 -0.1996  0.2524
 2472TIP3    H131611   3.461   1.541  18.418 -2.1535  0.7121 -0.9614
 2472TIP3    H231612   3.501   1.632  18.532 -1.2147 -1.2686  0.3561
 2473TIP3   OH231613   2.047   4.975  18.487  0.0190  0.2206 -0.1877
 2473TIP3    H131614   1.980   5.036  18.516 -0.1732 -0.5250  1.0359
 2473TIP3    H231615   2.034   4.898  18.543  0.8703 -0.5499 -1.0267
 2474TIP3   OH231616   3.492   2.751  18.049  0.1300  0.1424  0.1193
 2474TIP3    H131617   3.561   2.746  18.115 -1.0993 -2.1240  1.3820
 2474TIP3    H231618   3.456   2.839  18.057  1.0935  0.4456  1.3196
 2475TIP3   OH231619   6.355   4.171  17.334 -0.0397 -0.0718  0.3006
 2475TIP3    H131620   6.422   4.108  17.361 -1.3746 -1.4575  0.5132
 2475TIP3    H231621   6.351   4.163  17.239 -0.2051 -0.2859  0.3276
 2476TIP3   OH231622   1.360   1.488  17.729 -0.1118 -0.3205 -0.2375
 2476TIP3    H131623   1.328   1.418  17.787 -0.7706 -0.0826 -0.2999
 2476TIP3    H231624   1.415   1.542  17.786 -0.6051 -0.1937  0.1304
 2477TIP3   OH231625   4.015   6.061  18.083  0.1340 -0.3396  0.0379
 2477TIP3    H131626   3.983   6.028  17.999 -0.8536 -0.5795  0.4971
 2477TIP3    H231627   4.041   5.983  18.131 -0.6899 -0.3282  0.5140
 2478TIP3   OH231628   1.025   5.441  17.644 -1.0311  0.0011 -0.4613
 2478TIP3    H131629   1.107   5.394  17.632 -0.6284  0.2240  1.1105
 2478TIP3    H231630   1.012   5.489  17.563  0.9909  0.8540 -0.3300
 2479TIP3   OH231631   4.599   5.267  17.070 -0.0690 -0.0141 -0.6293
 2479TIP3    H131632   4.639   5.271  16.983  1.8266  1.7159  0.2256
 2479TIP3    H231633   4.641   5.192  17.112  1.0190  0.7314 -0.3437
 2480TIP3   OH231634   1.192   1.065  18.345 -0.1361  0.0272  0.0524
 2480TIP3    H131635   1.197   1.003  18.272  0.2930 -0.1210  0.2069
 2480TIP3    H231636   1.278   1.061  18.386 -0.8147 -0.9580  1.4306
 2481TIP3   OH231637   2.303   4.334  17.454  0.2121 -0.3795 -0.0653
 2481TIP3    H131638   2.286   4.383  17.374 -0.3905  0.5453  0.6148
 2481TIP3    H231639   2.226   4.278  17.465 -1.0874  1.5768  1.3670
 2482TIP3   OH231640   5.060   5.186  18.057 -0.5198  0.2300 -0.3980
 2482TIP3    H131641   5.006   5.126  18.108  0.4782  0.0166  0.4450
 2482TIP3    H231642   5.120   5.225  18.121 -1.6095  2.7010 -0.7822
 2483TIP3   OH231643   4.114   7.006  17.885  0.3712  0.5797 -0.5829
 2483TIP3    H131644   4.165   6.941  17.838  1.7359 -0.2016  1.7901
 2483TIP3    H231645   4.148   7.090  17.855  1.6650  0.0865 -0.5483
 2484TIP3   OH231646   0.897   6.988  19.099  0.2479  0.2160 -0.2621
 2484TIP3    H131647   0.895   7.065  19.156 -2.4139  0.2315 -0.2511
 2484TIP3    H231648   0.815   6.993  19.049 -1.1624 -3.7034  1.2768
 2485TIP3   OH231649   1.061   5.360  18.311  0.2439  0.3605  0.6450
 2485TIP3    H131650   1.139   5.372  18.257 -0.4128  0.5613 -0.2895
 2485TIP3    H231651   1.009   5.295  18.264 -0.7010  1.1045  0.6322
 2486TIP3   OH231652   5.644   6.599  17.952  0.1680  0.2438 -0.5768
 2486TIP3    H131653   5.695   6.533  18.000 -0.1976  0.7279  0.5238
 2486TIP3    H231654   5.613   6.554  17.874  0.0970 -0.8325  0.0534
 2487TIP3   OH231655   2.450   3.835  16.731  0.3535 -0.4106  0.6360
 2487TIP3    H131656   2.471   3.807  16.820 -0.9649 -0.0091  1.0936
 2487TIP3    H231657   2.399   3.763  16.694  1.8271 -1.0682 -0.2173
 2488TIP3   OH231658   5.525   4.562  17.034  0.0448 -1.0029  0.2179
 2488TIP3    H131659   5.584   4.623  16.990 -0.6366 -0.2889  0.2769
 2488TIP3    H231660   5.554   4.475  17.005 -0.3407 -0.5655 -1.5939
 2489TIP3   OH231661   1.757   6.947  19.167  0.2482  0.4621  0.0487
 2489TIP3    H131662   1.793   6.881  19.108  0.0311  1.1889 -0.9126
 2489TIP3    H231663   1.809   6.938  19.247  0.4538 -0.6254 -0.1874
 2490TIP3   OH231664   6.848   0.634  17.943 -0.2280 -0.1328  0.2095
 2490TIP3    H131665   6.869   0.660  17.853 -1.1034  1.2124  0.3679
 2490TIP3    H231666   6.909   0.563  17.962  0.6288  0.2134 -1.1070
 2491TIP3   OH231667   6.671   3.625  17.663  0.3208 -0.3001 -0.5577
 2491TIP3    H131668   6.605   3.683  17.702 -1.9710 -1.0794 -2.9618
 2491TIP3    H231669   6.658   3.541  17.707  1.1414  0.0458  0.3761
 2492TIP3   OH231670   6.950   0.906  17.307  0.4264 -0.0124 -0.2417
 2492TIP3    H131671   6.985   0.977  17.254 -0.2215 -0.9829 -2.0843
 2492TIP3    H231672   6.859   0.931  17.324 -0.3872 -1.1557 -2.4967
 2493TIP3   OH231673   5.242   5.360  18.174 -0.2434 -0.1260 -0.0940
 2493TIP3    H131674   5.316   5.311  18.138 -1.1291 -0.3142 -1.7922
 2493TIP3    H231675   5.259   5.450  18.147 -0.8337 -0.2447 -0.9301
 2494TIP3   OH231676   4.150   0.634  18.661  0.6910 -0.1294 -0.2497
 2494TIP3    H131677   4.159   0.727  18.681 -1.6690  0.2511 -0.6545
 2494TIP3    H231678   4.124   0.593  18.744 -1.6282  0.2024 -0.7365
 2495TIP3   OH231679   7.607   5.766  18.185  0.4055 -0.0999  0.4077
 2495TIP3    H131680   7.560   5.844  18.215  0.8817 -0.0790  1.1272
 2495TIP3    H231681   7.538   5.707  18.153  0.1410  1.1739 -1.5101
 2496TIP3   OH231682   5.228   1.241  17.857  0.3207  0.5449 -0.2517
 2496TIP3    H131683   5.138   1.215  17.877  0.8749 -1.3591 -0.0456
 2496TIP3    H231684   5.251   1.303  17.926 -1.7226  3.3509 -1.8937
 2497TIP3   OH231685   2.630   0.277  18.151 -0.1997 -0.3859 -0.0011
 2497TIP3    H131686   2.724   0.294  18.163 -0.6462  0.1644  3.7756
 2497TIP3    H231687   2.589   0.363  18.158 -1.1073 -0.8211  0.1098
 2498TIP3   OH231688   4.718   7.441  18.106  0.0673  0.2155 -0.2003
 2498TIP3    H131689   4.697   7.366  18.051 -1.6072  0.3009  0.2731
 2498TIP3    H231690   4.677   7.422  18.190  0.6962  1.0967  0.3261
 2499TIP3   OH231691   3.602   6.209  17.973  0.0150 -0.0885 -0.3220
 2499TIP3    H131692   3.575   6.153  18.046  1.9937 -0.9232 -0.1806
 2499TIP3    H231693   3.697   6.217  17.983  0.1915  0.5758 -2.2541
 2500TIP3   OH231694   5.227   3.450  18.037  0.0493  0.4242 -0.5466
 2500TIP3    H131695   5.177   3.368  18.035 -0.4867  0.6933  0.7522
 2500TIP3    H231696   5.217   3.481  18.127  0.7160  1.6331 -0.8803
 2501TIP3   OH231697   3.801   3.950  17.643 -0.1732 -0.3565  0.2485
 2501TIP3    H131698   3.770   4.025  17.693  1.0937  0.1424  0.3138
 2501TIP3    H231699   3.861   3.987  17.577  1.6214 -1.4050  1.2069
 2502TIP3   OH231700   7.127   1.763  18.242 -0.3854  0.2563  0.5846
 2502TIP3    H131701   7.143   1.782  18.334 -0.7880  0.1660  0.6769
 2502TIP3    H231702   7.045   1.713  18.242 -0.5298  0.4850  0.1559
 2503TIP3   OH231703   7.604   5.690  18.743  0.2814  0.2729  0.4198
 2503TIP3    H131704   7.543   5.760  18.765  1.7462  2.0375 -0.8270
 2503TIP3    H231705   7.690   5.732  18.743  1.2860 -1.6572  0.1070
 2504TIP3   OH231706   6.023   4.784  18.389  0.2975  0.5426 -0.0785
 2504TIP3    H131707   6.062   4.859  18.344  0.6925  0.8252  0.7310
 2504TIP3    H231708   5.943   4.819  18.429  0.5131  0.5453  0.3504
 2505TIP3   OH231709   0.485   5.106  17.737 -0.4409  0.0128  0.2073
 2505TIP3    H131710   0.557   5.076  17.792  0.0455  0.1022 -0.3751
 2505TIP3    H231711   0.479   5.042  17.667 -0.5893  0.2863 -0.0344
 2506TIP3   OH231712   5.879   3.017  19.394  0.9288 -0.3916  0.3162
 2506TIP3    H131713   5.856   3.056  19.309  1.5761 -0.6448  0.0187
 2506TIP3    H231714   5.818   3.057  19.456  2.5116  2.1928  0.3003
 2507TIP3   OH231715   6.786   1.915  18.257 -0.2731 -0.3247 -0.6616
 2507TIP3    H131716   6.720   1.847  18.242  0.1572 -0.3656 -2.7490
 2507TIP3    H231717   6.826   1.892  18.340 -1.5030 -1.4577 -0.3442
 2508TIP3   OH231718   1.712   4.290  17.583  0.1943 -0.0461  0.2427
 2508TIP3    H131719   1.694   4.199  17.560 -0.2678  0.3040 -0.8706
 2508TIP3    H231720   1.626   4.332  17.582  0.4215  0.4347  0.6047
 2509TIP3   OH231721   0.608   4.389  18.191  0.4992 -0.3484  0.4120
 2509TIP3    H131722   0.554   4.386  18.270  0.9479  0.5364  0.7648
 2509TIP3    H231723   0.602   4.301  18.154 -0.9141 -0.3610  0.6181
 2510TIP3   OH231724   2.382   2.094  17.704 -0.3045  0.2515 -0.3549
 2510TIP3    H131725   2.305   2.133  17.663 -0.9321 -0.3640  0.1920
 2510TIP3    H231726   2.350   2.062  17.789  0.7307  0.6314  0.1913
 2511TIP3   OH231727   2.358   2.853  18.042  0.0780  0.2061 -0.4165
 2511TIP3    H131728   2.348   2.936  17.994  0.1271  0.2300 -0.3859
 2511TIP3    H231729   2.291   2.858  18.111 -0.8132 -0.3582 -1.2144
 2512TIP3   OH231730   5.814   1.808  19.172  0.4318  0.1432  0.2263
 2512TIP3    H131731   5.818   1.736  19.234  0.5246  0.7086  0.8830
 2512TIP3    H231732   5.818   1.887  19.226 -0.4072  0.6470 -0.4276
 2513TIP3   OH231733   0.870   5.572  16.820 -0.2561 -0.1433  0.4886
 2513TIP3    H131734   0.962   5.555  16.800 -0.2506 -0.6239  0.9099
 2513TIP3    H231735   0.872   5.634  16.894 -0.2371 -1.8910  2.0201
 2514TIP3   OH231736   4.848   6.443  18.541  0.0125 -0.0761 -0.3584
 2514TIP3    H131737   4.848   6.525  18.591  2.4041  1.0356 -2.0441
 2514TIP3    H231738   4.880   6.378  18.603  1.0426  0.8801  0.1485
 2515TIP3   OH231739   5.747   2.439  18.465  0.1101 -0.2117  0.3252
 2515TIP3    H131740   5.684   2.377  18.427  0.3614  0.0309 -0.5236
 2515TIP3    H231741   5.832   2.396  18.455 -0.0029 -1.1808  2.7840
 2516TIP3   OH231742   2.832   7.223  16.818  0.3939  0.3396 -0.1583
 2516TIP3    H131743   2.757   7.281  16.808  0.4614  0.7482  1.4929
 2516TIP3    H231744   2.906   7.275  16.787  0.1998  0.4566 -0.4338
 2517TIP3   OH231745   5.593   4.888  19.045  0.1753 -0.1872 -0.0814
 2517TIP3    H131746   5.674   4.907  19.092 -0.1991 -0.5474  0.7296
 2517TIP3    H231747   5.532   4.955  19.075  0.2254  0.2244 -0.8612
 2518TIP3   OH231748   2.350   6.699  18.419  0.5237 -0.0299 -0.7065
 2518TIP3    H131749   2.382   6.735  18.502 -0.7300  0.2308 -0.3093
 2518TIP3    H231750   2.357   6.604  18.430 -0.6916 -0.0456  0.1827
 2519TIP3   OH231751   5.807   7.006  18.841  0.0778  0.4396 -0.2720
 2519TIP3    H131752   5.809   6.972  18.752 -0.6886  0.7071 -0.3995
 2519TIP3    H231753   5.723   6.977  18.876  0.1629  0.7484  0.1958
 2520TIP3   OH231754   2.067   0.506  17.272 -0.4798 -0.1625  0.0148
 2520TIP3    H131755   2.052   0.413  17.286 -3.6681  0.2702  0.2910
 2520TIP3    H231756   2.084   0.541  17.360 -1.0365 -0.2419  0.1558
 2521TIP3   OH231757   3.110   2.607  19.263  0.4295  0.3154 -0.0136
 2521TIP3    H131758   3.169   2.580  19.333 -1.2609 -2.9755  0.3605
 2521TIP3    H231759   3.143   2.564  19.185 -1.7739 -2.3927  0.3822
 2522TIP3   OH231760   3.983   6.772  18.560  0.0883 -0.4054 -0.4599
 2522TIP3    H131761   4.015   6.806  18.476 -2.5860  0.5760 -1.1715
 2522TIP3    H231762   3.961   6.681  18.541  1.5054 -0.8409 -0.1822
 2523TIP3   OH231763   0.339   1.557  17.864 -0.0733 -0.3994  0.2243
 2523TIP3    H131764   0.314   1.531  17.952  1.2852  0.5202  0.9267
 2523TIP3    H231765   0.335   1.653  17.865  1.0629 -0.3234 -0.3395
 2524TIP3   OH231766   5.540   7.079  19.181  0.1124 -0.2112  0.7052
 2524TIP3    H131767   5.529   7.020  19.256  0.5261  1.3313  2.0481
 2524TIP3    H231768   5.593   7.151  19.216 -0.7210  1.1514 -0.7561
 2525TIP3   OH231769   1.142   0.732  17.639  0.1005 -0.3749  0.1968
 2525TIP3    H131770   1.143   0.760  17.547  0.5806 -1.0209  0.0031
 2525TIP3    H231771   1.096   0.803  17.684  0.8260  0.4839 -0.3647
 2526TIP3   OH231772   0.248   3.396  17.545 -0.4133 -0.7021 -0.4536
 2526TIP3    H131773   0.298   3.316  17.561  1.7095  0.5563 -0.3371
 2526TIP3    H231774   0.193   3.406  17.623 -0.0387 -1.5774 -0.0704
 2527TIP3   OH231775   4.392   5.357  17.205 -0.1418 -0.0321  0.2736
 2527TIP3    H131776   4.464   5.333  17.148 -1.5071 -0.7594 -1.2118
 2527TIP3    H231777   4.365   5.274  17.245  0.5223  0.4050  1.6898
 2528TIP3   OH231778   2.971   5.263  18.191  1.3566  0.2991  0.4098
 2528TIP3    H131779   2.965   5.349  18.231  1.0283 -0.1922  1.4663
 2528TIP3    H231780   3.019   5.210  18.255  0.0738 -0.7385  0.5629
 2529TIP3   OH231781   2.112   4.205  16.638 -0.1995  0.5439 -0.0824
 2529TIP3    H131782   2.176   4.165  16.579 -1.7325 -2.0205 -0.1699
 2529TIP3    H231783   2.093   4.137  16.702  2.0962  3.4654  4.1938
 2530TIP3   OH231784   4.051   7.441  19.015  0.2010  0.3996 -0.3411
 2530TIP3    H131785   3.977   7.451  19.075 -1.9067 -0.3758 -2.6783
 2530TIP3    H231786   4.051   7.522  18.963 -0.2305 -0.3878 -1.6022
 2531TIP3   OH231787   3.987   5.305  18.552  0.3600  0.2280  0.0683
 2531TIP3    H131788   4.066   5.335  18.597  0.4471  0.5588 -0.2980
 2531TIP3    H231789   4.017   5.283  18.464  0.2609 -0.7827  0.2831
 2532TIP3   OH231790   2.500   4.104  19.050  0.4327  0.0294  0.3686
 2532TIP3    H131791   2.447   4.095  19.128  1.3470 -0.4387  0.9504
 2532TIP3    H231792   2.467   4.183  19.007  0.0659  0.4100  1.3351
 2533TIP3   OH231793   6.491   6.459  19.183 -0.6478  0.0016  0.8046
 2533TIP3    H131794   6.539   6.435  19.105 -1.3443  0.2461  0.2901
 2533TIP3    H231795   6.546   6.429  19.256  1.2356  1.9955  0.3123
 2534TIP3   OH231796   5.050   4.698  17.897 -0.6223  0.4679 -0.1928
 2534TIP3    H131797   5.042   4.624  17.957 -0.5588  1.3980  1.0119
 2534TIP3    H231798   5.081   4.770  17.953  2.0913  0.7144 -1.8527
 2535TIP3   OH231799   0.007   2.736  17.610 -0.3182 -0.4266 -0.0740
 2535TIP3    H131800   0.013   2.730  17.705 -1.2340  0.3900  0.0474
 2535TIP3    H231801  -0.008   2.829  17.592 -1.4505 -0.7549 -0.9286
 2536TIP3   OH231802   7.425   2.729  18.360 -0.4456 -0.3900 -0.2616
 2536TIP3    H131803   7.507   2.777  18.375 -0.5944 -0.1812 -0.0933
 2536TIP3    H231804   7.374   2.787  18.303 -0.5905 -0.3875 -0.1297
 2537TIP3   OH231805   1.064   5.124  18.169  0.6708 -0.2733  0.0347
 2537TIP3    H131806   1.158   5.136  18.180  0.7076 -1.3644  1.1656
 2537TIP3    H231807   1.054   5.029  18.156 -0.3050 -0.2269  0.3855
 2538TIP3   OH231808   6.971   5.664  16.961  0.1968  1.1234  0.1464
 2538TIP3    H131809   6.971   5.633  17.052  1.5107 -1.1785 -0.5525
 2538TIP3    H231810   6.918   5.599  16.914  1.1655  1.1762 -1.0469
 2539TIP3   OH231811   1.509   4.029  18.229  0.4426  0.3415 -0.2343
 2539TIP3    H131812   1.471   4.112  18.202 -0.1613  0.3247  0.5129
 2539TIP3    H231813   1.521   4.038  18.324  1.3308 -0.0487 -0.3064
 2540TIP3   OH231814   7.264   7.299  16.894 -0.4534  0.2960  0.1940
 2540TIP3    H131815   7.348   7.343  16.908  0.2028  1.2527 -4.8816
 2540TIP3    H231816   7.200   7.359  16.932  0.8731  2.0721 -0.2174
 2541TIP3   OH231817   5.141   5.844  17.959 -0.6309 -0.0880  0.2821
 2541TIP3    H131818   5.163   5.937  17.962 -0.0716 -0.2195  0.3898
 2541TIP3    H231819   5.110   5.829  17.869 -0.5379  0.1627  0.2088
 2542TIP3   OH231820   5.070   2.915  17.229 -0.7585 -0.2163  0.4648
 2542TIP3    H131821   5.090   2.922  17.136  1.0233  2.0484  0.9234
 2542TIP3    H231822   4.992   2.969  17.242 -1.8676 -1.6680  0.1269
 2543TIP3   OH231823   3.181   3.957  17.085  0.4437  0.0794 -0.4571
 2543TIP3    H131824   3.173   3.898  17.160  0.9115  0.5539 -0.0250
 2543TIP3    H231825   3.158   3.903  17.009  0.6631 -0.6023 -0.0476
 2544TIP3   OH231826   1.081   3.568  18.357 -0.6219 -0.0294 -0.6075
 2544TIP3    H131827   1.133   3.621  18.297 -1.2062 -1.6419 -2.6592
 2544TIP3    H231828   1.073   3.483  18.314 -0.6117 -1.4907  2.0420
 2545TIP3   OH231829   3.503   2.457  17.379  0.3342 -0.6194 -0.8449
 2545TIP3    H131830   3.423   2.430  17.424  0.9510 -1.3070 -0.1164
 2545TIP3    H231831   3.520   2.546  17.409 -0.2226 -0.4249 -1.1030
 2546TIP3   OH231832   3.191   4.109  18.710 -0.3020 -0.1278  0.0797
 2546TIP3    H131833   3.207   4.052  18.785 -0.6692 -0.1412  0.1494
 2546TIP3    H231834   3.162   4.192  18.749 -0.3774 -0.0966 -0.0437
 2547TIP3   OH231835   6.074   7.165  17.104  0.5172 -0.5369  0.2921
 2547TIP3    H131836   6.111   7.125  17.182  1.4065 -1.3928 -0.5500
 2547TIP3    H231837   6.137   7.146  17.034  0.3245  1.2114 -0.4074
 2548TIP3   OH231838   2.697   3.106  17.105  0.1920 -0.1308  0.2257
 2548TIP3    H131839   2.644   3.051  17.048  0.2587 -0.6762  0.6787
 2548TIP3    H231840   2.782   3.062  17.108  0.5759  0.5652 -0.2428
 2549TIP3   OH231841   2.872   1.415  18.941  0.2874  0.6099  0.2168
 2549TIP3    H131842   2.964   1.431  18.958  0.1427  0.7588  0.9108
 2549TIP3    H231843   2.859   1.323  18.961  0.2963  0.5734  0.0572
 2550TIP3   OH231844   1.213   3.135  17.290 -0.1747  0.1751 -1.1558
 2550TIP3    H131845   1.302   3.117  17.322  0.4935  3.2517 -0.9476
 2550TIP3    H231846   1.156   3.110  17.363  0.9595  2.5413  0.6710
 2551TIP3   OH231847   3.670   4.183  19.493  0.8386  0.2545  0.2147
 2551TIP3    H131848   3.579   4.153  19.487  0.7841  0.1280  1.4382
 2551TIP3    H231849   3.709   4.126  19.559  0.8200  2.5961  2.4055
 2552TIP3   OH231850   3.605   2.888  19.145  0.2181 -0.1649 -0.0979
 2552TIP3    H131851   3.621   2.972  19.188  2.8323  0.3456 -1.8429
 2552TIP3    H231852   3.510   2.874  19.154 -0.4600  3.3333 -0.4313
 2553TIP3   OH231853   3.001   0.895  17.440 -0.6034 -0.0263  0.0816
 2553TIP3    H131854   2.970   0.871  17.528  0.7727  0.1095  0.6150
 2553TIP3    H231855   3.028   0.986  17.448 -1.5779  0.3653 -0.8092
 2554TIP3   OH231856   2.147   2.454  18.421  0.2386 -0.8273  0.7576
 2554TIP3    H131857   2.146   2.459  18.326 -0.4677 -0.8110  0.7610
 2554TIP3    H231858   2.212   2.518  18.448  0.5467 -0.9369  0.2813
 2555TIP3   OH231859   1.710   4.784  19.411  0.3348 -0.2098  0.0106
 2555TIP3    H131860   1.648   4.758  19.480  0.9040 -0.7703  0.3219
 2555TIP3    H231861   1.720   4.879  19.423 -0.1074 -0.1872  0.2505
 2556TIP3   OH231862   5.219   2.132  19.636  0.3208 -0.2644  0.1856
 2556TIP3    H131863   5.182   2.101  19.718  0.9060 -0.6867  0.2894
 2556TIP3    H231864   5.223   2.227  19.646 -0.8163 -0.1884  0.1355
 2557TIP3   OH231865   2.060   3.235  19.238  0.5386  0.1752  0.0298
 2557TIP3    H131866   1.965   3.231  19.241  0.4573  1.2839 -0.5116
 2557TIP3    H231867   2.081   3.323  19.269  1.3739  0.0415 -0.1398
 2558TIP3   OH231868   2.290   3.121  17.514 -0.4310 -0.1084 -0.1302
 2558TIP3    H131869   2.377   3.132  17.475  0.8196 -1.7107  1.9190
 2558TIP3    H231870   2.262   3.210  17.535  1.7143  0.3859  1.0186
 2559TIP3   OH231871   7.606   3.286  17.149  0.2150 -0.6538  0.2905
 2559TIP3    H131872   7.690   3.308  17.189  0.9873  0.0550 -1.6252
 2559TIP3    H231873   7.628   3.239  17.069 -1.2885 -2.0349  0.6163
 2560TIP3   OH231874   4.707   5.163  17.739 -0.2865  0.2350 -0.5946
 2560TIP3    H131875   4.760   5.118  17.805  0.0951  0.6274 -0.6301
 2560TIP3    H231876   4.621   5.174  17.780 -0.7367 -1.4797 -0.9697
 2561TIP3   OH231877   3.577   6.221  18.566 -0.0120  0.3096  0.0151
 2561TIP3    H131878   3.636   6.149  18.545 -2.2355 -1.6453  0.0994
 2561TIP3    H231879   3.569   6.270  18.485  1.3830  0.3967 -0.0947
 2562TIP3   OH231880   4.298   2.669  17.489  0.1033  0.2430  0.4920
 2562TIP3    H131881   4.210   2.651  17.455  0.1608  1.4708 -0.3645
 2562TIP3    H231882   4.308   2.607  17.561 -1.3137 -0.1853  0.3678
 2563TIP3   OH231883   4.343   3.293  16.492  0.0279 -0.1460  0.1029
 2563TIP3    H131884   4.363   3.209  16.452 -1.2312 -0.4770  0.1278
 2563TIP3    H231885   4.247   3.297  16.494  0.0097  1.9521 -1.3304
 2564TIP3   OH231886   3.529   7.387  18.954  0.5864  0.2782 -0.0433
 2564TIP3    H131887   3.591   7.320  18.926  1.1010  1.3816 -1.6820
 2564TIP3    H231888   3.451   7.338  18.979  1.1922 -0.9758 -0.5063
 2565TIP3   OH231889   6.238   6.709  18.339 -0.0189 -0.4051 -0.0987
 2565TIP3    H131890   6.278   6.636  18.291  1.3605 -1.4247  2.4229
 2565TIP3    H231891   6.311   6.767  18.359 -0.6483  0.2438  0.3372
 2566TIP3   OH231892   4.409   1.647  18.996 -0.6739 -0.1733 -0.1072
 2566TIP3    H131893   4.414   1.659  18.901  0.2576  0.6035  0.0282
 2566TIP3    H231894   4.366   1.562  19.007  0.3938 -0.9006 -1.2558
 2567TIP3   OH231895   7.532   6.436  18.780  0.3582 -0.0300 -0.0483
 2567TIP3    H131896   7.462   6.489  18.820  0.4935 -0.3235  0.5931
 2567TIP3    H231897   7.601   6.436  18.846  1.3839  1.1029 -1.0830
 2568TIP3   OH231898   5.570   7.332  18.995  0.0813 -0.1131  0.2145
 2568TIP3    H131899   5.514   7.259  19.022 -0.0841 -0.3077 -0.6218
 2568TIP3    H231900   5.548   7.403  19.056 -1.4098 -0.0411 -0.3618
 2569TIP3   OH231901   7.511   7.147  17.144  0.7190  0.6860  0.3884
 2569TIP3    H131902   7.440   7.082  17.148  1.4282 -0.2774 -1.3319
 2569TIP3    H231903   7.472   7.227  17.180 -0.6851 -0.2614  1.1009
 2570TIP3   OH231904   3.665   2.653  19.389  0.5568 -0.4276  0.6369
 2570TIP3    H131905   3.740   2.598  19.415  1.3963  0.0935 -0.5952
 2570TIP3    H231906   3.677   2.667  19.295 -1.4396 -0.8289  0.2809
 2571TIP3   OH231907   7.140   2.648  18.833 -0.5907  0.4682  0.0545
 2571TIP3    H131908   7.082   2.573  18.845 -0.1390 -0.1568 -1.4210
 2571TIP3    H231909   7.223   2.610  18.805  0.0775  1.4459  0.6502
 2572TIP3   OH231910   0.920   4.475  17.957  0.2365  0.5843 -0.5201
 2572TIP3    H131911   0.904   4.570  17.957  0.9871  0.7368 -1.8597
 2572TIP3    H231912   0.978   4.461  17.883 -0.4528 -1.0371 -0.7961
 2573TIP3   OH231913   6.441   6.863  17.515  0.7182  0.5099  0.2221
 2573TIP3    H131914   6.353   6.865  17.553  0.6539 -0.7203  0.1580
 2573TIP3    H231915   6.428   6.841  17.423  1.1602 -1.3501  0.5568
 2574TIP3   OH231916   0.640   4.122  18.146  0.3317 -0.5052  0.2002
 2574TIP3    H131917   0.632   4.038  18.191 -0.1674 -1.2116 -1.1471
 2574TIP3    H231918   0.722   4.115  18.097  1.0778  0.4103  1.2748
 2575TIP3   OH231919   3.589   3.129  18.171  0.2131 -0.8932  0.8820
 2575TIP3    H131920   3.626   3.216  18.157  0.8421 -1.3516 -0.4886
 2575TIP3    H231921   3.665   3.071  18.172 -0.0916 -1.3140  3.0534
 2576TIP3   OH231922   2.681   7.125  19.498  0.2648 -0.9112  0.2617
 2576TIP3    H131923   2.723   7.148  19.414  0.1948  1.3657  0.8036
 2576TIP3    H231924   2.669   7.208  19.542 -3.5153 -1.6046  0.8148
 2577TIP3   OH231925   3.555   5.196  17.211 -0.0907 -0.2297  0.2005
 2577TIP3    H131926   3.481   5.138  17.229  0.2307 -0.1533  1.8540
 2577TIP3    H231927   3.606   5.149  17.145 -1.3468 -0.4917 -0.6150
 2578TIP3   OH231928   6.785   0.031  18.452 -0.1539 -0.2047  0.4953
 2578TIP3    H131929   6.774  -0.001  18.541  1.4978  0.8845  1.1267
 2578TIP3    H231930   6.820  -0.045  18.404  0.2299 -0.4070  1.0890
 2579TIP3   OH231931   6.482   3.523  19.383 -0.4562 -0.2217  0.5438
 2579TIP3    H131932   6.514   3.573  19.308  1.2917  0.2362  1.5324
 2579TIP3    H231933   6.467   3.588  19.451 -0.6204 -0.7806  1.0539
 2580TIP3   OH231934   0.419   6.115  17.452  0.0783  0.4913  0.1264
 2580TIP3    H131935   0.332   6.140  17.421  0.6882  2.7401  0.0238
 2580TIP3    H231936   0.410   6.025  17.481 -1.6404 -0.2318 -2.3403
 2581TIP3   OH231937   5.794   7.570  18.344 -0.8653 -0.0008 -0.5643
 2581TIP3    H131938   5.805   7.662  18.371 -1.4652  0.4541 -1.7840
 2581TIP3    H231939   5.755   7.527  18.420 -1.9318  1.0859 -0.4706
 2582TIP3   OH231940   4.924   1.036  16.995  0.0074  0.5732 -0.0371
 2582TIP3    H131941   4.976   0.966  17.034 -0.1672 -0.4331 -1.5370
 2582TIP3    H231942   4.913   1.100  17.066  0.6158 -0.6520  1.2146
 2583TIP3   OH231943   5.011   3.343  18.461  0.0646  0.4519 -0.0595
 2583TIP3    H131944   5.062   3.410  18.415 -1.7215  1.8784 -0.0728
 2583TIP3    H231945   5.012   3.371  18.552  0.1134 -0.0486  0.0932
 2584TIP3   OH231946   3.711   4.208  17.398  0.6534 -0.7436 -0.2469
 2584TIP3    H131947   3.660   4.268  17.453  0.3053 -3.0872  2.1446
 2584TIP3    H231948   3.799   4.246  17.396  0.0175  0.8026 -0.4096
 2585TIP3   OH231949   0.062   4.327  19.452 -0.4811 -0.1911 -0.2796
 2585TIP3    H131950   0.019   4.324  19.366  0.1118  0.3046 -0.5979
 2585TIP3    H231951   0.129   4.394  19.443 -2.3712  2.1427  1.4591
 2586TIP3   OH231952   2.727   2.017  18.327  0.4300 -0.2745 -0.2040
 2586TIP3    H131953   2.728   1.979  18.415  3.1344 -0.5944 -0.2733
 2586TIP3    H231954   2.819   2.013  18.298 -0.4782 -1.1315 -3.4611
 2587TIP3   OH231955   2.147   2.223  19.264  0.2290  0.6089  0.2194
 2587TIP3    H131956   2.095   2.149  19.233  0.6889 -0.3486  1.6468
 2587TIP3    H231957   2.149   2.284  19.190 -1.7962  0.0840 -0.3107
 2588TIP3   OH231958   1.231   1.499  18.042  1.0309 -0.0756 -0.2087
 2588TIP3    H131959   1.262   1.495  18.132  1.3993  1.1269 -0.2573
 2588TIP3    H231960   1.200   1.411  18.023  1.0818 -0.3833  1.0426
 2589TIP3   OH231961   2.000   5.414  17.012 -0.0853  0.5681 -0.2726
 2589TIP3    H131962   2.029   5.325  16.990  0.6173  0.7062  0.0806
 2589TIP3    H231963   1.978   5.409  17.105  0.6712  0.9416 -0.0659
 2590TIP3   OH231964   6.694   3.279  18.080  0.4176 -0.2908  0.1457
 2590TIP3    H131965   6.715   3.372  18.085  0.1846 -0.1824 -0.7286
 2590TIP3    H231966   6.668   3.265  17.989 -0.9126 -0.9228  0.5953
 2591TIP3   OH231967   5.672   4.086  18.914 -0.2470  0.1008 -0.2724
 2591TIP3    H131968   5.688   4.011  18.858  0.8166 -0.2293  0.4575
 2591TIP3    H231969   5.645   4.049  18.998 -0.7636  0.5612 -0.2268
 2592TIP3   OH231970   6.923   1.729  17.162  0.0669  0.0452 -0.4453
 2592TIP3    H131971   6.912   1.650  17.109 -0.3982 -1.6923  2.0758
 2592TIP3    H231972   7.016   1.750  17.155  0.4270 -1.4051 -0.2846
 2593TIP3   OH231973   4.494   3.733  19.040 -0.6189  0.0449  0.1787
 2593TIP3    H131974   4.559   3.803  19.045 -0.4671  0.0803 -1.6548
 2593TIP3    H231975   4.415   3.771  19.080 -0.7792  1.5764 -1.4611
 2594TIP3   OH231976   1.729   7.622  18.824  0.0270 -0.2457  0.7757
 2594TIP3    H131977   1.742   7.651  18.914  0.6058 -1.1278  0.9927
 2594TIP3    H231978   1.698   7.532  18.832  0.1492 -0.3547  0.0896
 2595TIP3   OH231979   5.241   6.141  18.191  0.0999  0.5168  0.0974
 2595TIP3    H131980   5.195   6.125  18.109  0.5757 -1.4478  0.1714
 2595TIP3    H231981   5.333   6.121  18.172  0.2541  0.2980  1.0303
 2596TIP3   OH231982   1.543   5.172  19.263  0.6570 -0.0014  0.2647
 2596TIP3    H131983   1.538   5.268  19.271  0.6369 -0.0142  0.4012
 2596TIP3    H231984   1.489   5.152  19.186  1.2959  0.1704 -0.2340
 2597TIP3   OH231985   6.317   4.548  16.956  0.4461  0.5556 -0.1175
 2597TIP3    H131986   6.370   4.597  16.894  2.1811  1.0227  1.6163
 2597TIP3    H231987   6.370   4.472  16.978  0.0032  0.5383  0.9662
 2598TIP3   OH231988   7.648   0.337  17.107 -0.1265  0.6450 -0.2147
 2598TIP3    H131989   7.723   0.305  17.058  0.6578  1.6267  0.2941
 2598TIP3    H231990   7.576   0.338  17.044  0.8925  2.0634 -1.4414
 2599TIP3   OH231991   4.040   4.634  17.224  0.0097 -0.5860 -0.1103
 2599TIP3    H131992   3.965   4.608  17.170 -0.5043 -1.6385  1.0792
 2599TIP3    H231993   4.090   4.693  17.167 -3.0875  2.4359 -0.0623
 2600TIP3   OH231994   1.612   1.392  18.115 -0.2087 -0.2746  0.0275
 2600TIP3    H131995   1.648   1.336  18.184 -1.3798 -1.3527 -0.2078
 2600TIP3    H231996   1.552   1.451  18.159  2.6183  2.4648  0.6426
 2601TIP3   OH231997   5.045   5.320  16.781 -0.4001  0.3159  0.3882
 2601TIP3    H131998   5.039   5.255  16.711  2.1361  0.9438 -0.4922
 2601TIP3    H231999   5.020   5.403  16.739  1.5014  0.7605  0.0583
 2602TIP3   OH232000   3.465   3.671  18.093  0.2781 -0.6258 -0.5364
 2602TIP3    H132001   3.537   3.640  18.038  1.1068 -0.5004  0.4469
 2602TIP3    H232002   3.479   3.628  18.177 -1.0832 -0.9697 -0.4641
 2603TIP3   OH232003   7.444   6.345  16.914 -0.5570  0.0862 -0.0926
 2603TIP3    H132004   7.354   6.319  16.933 -0.8180  0.5005 -0.7449
 2603TIP3    H232005   7.472   6.285  16.845 -0.8835  0.9819 -1.0200
 2604TIP3   OH232006   5.887   0.480  16.541  0.0162 -0.5407 -0.6528
 2604TIP3    H132007   5.899   0.474  16.636  0.4233 -3.8513 -0.8064
 2604TIP3    H232008   5.882   0.574  16.524  0.0773  0.1823  2.6053
 2605TIP3   OH232009   1.851   5.109  18.287  0.0268  0.3875 -0.2059
 2605TIP3    H132010   1.936   5.088  18.326 -0.1327 -0.6003 -0.3631
 2605TIP3    H232011   1.814   5.175  18.346 -0.8591 -2.1228  2.2415
 2606TIP3   OH232012   6.965   6.951  17.349 -0.7144 -0.3380  0.0858
 2606TIP3    H132013   6.911   6.972  17.272 -0.4650  0.3028  0.0826
 2606TIP3    H232014   7.042   6.907  17.313 -0.4701  0.2042 -0.0556
 2607TIP3   OH232015   0.907   5.486  18.825 -0.4536  0.4173  0.2595
 2607TIP3    H132016   0.938   5.460  18.738 -0.6342 -0.7184  0.5152
 2607TIP3    H232017   0.960   5.563  18.847 -0.2629  0.6000 -0.7627
 2608TIP3   OH232018   5.920   2.240  17.067  0.1747 -0.1114  0.1407
 2608TIP3    H132019   5.979   2.290  17.011  0.7987 -0.0970  0.7938
 2608TIP3    H232020   5.969   2.162  17.091 -0.6363 -0.8387 -0.5195
 2609TIP3   OH232021   2.894   5.181  17.276  0.2469 -0.2744  0.1829
 2609TIP3    H132022   2.935   5.164  17.191 -1.3069  0.7925 -0.8189
 2609TIP3    H232023   2.840   5.104  17.293 -3.1961  1.4068 -2.1676
 2610TIP3   OH232024   4.999   4.261  19.370  0.2882  0.2745 -0.2140
 2610TIP3    H132025   5.036   4.349  19.365  0.3146  0.2312 -0.7838
 2610TIP3    H232026   5.053   4.216  19.435  0.2202  0.6991  0.1470
 2611TIP3   OH232027   5.635   4.013  17.872  0.3974  0.4262 -0.1846
 2611TIP3    H132028   5.630   4.106  17.850  1.9775  0.5605 -0.0829
 2611TIP3    H232029   5.672   3.972  17.794 -0.0924 -0.1002 -0.1510
 2612TIP3   OH232030   0.238   4.486  17.208 -0.1956 -0.0282  0.0388
 2612TIP3    H132031   0.201   4.408  17.166  1.2194 -2.3636  2.7860
 2612TIP3    H232032   0.322   4.500  17.163 -0.4109 -0.1394 -0.4022
 2613TIP3   OH232033   5.901   0.316  19.454  0.1016 -0.2548 -0.1537
 2613TIP3    H132034   5.934   0.275  19.374 -0.0715 -1.1259  0.2060
 2613TIP3    H232035   5.925   0.254  19.524 -0.8252 -0.1045  0.3160
 2614TIP3   OH232036   0.838   2.714  17.244 -0.7170  0.2194  0.0255
 2614TIP3    H132037   0.861   2.622  17.234 -0.7263 -0.0395  1.9774
 2614TIP3    H232038   0.765   2.728  17.185  0.8447 -0.3527 -2.1817
 2615TIP3   OH232039   2.327   1.038  18.675 -0.3064  0.2965 -0.3431
 2615TIP3    H132040   2.388   1.108  18.695 -0.7545  0.5332  0.2406
 2615TIP3    H232041   2.261   1.078  18.618  0.2076 -0.0187 -1.1680
 2616TIP3   OH232042   2.816   6.578  18.694 -0.4615  0.1165 -0.2455
 2616TIP3    H132043   2.832   6.621  18.610 -0.2272  0.0916 -0.2129
 2616TIP3    H232044   2.844   6.488  18.681  3.9620  1.0409  1.1527
 2617TIP3   OH232045   0.313   5.949  17.661  0.0648 -0.0791 -0.8493
 2617TIP3    H132046   0.323   5.940  17.756 -0.0437  0.0641 -0.8252
 2617TIP3    H232047   0.241   6.011  17.649  0.1846  0.0282 -1.0239
 2618TIP3   OH232048   1.869   4.582  18.610 -0.1127 -0.5337  0.3399
 2618TIP3    H132049   1.887   4.640  18.684  0.2687  0.9618 -0.8858
 2618TIP3    H232050   1.899   4.496  18.640  0.2138  0.0600  1.8390
 2619TIP3   OH232051   5.914   4.563  18.656 -0.5044  0.2484 -0.0914
 2619TIP3    H132052   5.996   4.534  18.615  0.0062  0.6293  0.6340
 2619TIP3    H232053   5.891   4.643  18.609 -0.9327 -0.3170 -0.8723
 2620TIP3   OH232054   3.925   5.936  17.492  0.3743 -0.4695 -0.0038
 2620TIP3    H132055   3.986   5.920  17.420  1.3901 -3.5416  1.3736
 2620TIP3    H232056   3.977   5.981  17.558  0.3492 -0.5452  0.0681
 2621TIP3   OH232057   7.168   1.667  17.592  0.2163  0.2626  0.0829
 2621TIP3    H132058   7.162   1.762  17.580  0.6347  0.2876  0.0722
 2621TIP3    H232059   7.213   1.655  17.676  2.5898  0.0858 -1.1374
 2622TIP3   OH232060   7.343   7.030  16.787  0.0087 -0.7429 -0.4559
 2622TIP3    H132061   7.420   7.036  16.732 -0.5069 -0.3840 -1.1554
 2622TIP3    H232062   7.319   7.121  16.805  1.1443 -0.8205  1.7817
 2623TIP3   OH232063   5.196   7.652  18.061 -0.8401  0.0091 -0.3494
 2623TIP3    H132064   5.152   7.712  18.000 -1.9866  1.2378  1.5548
 2623TIP3    H232065   5.146   7.571  18.055 -0.3461 -0.2107 -1.7070
 2624TIP3   OH232066   3.423   4.355  18.875  0.2165  0.4718  0.1402
 2624TIP3    H132067   3.332   4.342  18.902 -0.4297  1.2723 -1.4710
 2624TIP3    H232068   3.446   4.276  18.827 -0.1832  0.9046 -0.7885
 2625TIP3   OH232069   7.450   7.591  18.086  0.1021  0.3263  0.8824
 2625TIP3    H132070   7.399   7.622  18.161 -1.6076  1.9779 -0.8781
 2625TIP3    H232071   7.439   7.658  18.019  1.5324 -1.1101 -0.9167
 2626TIP3   OH232072   5.528   3.816  17.393  0.0492 -0.1703 -0.1278
 2626TIP3    H132073   5.582   3.823  17.315 -2.2359  1.0194 -1.7139
 2626TIP3    H232074   5.459   3.753  17.369 -0.4547 -0.1049  1.0615
 2627TIP3   OH232075   4.157   2.320  17.972  0.3376  0.0409 -0.2539
 2627TIP3    H132076   4.233   2.349  18.022  0.1312 -2.4331  1.6771
 2627TIP3    H232077   4.123   2.400  17.931  2.0505  1.7428  1.4552
 2628TIP3   OH232078   5.197   2.978  18.894 -0.5657  0.2200  0.2188
 2628TIP3    H132079   5.189   3.073  18.898 -1.5720  0.1859 -0.7100
 2628TIP3    H232080   5.125   2.946  18.948  1.5237 -0.0495  3.0929
 2629TIP3   OH232081   3.822   2.234  18.779 -0.8733  0.2802  0.1193
 2629TIP3    H132082   3.801   2.327  18.780  0.2993  0.5848 -1.0208
 2629TIP3    H232083   3.910   2.229  18.742 -0.3855 -1.1982  1.3585
 2630TIP3   OH232084   1.722   5.446  19.516 -0.5238  0.3495  0.0084
 2630TIP3    H132085   1.793   5.507  19.495 -1.8081  1.9332  0.0398
 2630TIP3    H232086   1.767   5.368  19.548  1.2164  1.0452 -0.5767
 2631TIP3   OH232087   4.059   7.222  18.834  0.9569 -0.3999 -0.0227
 2631TIP3    H132088   4.039   7.284  18.903 -0.6888 -0.4303 -0.4224
 2631TIP3    H232089   4.095   7.275  18.763  1.7702 -0.2446  0.4957
 2632TIP3   OH232090   2.413   4.869  17.762 -0.6741 -0.3690 -0.1102
 2632TIP3    H132091   2.422   4.890  17.669  1.1603 -0.0997  0.0921
 2632TIP3    H232092   2.328   4.825  17.768 -1.3385  0.5749 -1.7220
 2633TIP3   OH232093   4.922   2.085  18.110 -0.0875  0.2186  0.0750
 2633TIP3    H132094   4.905   2.134  18.030 -1.4766  1.2000  0.9240
 2633TIP3    H232095   4.983   2.139  18.160 -0.7012  0.5363  0.4951
 2634TIP3   OH232096   6.498   1.441  19.021 -0.7166 -0.2003  0.3029
 2634TIP3    H132097   6.413   1.397  19.027 -0.8815  0.3224  2.2135
 2634TIP3    H232098   6.535   1.435  19.109  1.1715 -0.2652 -0.4566
 2635TIP3   OH232099   2.381   4.774  17.135  0.7577 -0.1451 -0.5884
 2635TIP3    H132100   2.325   4.851  17.127  0.8102  0.0245  0.4735
 2635TIP3    H232101   2.423   4.765  17.050 -0.0728  0.3579 -1.0635
 2636TIP3   OH232102   4.080   0.727  19.248 -0.5795 -0.3208  0.4018
 2636TIP3    H132103   4.073   0.655  19.185  0.6283  0.6043 -0.8433
 2636TIP3    H232104   4.144   0.696  19.312 -1.4300 -1.0612  0.9186
 2637TIP3   OH232105   2.139   2.677  18.125 -0.0846  0.2508  0.2532
 2637TIP3    H132106   2.187   2.597  18.146  0.9767  0.7629 -0.1386
 2637TIP3    H232107   2.063   2.676  18.183 -0.5275 -1.4346 -0.3207
 2638TIP3   OH232108   6.583   0.266  17.981  0.0215 -0.3393  0.1123
 2638TIP3    H132109   6.490   0.254  17.961  0.1366  0.3837 -0.9130
 2638TIP3    H232110   6.615   0.177  17.996 -0.1707 -0.9558 -2.5976
 2639TIP3   OH232111   0.788   2.818  19.268 -0.1423 -0.7737 -0.3546
 2639TIP3    H132112   0.707   2.772  19.249 -0.0812 -0.8920 -0.3290
 2639TIP3    H232113   0.855   2.772  19.217 -0.1832 -0.3405 -0.8104
 2640TIP3   OH232114   1.345   2.435  17.107 -0.1783 -0.1219 -0.1477
 2640TIP3    H132115   1.369   2.342  17.104  1.5668  0.2622  0.5043
 2640TIP3    H232116   1.273   2.439  17.170  0.8346 -0.8659  1.1165
 2641TIP3   OH232117   0.669   1.485  17.507 -0.5208 -0.2891  0.4835
 2641TIP3    H132118   0.607   1.417  17.535  0.8531 -2.5763 -1.6444
 2641TIP3    H232119   0.629   1.523  17.429  0.6936 -1.9089 -1.0144
 2642TIP3   OH232120   3.579   1.078  17.503 -0.1233 -0.1977 -0.0535
 2642TIP3    H132121   3.631   1.053  17.580 -1.7522  0.4483  1.3301
 2642TIP3    H232122   3.633   1.142  17.457  0.5153  0.1163  1.0922
 2643TIP3   OH232123   5.473   0.006  17.905 -0.2855  0.7227  0.6544
 2643TIP3    H132124   5.412  -0.002  17.978  1.5488 -2.2362  2.0173
 2643TIP3    H232125   5.426  -0.034  17.831 -0.3637 -0.6855  1.4449
 2644TIP3   OH232126   2.075   5.392  17.866 -0.1401 -0.3115  1.0272
 2644TIP3    H132127   2.163   5.402  17.831 -0.3792  0.7086  0.6972
 2644TIP3    H232128   2.049   5.303  17.840  0.4892 -0.3342  0.4535
 2645TIP3   OH232129   5.059   2.098  19.422 -0.1265 -0.1876  0.4281
 2645TIP3    H132130   5.133   2.117  19.481 -0.4756  0.3685  0.7009
 2645TIP3    H232131   5.097   2.101  19.334  0.0168  0.9775  0.5094
 2646TIP3   OH232132   7.023   4.079  18.278 -0.3048  0.1573 -0.5206
 2646TIP3    H132133   6.982   4.070  18.192 -0.5000 -1.4047 -0.2936
 2646TIP3    H232134   6.950   4.096  18.338 -0.3286 -0.0406 -0.4912
 2647TIP3   OH232135   6.663   7.069  19.259  0.6543  0.2482  0.1419
 2647TIP3    H132136   6.628   7.101  19.342  0.2442  0.7540 -0.2179
 2647TIP3    H232137   6.753   7.102  19.256  0.9118 -0.3801  0.7065
 2648TIP3   OH232138   3.836   6.789  18.987  0.0629  0.1091  0.1348
 2648TIP3    H132139   3.784   6.859  19.028 -0.2792 -0.4258  0.6230
 2648TIP3    H232140   3.869   6.829  18.906  0.2017  0.9661  0.5975
 2649TIP3   OH232141   1.708   2.365  18.536  0.3471 -0.2073 -0.1834
 2649TIP3    H132142   1.631   2.418  18.557  0.5269  0.1280 -0.3554
 2649TIP3    H232143   1.782   2.425  18.544  0.4717 -0.2086 -1.2152
 2650TIP3   OH232144   3.548   5.208  18.826 -0.3254 -0.4161  0.0844
 2650TIP3    H132145   3.475   5.269  18.814  0.7651  1.0481  0.5411
 2650TIP3    H232146   3.602   5.220  18.748 -0.6031 -1.5764 -0.3086
 2651TIP3   OH232147   7.580   7.646  17.174  0.0783 -0.2187 -0.0252
 2651TIP3    H132148   7.587   7.685  17.087 -0.6980 -0.1495 -0.0641
 2651TIP3    H232149   7.654   7.681  17.223 -1.2687  2.3105  0.3364
 2652TIP3   OH232150   3.177   5.077  18.398 -0.1577  0.0067  0.0703
 2652TIP3    H132151   3.184   4.989  18.363  0.1300  0.6781 -1.6642
 2652TIP3    H232152   3.095   5.078  18.447  0.3388 -1.4812  0.9808
 2653TIP3   OH232153   3.787   0.078  18.515  0.1365 -0.0322 -0.1023
 2653TIP3    H132154   3.877   0.093  18.487 -0.0448 -0.9172 -1.2215
 2653TIP3    H232155   3.737   0.149  18.474  0.3922  0.8873  1.1029
 2654TIP3   OH232156   0.313   5.924  18.953  0.3245 -0.1524 -0.4316
 2654TIP3    H132157   0.282   6.014  18.960 -0.4796 -0.2420 -2.3266
 2654TIP3    H232158   0.401   5.926  18.988 -0.7856  0.6764  2.6395
 2655TIP3   OH232159   0.892   1.321  18.911  0.1645 -0.2157  0.0903
 2655TIP3    H132160   0.851   1.243  18.876 -2.2307  0.7921  0.4923
 2655TIP3    H232161   0.862   1.325  19.002  0.4967  0.9952  0.1665
 2656TIP3   OH232162   4.476   5.206  17.867  0.1913  0.4369 -0.1342
 2656TIP3    H132163   4.407   5.270  17.851  0.4829  0.5882 -0.8011
 2656TIP3    H232164   4.484   5.203  17.962  1.1343  2.4368 -0.1035
 2657TIP3   OH232165   1.527   5.209  17.860  0.2520  0.2441 -0.1622
 2657TIP3    H132166   1.530   5.212  17.955 -0.8852  1.2087 -0.1412
 2657TIP3    H232167   1.446   5.161  17.840  0.6781 -0.2857 -0.6447
 2658TIP3   OH232168   0.672   5.583  17.998  0.6950  0.0189  0.2040
 2658TIP3    H132169   0.581   5.605  18.021 -0.4593 -2.7243 -1.2762
 2658TIP3    H232170   0.717   5.577  18.083 -0.5150  1.2342  0.9852
 2659TIP3   OH232171   0.568   5.935  18.173 -0.0552 -0.1033 -0.4448
 2659TIP3    H132172   0.623   5.990  18.228 -0.7979  1.1538 -0.9183
 2659TIP3    H232173   0.587   5.845  18.202  1.4469  0.3591  0.0970
 2660TIP3   OH232174   2.929   4.474  18.564 -0.0746  0.3193  0.5632
 2660TIP3    H132175   2.998   4.482  18.498  0.5453 -2.2319  0.8000
 2660TIP3    H232176   2.853   4.442  18.516 -0.5760  1.3786  0.6156
 2661TIP3   OH232177   7.557   5.575  19.516  0.0111  0.1277  0.4492
 2661TIP3    H132178   7.467   5.603  19.503 -0.1750 -0.4909  0.3505
 2661TIP3    H232179   7.549   5.485  19.549  0.5347  0.7291  2.3406
 2662TIP3   OH232180   1.219   2.108  16.947  0.3320  0.2749  0.2325
 2662TIP3    H132181   1.242   2.174  16.882  1.0982  0.3869  0.6090
 2662TIP3    H232182   1.236   2.024  16.904  1.8273  0.3550  0.6207
 2663TIP3   OH232183   6.550   4.090  18.502  0.2198  0.4957 -0.3127
 2663TIP3    H132184   6.564   4.039  18.582 -0.4188  2.2830  0.9976
 2663TIP3    H232185   6.456   4.107  18.501  0.2422  0.6238 -1.3900
 2664TIP3   OH232186   6.136   7.085  17.642 -0.4792  0.6603 -0.0238
 2664TIP3    H132187   6.043   7.071  17.659 -0.4975  0.5082 -0.2575
 2664TIP3    H232188   6.168   7.127  17.722 -0.1205 -1.9090  1.2977
 2665TIP3   OH232189   3.865   1.606  18.274  0.2355  0.3375 -0.8141
 2665TIP3    H132190   3.784   1.627  18.229  0.2740  3.3015  0.2971
 2665TIP3    H232191   3.871   1.670  18.345  2.5196 -1.1196  0.4462
 2666TIP3   OH232192   2.817   7.203  19.259 -0.1966 -0.3264 -0.1585
 2666TIP3    H132193   2.765   7.231  19.184  0.7680  2.7352  0.1926
 2666TIP3    H232194   2.902   7.178  19.222  0.0559  0.5387 -0.1824
 2667TIP3   OH232195   5.202   4.885  18.067 -0.4901 -0.0928 -0.0756
 2667TIP3    H132196   5.200   4.886  18.163  0.2686  1.0299 -0.0562
 2667TIP3    H232197   5.243   4.967  18.043 -0.5350 -0.4294 -1.3762
 2668TIP3   OH232198   4.858   5.627  17.860  0.0882 -0.0576 -0.2430
 2668TIP3    H132199   4.867   5.554  17.798  0.8618 -0.2109  0.0353
 2668TIP3    H232200   4.908   5.599  17.937 -3.1241 -1.1088  1.6341
 2669TIP3   OH232201   7.393   1.669  19.315 -0.0547 -0.0774  0.0887
 2669TIP3    H132202   7.484   1.697  19.315  0.1232 -0.5129  2.2536
 2669TIP3    H232203   7.343   1.750  19.324  0.1615  0.0777 -0.0996
 2670TIP3   OH232204   6.121   4.892  19.239 -0.0283  0.1140  0.6755
 2670TIP3    H132205   6.081   4.937  19.166  0.8254  1.0316  0.7558
 2670TIP3    H232206   6.154   4.810  19.202 -0.5158  0.0975  0.2708
 2671TIP3   OH232207   0.020   1.398  17.671 -0.1701 -0.2550  0.0004
 2671TIP3    H132208   0.021   1.454  17.593 -3.3359  0.5048  0.3684
 2671TIP3    H232209   0.062   1.450  17.739  1.0045 -0.2192 -0.7188
 2672TIP3   OH232210   6.808   3.051  17.480  0.7066  0.1656 -0.1227
 2672TIP3    H132211   6.862   2.998  17.422  0.3411  2.1005 -2.4075
 2672TIP3    H232212   6.868   3.080  17.549  1.3624 -1.5338  0.0554
 2673TIP3   OH232213   2.456   0.893  19.002  0.2913  0.0466 -0.5537
 2673TIP3    H132214   2.482   0.804  18.980 -0.1296 -0.1006 -0.4593
 2673TIP3    H232215   2.421   0.887  19.091  0.2867  0.3108 -0.5357
 2674TIP3   OH232216   1.330   2.105  19.078 -0.5030  0.2057  0.1474
 2674TIP3    H132217   1.342   2.096  18.984 -0.7887  1.9472 -0.0866
 2674TIP3    H232218   1.414   2.140  19.110 -0.5083 -0.0979  0.5041
 2675TIP3   OH232219   6.375   0.441  16.664 -0.6330 -0.1848 -0.6703
 2675TIP3    H132220   6.299   0.383  16.661 -0.8994  0.1726 -1.3187
 2675TIP3    H232221   6.341   0.526  16.633 -0.2898  0.3575  0.4008
 2676TIP3   OH232222   4.703   6.760  18.977 -0.5414  0.0531  0.2145
 2676TIP3    H132223   4.698   6.853  18.999  0.3147  0.3264 -0.7000
 2676TIP3    H232224   4.612   6.734  18.962 -0.6597  1.1329 -1.0978
 2677TIP3   OH232225   6.687   1.730  17.952  0.0766 -0.0497  0.8243
 2677TIP3    H132226   6.651   1.681  17.878 -2.1506  0.8180  1.2552
 2677TIP3    H232227   6.781   1.736  17.933  0.5234 -4.1899  0.6230
 2678TIP3   OH232228   6.830   6.806  19.308 -0.5495 -0.5353  0.3106
 2678TIP3    H132229   6.913   6.760  19.321 -0.5545 -0.3297  1.1423
 2678TIP3    H232230   6.854   6.893  19.279 -0.4603 -0.4528  0.6205
 2679TIP3   OH232231   1.859   5.387  17.277 -0.2962 -0.1210  0.3536
 2679TIP3    H132232   1.897   5.367  17.362  0.3078 -0.3180  0.0429
 2679TIP3    H232233   1.785   5.444  17.296 -0.9862 -1.2467  1.1124
 2680TIP3   OH232234   6.745   2.636  19.028  0.2721  0.7358 -0.1319
 2680TIP3    H132235   6.778   2.723  19.050  2.1974  0.2961 -1.0847
 2680TIP3    H232236   6.728   2.639  18.934  1.1806 -0.1513 -0.3411
 2681TIP3   OH232237   1.526   5.461  17.098  0.4387 -0.1601 -0.9692
 2681TIP3    H132238   1.558   5.505  17.177  0.6004 -0.8411 -0.6447
 2681TIP3    H232239   1.435   5.489  17.089 -1.1165 -3.4229  2.0166
 2682TIP3   OH232240   2.446   7.541  17.553 -0.4892 -0.3916 -1.1215
 2682TIP3    H132241   2.495   7.605  17.605 -1.1084 -0.2192 -0.7382
 2682TIP3    H232242   2.506   7.467  17.544 -0.8405 -1.0450  1.1025
 2683TIP3   OH232243   3.516   6.803  17.689  0.4776 -0.0090  0.2720
 2683TIP3    H132244   3.565   6.796  17.771  1.0728 -1.6976 -0.1763
 2683TIP3    H232245   3.582   6.788  17.620  0.1783  2.3302 -0.5986
 2684TIP3   OH232246   7.349   4.618  17.354  0.2178  0.1594  0.4614
 2684TIP3    H132247   7.264   4.598  17.317  0.4445 -0.3218  0.1824
 2684TIP3    H232248   7.411   4.570  17.299  0.4610 -1.7464  2.2517
 2685TIP3   OH232249   2.692   0.088  18.953  0.0462  0.2188 -0.0455
 2685TIP3    H132250   2.700   0.052  19.041  2.7189 -0.7592 -0.5822
 2685TIP3    H232251   2.765   0.150  18.945  0.4497 -0.4146 -1.8358
 2686TIP3   OH232252   6.114   5.794  18.177  0.3112  0.5778 -0.3659
 2686TIP3    H132253   6.089   5.760  18.091 -0.5516 -1.1333  0.5274
 2686TIP3    H232254   6.105   5.889  18.168 -2.1801  0.3143 -1.4476
 2687TIP3   OH232255   2.956   2.318  17.280  0.3141  0.2413  0.0476
 2687TIP3    H132256   2.992   2.355  17.200  2.0727 -1.0351  0.1890
 2687TIP3    H232257   2.896   2.385  17.314  0.5718  1.3445 -1.5989
 2688TIP3   OH232258   2.439   7.472  19.338 -0.3892  0.1858  0.1859
 2688TIP3    H132259   2.423   7.378  19.337 -0.8329  0.2454  0.7966
 2688TIP3    H232260   2.360   7.509  19.377 -2.0533  1.1989 -3.7355
 2689TIP3   OH232261   4.678   5.817  17.897  0.1287  0.0268 -0.2062
 2689TIP3    H132262   4.703   5.876  17.968  0.4698 -0.6796  0.2704
 2689TIP3    H232263   4.747   5.751  17.895 -0.1903 -0.2963 -0.8106
 2690TIP3   OH232264   2.228   1.960  17.944  0.1653 -0.6484  0.3684
 2690TIP3    H132265   2.279   1.890  17.985 -2.2857 -1.5202  2.2719
 2690TIP3    H232266   2.226   2.029  18.010  0.0390 -0.0824 -0.2253
 2691TIP3   OH232267   7.020   0.657  17.383  0.6467 -0.3462  0.4760
 2691TIP3    H132268   6.959   0.613  17.443  0.3911  0.4094  0.7774
 2691TIP3    H232269   6.986   0.746  17.373  1.7403  0.1249  0.7143
 2692TIP3   OH232270   4.355   0.674  18.061  0.5778  0.9746  0.0935
 2692TIP3    H132271   4.349   0.591  18.109 -1.3199  0.0876 -1.5260
 2692TIP3    H232272   4.422   0.658  17.994 -1.0320  0.0056 -1.3891
 2693TIP3   OH232273   7.312   1.565  18.082  0.3280  0.2194 -0.4216
 2693TIP3    H132274   7.305   1.649  18.128  4.4939  0.6347 -0.1717
 2693TIP3    H232275   7.254   1.506  18.130 -0.0832  2.1013  1.5467
 2694TIP3   OH232276   1.985   2.817  18.590 -0.2501  0.0498 -0.1159
 2694TIP3    H132277   2.077   2.793  18.598 -0.9114 -2.3772  1.6324
 2694TIP3    H232278   1.983   2.884  18.522  2.7892  0.2807 -0.1185
 2695TIP3   OH232279   5.336   2.363  18.345  0.2361  0.1468  0.1510
 2695TIP3    H132280   5.320   2.429  18.413 -0.7095  1.1870 -1.0293
 2695TIP3    H232281   5.261   2.372  18.286  2.2053  1.0170 -2.3712
 2696TIP3   OH232282   7.679   3.009  17.535 -0.0757 -0.4034 -0.6452
 2696TIP3    H132283   7.628   3.010  17.454 -1.7124 -0.0341  0.3429
 2696TIP3    H232284   7.770   3.016  17.506 -0.3403 -3.1012 -2.6180
 2697TIP3   OH232285   4.914   4.586  18.527 -0.4593  0.3685 -0.4851
 2697TIP3    H132286   4.883   4.564  18.439  1.2445  0.9178 -1.2509
 2697TIP3    H232287   4.967   4.511  18.553 -0.2083  0.6045 -0.3139
 2698TIP3   OH232288   7.072   1.850  18.513  0.6106 -0.2855  0.2051
 2698TIP3    H132289   6.977   1.850  18.524  0.5616  0.9699 -0.0711
 2698TIP3    H232290   7.106   1.804  18.590 -0.1347  0.7894  1.2008
 2699TIP3   OH232291   6.229   3.653  18.278 -0.0700  0.1895 -0.4226
 2699TIP3    H132292   6.166   3.619  18.215  1.3556 -0.7552 -1.3652
 2699TIP3    H232293   6.303   3.592  18.275  0.8336  1.1651  0.7865
 2700TIP3   OH232294   0.224   3.792  19.248  0.1975 -0.1537 -0.4123
 2700TIP3    H132295   0.274   3.782  19.328 -0.4000 -0.1949 -0.0380
 2700TIP3    H232296   0.177   3.875  19.259 -0.1215 -0.3074 -0.5820
 2701TIP3   OH232297   0.848   3.747  19.075  0.5241 -0.3737  0.1179
 2701TIP3    H132298   0.766   3.789  19.101  1.0104  1.2621 -0.8731
 2701TIP3    H232299   0.834   3.654  19.093 -1.7013 -0.1941 -0.4511
 2702TIP3   OH232300   4.600   3.022  17.629 -0.0180 -0.1447 -0.6373
 2702TIP3    H132301   4.589   3.098  17.571  0.0574 -0.3352 -0.9016
 2702TIP3    H232302   4.513   2.981  17.631 -0.6073  1.0767  1.1020
 2703TIP3   OH232303   5.881   1.251  16.867 -0.5708 -0.0928  0.0962
 2703TIP3    H132304   5.906   1.159  16.878 -0.4575  0.0489  1.0520
 2703TIP3    H232305   5.950   1.301  16.910 -0.0664  0.5050 -1.3464
 2704TIP3   OH232306   6.395   2.224  17.970 -0.2773 -0.4864  0.7485
 2704TIP3    H132307   6.477   2.246  18.015  0.7921  0.1043 -1.3977
 2704TIP3    H232308   6.403   2.131  17.950 -1.6077 -1.2753  3.3137
 2705TIP3   OH232309   6.076   0.706  17.498 -0.6755  0.0099 -0.5859
 2705TIP3    H132310   5.982   0.709  17.519 -0.6954 -1.1401 -0.4633
 2705TIP3    H232311   6.080   0.657  17.416 -0.1092 -0.7851 -0.0931
 2706TIP3   OH232312   2.150   0.622  16.844 -0.4533 -0.2919 -0.1667
 2706TIP3    H132313   2.130   0.684  16.774 -0.0288  2.0258  1.6558
 2706TIP3    H232314   2.064   0.592  16.875 -0.6594 -0.6446 -1.0536
 2707TIP3   OH232315   3.353   4.501  19.463  0.1051 -0.3514 -0.1123
 2707TIP3    H132316   3.352   4.558  19.386  0.2367 -1.5373 -1.0211
 2707TIP3    H232317   3.446   4.492  19.484  0.0577  0.1480  0.3387
 2708TIP3   OH232318   4.929   3.609  18.876 -0.4361  0.0209  0.4162
 2708TIP3    H132319   5.011   3.657  18.871 -1.4906  1.8050 -0.5779
 2708TIP3    H232320   4.948   3.525  18.834  0.6243  0.8021 -0.7292
 2709TIP3   OH232321   3.627   5.344  18.378 -0.4121 -0.7706  0.2750
 2709TIP3    H132322   3.689   5.293  18.431 -0.6972 -1.0809  0.3146
 2709TIP3    H232323   3.611   5.289  18.301 -0.2089 -0.4427 -0.0037
 2710TIP3   OH232324   5.529   5.777  17.536  0.4564  0.8437  0.5921
 2710TIP3    H132325   5.458   5.731  17.582  0.5318 -0.9032 -0.9066
 2710TIP3    H232326   5.609   5.738  17.572  0.6346  1.7798  1.2429
 2711TIP3   OH232327   5.042   1.036  18.892 -0.1846 -0.1840 -0.0669
 2711TIP3    H132328   5.040   0.953  18.845  0.5894 -0.0634 -0.3174
 2711TIP3    H232329   4.980   1.091  18.845  0.6515 -0.0329 -1.0244
 2712TIP3   OH232330   0.108   3.192  18.361 -0.0564 -0.0609  0.6904
 2712TIP3    H132331   0.104   3.098  18.342  1.3533 -0.5151  2.3650
 2712TIP3    H232332   0.192   3.204  18.405 -0.9377  1.6910  2.0393
 2713TIP3   OH232333   4.018   1.530  17.275 -0.2282 -0.2480 -0.3172
 2713TIP3    H132334   4.103   1.551  17.235 -0.2805 -0.0904 -0.3421
 2713TIP3    H232335   4.009   1.436  17.261 -0.6780 -0.0457 -1.5056
 2714TIP3   OH232336   0.683   4.479  17.008  0.2833  0.0179 -0.3293
 2714TIP3    H132337   0.679   4.509  16.918  1.8250  1.9186  0.1638
 2714TIP3    H232338   0.632   4.543  17.058  0.6889 -0.1517  0.3186
 2715TIP3   OH232339   5.345   1.262  17.390  0.2287  0.2279  0.6053
 2715TIP3    H132340   5.287   1.209  17.336  1.5743 -0.5831 -0.1037
 2715TIP3    H232341   5.341   1.222  17.476  0.5263 -0.4715  0.3018
 2716TIP3   OH232342   2.140   6.931  16.780  0.5616  0.2724 -0.5892
 2716TIP3    H132343   2.108   6.984  16.853 -0.2925  0.3162 -0.9804
 2716TIP3    H232344   2.225   6.970  16.758  0.2194  1.1065 -0.4851
 2717TIP3   OH232345   0.430   3.233  19.177  0.3514 -0.0924  0.2403
 2717TIP3    H132346   0.401   3.145  19.203  0.5898 -0.4957 -0.8049
 2717TIP3    H232347   0.349   3.278  19.150  0.3346 -0.2750 -0.0164
 2718TIP3   OH232348   6.708   6.888  17.933  0.1214  0.1395  0.1261
 2718TIP3    H132349   6.643   6.871  17.864 -0.0285 -0.3340  0.3750
 2718TIP3    H232350   6.678   6.834  18.006 -0.6685  1.8893  1.1608
 2719TIP3   OH232351   1.364   7.138  18.618  0.1385 -0.0536 -0.0969
 2719TIP3    H132352   1.311   7.202  18.571  2.2849  1.1855 -0.9708
 2719TIP3    H232353   1.317   7.055  18.607 -2.9796  1.3646  1.5034
 2720TIP3   OH232354   7.365   6.913  19.749  0.6507 -0.1161 -0.4058
 2720TIP3    H132355   7.396   6.847  19.811  1.3005  0.0750 -0.5248
 2720TIP3    H232356   7.377   6.873  19.663  1.8775  0.4789 -0.5313
 2721TIP3   OH232357   2.763   4.219  18.166  0.0372  0.0205  0.0460
 2721TIP3    H132358   2.855   4.193  18.157  0.0193  0.3707 -1.3066
 2721TIP3    H232359   2.716   4.159  18.109 -0.6620 -0.4734  1.1029
 2722TIP3   OH232360   2.503   4.706  19.003 -0.4341  0.2977 -0.2083
 2722TIP3    H132361   2.464   4.765  18.938 -0.3123  0.9264  0.2819
 2722TIP3    H232362   2.545   4.764  19.066 -0.2391 -0.3219  0.2405
 2723TIP3   OH232363   2.583   2.296  18.539  0.8396 -0.5335  0.2813
 2723TIP3    H132364   2.525   2.243  18.484  1.4007 -2.2440  1.2726
 2723TIP3    H232365   2.654   2.322  18.482 -1.2967  2.5373 -1.2823
 2724TIP3   OH232366   5.837   4.224  18.421 -0.1000  0.2469  0.3283
 2724TIP3    H132367   5.864   4.136  18.448  0.2079 -0.2662 -1.5233
 2724TIP3    H232368   5.765   4.209  18.360 -0.1910  1.3027  0.1659
 2725TIP3   OH232369   0.532   3.161  17.508  0.4023  0.0578 -0.7079
 2725TIP3    H132370   0.448   3.173  17.552 -0.3074 -0.2071 -1.9403
 2725TIP3    H232371   0.556   3.070  17.527  0.2416  0.0299 -0.6391
 2726TIP3   OH232372   7.650   0.717  16.871 -0.0923 -0.0378 -0.0802
 2726TIP3    H132373   7.635   0.804  16.833 -1.1387  0.1123  0.6168
 2726TIP3    H232374   7.562   0.678  16.876  0.5072 -1.7811 -1.8245
 2727TIP3   OH232375   6.913   7.481  18.312  0.2835  0.4174 -0.2333
 2727TIP3    H132376   6.969   7.454  18.385 -2.1002  1.1681  2.0443
 2727TIP3    H232377   6.886   7.399  18.271 -0.2849 -0.2246  1.3336
 2728TIP3   OH232378   2.394   4.113  19.309 -0.6625  1.0397 -0.0825
 2728TIP3    H132379   2.380   4.020  19.327 -1.0334  1.2215  0.5850
 2728TIP3    H232380   2.487   4.127  19.327 -0.0557  0.3472 -2.2631
 2729TIP3   OH232381   5.620   6.912  19.426 -0.1458 -0.0778 -0.1790
 2729TIP3    H132382   5.528   6.884  19.420 -0.6254  1.4228 -0.2106
 2729TIP3    H232383   5.670   6.836  19.395 -1.3700 -0.9220 -0.1682
 2730TIP3   OH232384   0.307   0.134  18.052  0.4859 -0.6315  0.3661
 2730TIP3    H132385   0.293   0.159  18.144 -0.0685 -1.9856  0.6729
 2730TIP3    H232386   0.219   0.127  18.016  0.7111  0.4535 -0.4587
 2731TIP3   OH232387   1.750   1.733  16.476  0.4029  0.3305  0.3490
 2731TIP3    H132388   1.805   1.658  16.499  0.2097 -0.6863 -2.1496
 2731TIP3    H232389   1.666   1.694  16.452  0.0633  1.4154 -0.2783
 2732TIP3   OH232390   5.825   3.344  17.429 -0.3384  0.4730  0.3395
 2732TIP3    H132391   5.913   3.383  17.431  0.1260 -0.5199  0.0327
 2732TIP3    H232392   5.784   3.380  17.351  0.3495 -0.1666 -0.3391
 2733TIP3   OH232393   7.467   0.865  17.660 -0.1565  0.0140 -0.3386
 2733TIP3    H132394   7.435   0.887  17.748  1.1672 -0.0612  0.1927
 2733TIP3    H232395   7.501   0.948  17.626 -0.1386 -0.0746 -0.5345
 2734TIP3   OH232396   7.027   0.046  19.526  0.0339  0.1726  0.2746
 2734TIP3    H132397   7.119   0.050  19.503  0.3506  0.0363  1.4614
 2734TIP3    H232398   7.020  -0.029  19.586 -0.7211  0.5841  0.7177
 2735TIP3   OH232399   4.432   7.580  18.702  0.7058  0.1625  0.0690
 2735TIP3    H132400   4.393   7.586  18.615  0.0208  0.5086  0.3920
 2735TIP3    H232401   4.422   7.488  18.727 -1.7680  0.6127  0.9664
 2736TIP3   OH232402   2.038   0.805  19.273  0.4198 -0.1005  0.1353
 2736TIP3    H132403   2.005   0.890  19.243  0.7541  0.0679  0.2371
 2736TIP3    H232404   1.959   0.753  19.291  0.1976 -0.2346 -1.0986
 2737TIP3   OH232405   6.569   2.593  18.323  0.5875 -0.1701 -0.4068
 2737TIP3    H132406   6.570   2.516  18.380 -0.2322 -2.0650 -2.7731
 2737TIP3    H232407   6.658   2.629  18.331  0.3588  0.0300  2.3837
 2738TIP3   OH232408   0.735   2.812  17.501 -0.1972  0.7936  0.1762
 2738TIP3    H132409   0.642   2.817  17.479 -0.0957 -0.2366 -0.5504
 2738TIP3    H232410   0.777   2.780  17.422  1.1114  3.2515 -0.2155
 2739TIP3   OH232411   3.961   1.366  16.976 -0.4376 -0.3529 -0.1129
 2739TIP3    H132412   3.884   1.329  16.932 -0.3731  0.3888 -0.8691
 2739TIP3    H232413   3.965   1.320  17.060 -0.3057 -2.1247 -1.0439
 2740TIP3   OH232414   5.806   0.384  18.821 -0.2465  0.0527 -0.6679
 2740TIP3    H132415   5.759   0.383  18.737 -0.3620 -1.3347 -0.6236
 2740TIP3    H232416   5.898   0.393  18.797 -0.2917 -0.1938 -0.9405
 2741TIP3   OH232417   4.261   1.261  17.823 -0.1885  0.0114  0.3079
 2741TIP3    H132418   4.227   1.269  17.733  2.2358  0.0163 -0.6661
 2741TIP3    H232419   4.276   1.351  17.851  2.9889 -0.0084 -0.9545
 2742TIP3   OH232420   0.503   4.543  19.652  0.0250 -0.0280 -0.0038
 2742TIP3    H132421   0.437   4.563  19.718  0.9155  0.4649  0.7639
 2742TIP3    H232422   0.454   4.540  19.570 -0.9798  0.1240  0.5632
 2743TIP3   OH232423   3.707   1.132  18.021  0.0369 -0.1280  0.3410
 2743TIP3    H132424   3.731   1.176  17.940  0.8617 -0.7179  0.2524
 2743TIP3    H232425   3.723   1.197  18.089 -0.1305  0.1862  0.0815
 2744TIP3   OH232426   0.005   6.557  17.780  0.4343  0.1054 -0.3963
 2744TIP3    H132427   0.063   6.583  17.709  1.6794  2.0003  1.2354
 2744TIP3    H232428  -0.016   6.638  17.826  0.8798 -1.1695  2.2822
 2745TIP3   OH232429   6.835   3.642  18.718  0.5156 -0.3498  0.0993
 2745TIP3    H132430   6.813   3.646  18.625  0.8539 -1.1317 -0.0177
 2745TIP3    H232431   6.804   3.557  18.747 -1.7658  0.7760  1.2932
 2746TIP3   OH232432   3.561   4.691  18.480 -0.3708 -0.3927  0.7648
 2746TIP3    H132433   3.533   4.714  18.391 -0.1449 -1.4675  0.4048
 2746TIP3    H232434   3.505   4.618  18.505  0.2498 -0.7510  1.1219
 2747TIP3   OH232435   6.320   3.478  19.064  0.0329  0.5301  0.2129
 2747TIP3    H132436   6.251   3.525  19.018  0.3377  1.4128  0.6462
 2747TIP3    H232437   6.349   3.538  19.133  1.1669  0.1387  0.0990
 2748TIP3   OH232438   1.356   6.824  17.702  0.3792 -0.8380  0.0133
 2748TIP3    H132439   1.402   6.907  17.708  2.3929 -1.8032 -1.1811
 2748TIP3    H232440   1.421   6.758  17.725 -0.7575 -2.1778 -0.4725
 2749TIP3   OH232441   3.221   0.687  18.257 -0.0072 -0.4807 -0.0213
 2749TIP3    H132442   3.263   0.662  18.175 -0.3510  2.5352 -1.2679
 2749TIP3    H232443   3.143   0.736  18.230  0.1142  1.0018  2.0349
 2750TIP3   OH232444   4.923   6.399  17.959 -0.3125  0.6559 -0.1374
 2750TIP3    H132445   4.952   6.395  17.868  2.2877 -1.2468  0.6609
 2750TIP3    H232446   4.911   6.308  17.985 -1.9249  1.1953  1.1944
 2751TIP3   OH232447   3.301   3.732  17.660 -0.4273 -0.1366  0.2627
 2751TIP3    H132448   3.389   3.736  17.697 -1.1178 -2.0615  2.3282
 2751TIP3    H232449   3.307   3.662  17.594 -0.1523  0.5851 -0.5006
 2752TIP3   OH232450   7.128   6.652  19.630 -0.0035  0.1068 -0.4787
 2752TIP3    H132451   7.111   6.671  19.537 -0.3425 -1.0095 -0.6584
 2752TIP3    H232452   7.088   6.725  19.677 -2.9871 -1.0006 -1.0396
 2753TIP3   OH232453   1.567   1.487  19.050  0.7726 -0.4292  0.2879
 2753TIP3    H132454   1.475   1.463  19.034  0.4117  1.3375 -0.5809
 2753TIP3    H232455   1.589   1.444  19.132 -1.4582  0.5936  1.5120
 2754TIP3   OH232456   2.615   7.249  18.092 -0.2124 -0.4910  0.3234
 2754TIP3    H132457   2.568   7.330  18.078  0.3333 -0.1230  0.5700
 2754TIP3    H232458   2.648   7.255  18.182  0.5789 -0.5796  0.0544
 2755TIP3   OH232459   4.496   2.399  19.040 -0.7856 -0.4918 -0.0912
 2755TIP3    H132460   4.439   2.464  18.998 -0.2726 -0.9768 -1.6096
 2755TIP3    H232461   4.439   2.355  19.102 -1.1766  1.3093  0.9146
 2756TIP3   OH232462   6.385   7.073  19.714 -0.3144  0.1911 -0.3705
 2756TIP3    H132463   6.423   6.989  19.688  1.0554 -0.4326  3.0112
 2756TIP3    H232464   6.460   7.132  19.722 -0.8724  0.8441  0.2052
 2757TIP3   OH232465   7.434   6.345  19.215 -0.0998  0.4546  0.1186
 2757TIP3    H132466   7.468   6.338  19.304  0.1646 -1.2463 -0.0795
 2757TIP3    H232467   7.480   6.420  19.177  2.0019 -0.5642  0.4878
 2758TIP3   OH232468   7.335   1.906  18.171 -0.7505 -0.3992 -0.2727
 2758TIP3    H132469   7.253   1.856  18.171 -0.5592 -0.7118  0.5476
 2758TIP3    H232470   7.359   1.911  18.078 -1.8544 -0.0426 -0.5607
 2759TIP3   OH232471   3.847   0.430  17.607  0.1166 -0.0904  0.5298
 2759TIP3    H132472   3.754   0.419  17.589 -0.0904  1.0214  0.8373
 2759TIP3    H232473   3.852   0.440  17.702  0.6805 -1.2028  0.6345
 2760TIP3   OH232474   3.812   7.462  19.209  0.0309 -0.0002 -0.1449
 2760TIP3    H132475   3.728   7.506  19.192 -1.9763 -3.2427  0.6286
 2760TIP3    H232476   3.839   7.494  19.295  0.1904  1.8343 -0.8290
 2761TIP3   OH232477   4.204   0.438  17.862 -0.3730 -0.2900 -0.7119
 2761TIP3    H132478   4.273   0.442  17.795  1.0565  1.4885  0.7711
 2761TIP3    H232479   4.149   0.514  17.845 -0.2191 -0.0380 -0.0961
 2762TIP3   OH232480   6.006   3.338  17.957 -0.2096 -0.1303 -0.2903
 2762TIP3    H132481   6.073   3.290  18.005 -1.8258 -0.6074  1.6078
 2762TIP3    H232482   5.952   3.269  17.916 -0.7092  0.1606 -0.1330
 2763TIP3   OH232483   5.652   5.155  18.708  0.7977 -0.2485  0.4970
 2763TIP3    H132484   5.660   5.066  18.742 -1.2207 -1.2053 -1.3503
 2763TIP3    H232485   5.622   5.144  18.618 -0.9815  2.3315  0.6852
 2764TIP3   OH232486   1.020   6.709  17.714 -0.0753 -0.4305  0.4490
 2764TIP3    H132487   1.057   6.744  17.794 -2.0407  3.2554 -0.0476
 2764TIP3    H232488   0.930   6.683  17.737  0.1831 -1.8770 -0.0329
 2765TIP3   OH232489   3.356   1.226  16.944  0.2497 -0.1918 -0.0727
 2765TIP3    H132490   3.282   1.258  16.893  0.2096 -0.4377 -0.1709
 2765TIP3    H232491   3.357   1.131  16.928 -0.2152 -0.3806  0.9772
 2766TIP3   OH232492   2.530   0.639  18.863  0.1043 -0.2809  0.0200
 2766TIP3    H132493   2.492   0.680  18.785  1.8614 -0.0050 -0.7323
 2766TIP3    H232494   2.614   0.605  18.834  1.6640  1.4354  2.1583
 2767TIP3   OH232495   6.216   1.019  18.526  0.3590 -0.7651 -0.2488
 2767TIP3    H132496   6.283   1.084  18.503  0.2641 -0.8203 -0.6872
 2767TIP3    H232497   6.134   1.069  18.525  0.5820 -0.2600  2.1267
 2768TIP3   OH232498   3.440   2.272  18.377  0.4360 -0.0283  0.3674
 2768TIP3    H132499   3.424   2.186  18.337 -0.7696  0.0185  0.7108
 2768TIP3    H232500   3.414   2.260  18.469  2.6849 -0.0020  1.0768
 2769TIP3   OH232501   4.387   2.087  17.045 -0.4229  0.1328 -0.2329
 2769TIP3    H132502   4.348   2.003  17.071 -2.5887  0.2215 -2.6914
 2769TIP3    H232503   4.447   2.065  16.974 -0.4616  0.5699 -0.4065
 2770TIP3   OH232504   0.089   6.551  17.080  0.3527  0.1551 -0.1765
 2770TIP3    H132505   0.054   6.633  17.045 -0.3270 -0.1729 -0.2855
 2770TIP3    H232506   0.182   6.552  17.056  0.3464  0.8851 -0.1885
 2771TIP3   OH232507   5.359   6.890  18.639  0.0133 -0.2982 -0.4517
 2771TIP3    H132508   5.357   6.831  18.714 -0.1485  0.9861  0.5805
 2771TIP3    H232509   5.377   6.832  18.564  1.1334 -1.4937  0.6733
 2772TIP3   OH232510   1.391   6.701  19.017  0.5869  0.1151 -0.0755
 2772TIP3    H132511   1.347   6.782  18.992 -1.6171 -0.8939  0.3215
 2772TIP3    H232512   1.361   6.683  19.105 -1.8978 -2.9373 -1.3723
 2773TIP3   OH232513   5.254   4.590  17.334 -0.1758 -0.2530  0.2541
 2773TIP3    H132514   5.272   4.673  17.289  0.2826  0.0326  0.9384
 2773TIP3    H232515   5.159   4.590  17.347 -0.1880  0.1336  0.1930
 2774TIP3   OH232516   5.169   4.193  19.592 -0.0098 -0.1585 -0.4927
 2774TIP3    H132517   5.263   4.214  19.586 -0.1087 -0.0327 -1.8408
 2774TIP3    H232518   5.166   4.097  19.587  0.1085 -0.2533  0.8076
 2775TIP3   OH232519   3.732   6.466  18.644  1.0574 -0.5682 -0.7303
 2775TIP3    H132520   3.807   6.430  18.597  0.1077 -3.2524 -0.3687
 2775TIP3    H232521   3.659   6.411  18.617 -0.1499 -0.0905  1.3711
 2776TIP3   OH232522   7.460   7.015  17.616  0.0136  0.1274 -0.6988
 2776TIP3    H132523   7.550   7.023  17.585  0.7301 -1.0410  0.9934
 2776TIP3    H232524   7.464   7.035  17.709 -1.4270 -0.3108 -0.5147
 2777TIP3   OH232525   2.956   2.803  19.162 -0.4184  0.0370 -0.4396
 2777TIP3    H132526   3.025   2.762  19.214  0.1217  1.2903 -0.1374
 2777TIP3    H232527   2.984   2.791  19.071  0.8025  1.5190 -0.2863
 2778TIP3   OH232528   6.186   1.792  17.858 -0.3498  0.2780 -0.2721
 2778TIP3    H132529   6.100   1.820  17.827 -0.1984  1.0228 -0.0259
 2778TIP3    H232530   6.207   1.852  17.929  1.3274  1.5309 -1.7333
 2779TIP3   OH232531   1.279   1.103  19.030  0.0685  0.0700 -0.1043
 2779TIP3    H132532   1.269   1.145  18.945  0.8058 -0.7589 -0.6188
 2779TIP3    H232533   1.300   1.012  19.010 -1.3487 -0.5371  0.9800
 2780TIP3   OH232534   1.759   3.212  17.781  0.4685 -0.7375 -0.1129
 2780TIP3    H132535   1.808   3.228  17.701  0.0680 -0.6749 -0.3485
 2780TIP3    H232536   1.671   3.244  17.762  1.0225  1.8473  1.2820
 2781TIP3   OH232537   2.733   3.829  18.600  0.0886 -0.7576 -0.0275
 2781TIP3    H132538   2.647   3.855  18.565 -0.8950 -1.5819  1.6149
 2781TIP3    H232539   2.757   3.901  18.659  0.3505 -0.7173 -0.1817
 2782TIP3   OH232540   6.742   2.611  18.742 -0.5857 -0.1776 -0.0612
 2782TIP3    H132541   6.797   2.566  18.678 -0.5598  1.1071 -0.9572
 2782TIP3    H232542   6.662   2.558  18.746 -0.1573 -0.8647 -0.3341
 2783TIP3   OH232543   4.281   0.306  19.242  0.0573  0.1408  0.4466
 2783TIP3    H132544   4.335   0.227  19.238  0.3405  0.3662 -0.2998
 2783TIP3    H232545   4.191   0.274  19.230  0.2578  0.0246 -0.8453
 2784TIP3   OH232546   5.652   5.522  17.504 -0.3680 -0.6235  0.0102
 2784TIP3    H132547   5.707   5.576  17.448  0.9031 -1.3616  0.4945
 2784TIP3    H232548   5.568   5.517  17.459  0.1884 -0.0569 -1.1197
 2785TIP3   OH232549   0.688   6.237  16.797 -1.2181 -0.4378  0.6186
 2785TIP3    H132550   0.735   6.304  16.746 -2.2061 -0.1457  0.0683
 2785TIP3    H232551   0.632   6.288  16.856 -0.7646 -0.7862  1.3736
 2786TIP3   OH232552   5.661   5.773  19.269  0.7210  0.1294 -0.2293
 2786TIP3    H132553   5.695   5.831  19.200  0.8906 -0.9448 -1.0765
 2786TIP3    H232554   5.608   5.709  19.222  0.3019 -0.2343  0.7222
 2787TIP3   OH232555   3.740   4.419  19.152 -0.2706 -0.1224  0.3245
 2787TIP3    H132556   3.737   4.470  19.071 -0.9117  2.0272  1.6369
 2787TIP3    H232557   3.683   4.344  19.135  0.6527 -0.4382 -1.6484
 2788TIP3   OH232558   6.964   0.402  18.022 -0.2391 -0.0412  0.2565
 2788TIP3    H132559   7.019   0.364  18.090 -1.2165  0.7217  1.5132
 2788TIP3    H232560   6.977   0.344  17.946 -0.1410 -1.7132  1.4832
 2789TIP3   OH232561   3.303   7.521  18.209 -0.6026  0.3162  0.1036
 2789TIP3    H132562   3.323   7.535  18.117 -0.1083  1.4326  0.3719
 2789TIP3    H232563   3.276   7.607  18.242  0.8865  0.3441  1.3979
 2790TIP3   OH232564   1.036   6.758  19.073 -0.3005 -0.4785 -0.1611
 2790TIP3    H132565   1.096   6.780  19.002 -0.0247 -0.8447 -0.0449
 2790TIP3    H232566   0.989   6.840  19.092 -1.0110 -0.5880 -1.3567
 2791TIP3   OH232567   3.281   0.443  18.036  0.2713  0.1486 -0.7780
 2791TIP3    H132568   3.192   0.467  18.012 -0.0427 -0.5308 -0.3234
 2791TIP3    H232569   3.332   0.523  18.022 -0.5000  0.6926 -0.5546
 2792TIP3   OH232570   5.634   1.771  17.743  0.1189  0.0331 -0.0993
 2792TIP3    H132571   5.563   1.755  17.680  0.7170  1.4187 -1.2018
 2792TIP3    H232572   5.589   1.796  17.824 -0.6583 -0.7257 -0.2774
 2793TIP3   OH232573   1.252   5.731  17.586 -0.2964  0.0498  0.2261
 2793TIP3    H132574   1.293   5.812  17.617 -1.0440  1.4001 -2.1112
 2793TIP3    H232575   1.252   5.673  17.663  1.7905  1.6282  1.4987
 2794TIP3   OH232576   5.130   2.601  18.101 -0.2340 -0.6538 -0.2332
 2794TIP3    H132577   5.042   2.638  18.099  0.4000  0.9970 -2.6601
 2794TIP3    H232578   5.135   2.548  18.022  0.5750 -1.7398  0.5230
 2795TIP3   OH232579   4.609   3.511  19.191 -0.0785  0.5814  0.7280
 2795TIP3    H132580   4.625   3.559  19.110 -1.1736  0.2377  0.2826
 2795TIP3    H232581   4.602   3.578  19.258  0.5868  0.8870  0.4967
 2796TIP3   OH232582   1.095   7.099  18.736  0.1742 -0.4388 -0.4183
 2796TIP3    H132583   1.099   7.146  18.652 -2.1112 -0.2099 -0.4712
 2796TIP3    H232584   1.013   7.128  18.775  1.3437 -0.2801  2.1063
 2797TIP3   OH232585   1.276   0.476  19.279 -0.4231  0.3516 -0.7737
 2797TIP3    H132586   1.201   0.503  19.225 -0.7617  1.4264  0.1812
 2797TIP3    H232587   1.306   0.394  19.240 -3.0521 -0.9363 -0.2975
 2798TIP3   OH232588   0.721   2.001  17.831  0.0029 -0.3263  0.1977
 2798TIP3    H132589   0.748   1.911  17.846 -0.1781 -0.5268 -0.5927
 2798TIP3    H232590   0.679   2.028  17.913  1.6528 -0.3339  1.0870
 2799TIP3   OH232591   6.078   4.227  19.413  0.3849 -0.5520 -0.6141
 2799TIP3    H132592   6.044   4.315  19.394  2.9748  0.3568 -1.4542
 2799TIP3    H232593   6.038   4.171  19.347 -1.2553 -0.0459 -0.1084
 2800TIP3   OH232594   6.053   2.044  17.707  0.4498  0.0073 -0.1252
 2800TIP3    H132595   5.958   2.047  17.721  0.5518  0.9535  0.4237
 2800TIP3    H232596   6.087   2.117  17.758  1.4340 -0.0492 -0.6840
 2801TIP3   OH232597   4.060   1.536  18.857 -0.1040 -0.2031 -0.4231
 2801TIP3    H132598   4.149   1.502  18.849  0.9999  2.0049  1.2832
 2801TIP3    H232599   4.043   1.579  18.774  0.4552 -0.5750 -0.7380
 2802TIP3   OH232600   5.260   2.996  18.041 -0.2624 -0.0619 -0.1632
 2802TIP3    H132601   5.204   3.061  17.999 -1.0238 -0.3176  0.4207
 2802TIP3    H232602   5.212   2.972  18.121  2.2329  2.2104  2.2347
 2803TIP3   OH232603   2.135   1.170  19.238 -0.4185  0.3958  0.3139
 2803TIP3    H132604   2.092   1.154  19.322 -1.8040  0.0813 -0.4202
 2803TIP3    H232605   2.099   1.103  19.180 -0.0111  1.0339 -0.6995
 2804TIP3   OH232606   4.532   6.212  18.967  0.0992  0.5777  0.1433
 2804TIP3    H132607   4.592   6.163  19.023  0.3092  2.2814  1.4895
 2804TIP3    H232608   4.588   6.255  18.903 -0.0046 -0.2484 -0.5160
 2805TIP3   OH232609   3.385   6.798  18.616 -0.4008  0.0426 -0.0710
 2805TIP3    H132610   3.438   6.765  18.688  0.0606 -0.6435 -0.7223
 2805TIP3    H232611   3.412   6.748  18.540 -0.3326  1.2965 -0.8994
 2806TIP3   OH232612   4.695   4.931  18.157  0.2402  0.3492  0.1564
 2806TIP3    H132613   4.671   5.023  18.149  1.2713  0.5260 -1.2604
 2806TIP3    H232614   4.660   4.890  18.078 -0.6040 -0.5869  0.9894
 2807TIP3   OH232615   3.612   1.740  18.222  0.1930 -0.2518 -0.0256
 2807TIP3    H132616   3.567   1.711  18.301  0.9684  0.4098  0.6753
 2807TIP3    H232617   3.554   1.715  18.151 -0.4024 -1.0839  0.7326
 2808TIP3   OH232618   1.244   6.234  17.552 -0.2902  0.3111  0.1504
 2808TIP3    H132619   1.213   6.236  17.461 -0.3195 -1.1281  0.1009
 2808TIP3    H232620   1.198   6.306  17.595 -0.8298  0.5563 -0.8087
 2809TIP3   OH232621   3.659   6.983  19.062 -0.2909  0.2823  0.5904
 2809TIP3    H132622   3.716   7.055  19.086 -1.0084  1.1700 -0.2703
 2809TIP3    H232623   3.586   6.987  19.124 -0.3901  0.3774  0.4688
 2810TIP3   OH232624   0.262   2.573  19.489  0.0910  0.3700  0.5268
 2810TIP3    H132625   0.245   2.598  19.580  0.3166 -1.0133  0.9749
 2810TIP3    H232626   0.354   2.593  19.475  0.1715  0.1433  0.7447
 2811TIP3   OH232627   4.631   7.293  16.952  0.2444  0.2860 -0.6069
 2811TIP3    H132628   4.713   7.284  17.000  0.1628  0.7955 -0.3598
 2811TIP3    H232629   4.653   7.271  16.862 -0.0203 -2.6746 -0.0457
 2812TIP3   OH232630   4.444   1.852  17.415  0.1413  0.3629 -0.0299
 2812TIP3    H132631   4.498   1.865  17.337 -0.7949 -1.2096 -0.9758
 2812TIP3    H232632   4.375   1.917  17.408  0.2982  0.5045 -0.2771
 2813TIP3   OH232633   3.943   5.576  17.873 -0.6458  0.1243 -0.1300
 2813TIP3    H132634   4.017   5.516  17.882 -0.2501  0.6256 -0.0058
 2813TIP3    H232635   3.929   5.582  17.778  0.6832  1.4681 -0.2754
 2814TIP3   OH232636   6.254   2.866  18.733 -0.3129 -0.5793  0.1660
 2814TIP3    H132637   6.343   2.860  18.768 -0.7155  1.3155  1.6722
 2814TIP3    H232638   6.249   2.953  18.694 -1.1370 -1.1571 -1.0855
 2815TIP3   OH232639   6.462   2.548  18.780 -0.1048 -0.4854 -0.0848
 2815TIP3    H132640   6.410   2.521  18.856 -0.6133  0.1319 -0.2062
 2815TIP3    H232641   6.398   2.558  18.709  0.2521 -0.2098 -0.3703
 2816TIP3   OH232642   5.405   1.390  19.116 -0.1740 -0.2310 -0.1224
 2816TIP3    H132643   5.342   1.333  19.072  0.2451 -0.3702 -0.5425
 2816TIP3    H232644   5.489   1.371  19.074 -0.0768  0.9019 -0.4689
 2817TIP3   OH232645   2.699   7.267  19.017 -0.1301 -0.2177 -0.2198
 2817TIP3    H132646   2.671   7.354  19.043  1.6518 -0.3376  2.4334
 2817TIP3    H232647   2.734   7.279  18.928  0.1671  1.7999  0.1206
 2818TIP3   OH232648   2.793   5.612  19.006  0.2297 -0.3806 -0.2623
 2818TIP3    H132649   2.786   5.524  19.043 -0.6885  0.3307  1.4195
 2818TIP3    H232650   2.886   5.623  18.986  1.0286 -0.5277  2.8339
 2819TIP3   OH232651   5.638   2.602  17.251 -0.1692  0.9896  0.1905
 2819TIP3    H132652   5.644   2.628  17.159  0.3342  1.9501  0.4766
 2819TIP3    H232653   5.663   2.509  17.252 -1.6537  0.5641 -0.8161
 2820TIP3   OH232654   2.820   6.369  19.153  0.1759  0.0110  0.2842
 2820TIP3    H132655   2.914   6.359  19.166  0.1385  1.5334  2.0773
 2820TIP3    H232656   2.801   6.458  19.182 -1.6523  0.1662 -1.1941
 2821TIP3   OH232657   0.759   2.827  19.549  0.4480 -0.0354 -0.0142
 2821TIP3    H132658   0.798   2.820  19.462 -1.4691  1.6116 -1.1109
 2821TIP3    H232659   0.748   2.921  19.562  0.5878 -0.2692  1.9854
 2822TIP3   OH232660   7.662   2.985  18.164  0.0511  0.4911  0.4396
 2822TIP3    H132661   7.656   2.932  18.243  3.0324 -0.5381  0.0861
 2822TIP3    H232662   7.643   2.924  18.093  1.3574  0.3818  0.1622
 2823TIP3   OH232663   4.940   2.858  17.985  0.0759  0.0499 -0.3334
 2823TIP3    H132664   4.890   2.936  18.011  2.3131  1.6111 -0.4397
 2823TIP3    H232665   4.925   2.795  18.055 -0.1755  1.3340  0.7947
 2824TIP3   OH232666   6.128   7.650  19.244  0.1824 -0.0669  0.2897
 2824TIP3    H132667   6.047   7.636  19.195  1.0433  0.7355 -1.4564
 2824TIP3    H232668   6.142   7.568  19.291 -0.9761 -0.6695 -0.3724
 2825TIP3   OH232669   3.515   7.619  18.376 -0.5046 -0.2449 -0.0408
 2825TIP3    H132670   3.543   7.678  18.307 -1.9626  0.8272  0.2426
 2825TIP3    H232671   3.476   7.545  18.330  0.1524 -0.3872 -0.3762
 2826TIP3   OH232672   2.006   1.593  16.612  0.2481  0.0060 -0.1272
 2826TIP3    H132673   2.050   1.654  16.671 -1.6825  1.3829 -0.0268
 2826TIP3    H232674   2.075   1.566  16.550  1.3610  1.6303  0.3299
 2827TIP3   OH232675   0.551   2.880  16.821  0.5044  0.0279 -0.6467
 2827TIP3    H132676   0.627   2.935  16.836  1.1166 -0.3684 -2.1283
 2827TIP3    H232677   0.519   2.904  16.734 -0.8061 -0.1225 -0.2411
 2828TIP3   OH232678   5.349   0.374  18.663  0.1219  0.1762  0.1090
 2828TIP3    H132679   5.399   0.428  18.602  1.2844  1.6866  2.2835
 2828TIP3    H232680   5.294   0.437  18.711  0.5137 -0.7048  1.7791
 2829TIP3   OH232681   1.365   1.314  19.202  0.2205 -0.1666  0.7795
 2829TIP3    H132682   1.327   1.262  19.131 -0.7839  0.7566  0.6211
 2829TIP3    H232683   1.449   1.271  19.220 -1.6013 -3.3908  2.3907
 2830TIP3   OH232684   7.042   2.205  16.802  0.4832  0.4828 -0.1321
 2830TIP3    H132685   6.992   2.216  16.721 -2.1157  1.5994  1.5124
 2830TIP3    H232686   7.062   2.294  16.830  0.4464  0.1495  0.9919
 2831TIP3   OH232687   4.902   0.167  18.408  0.5815  0.1571 -0.5010
 2831TIP3    H132688   4.926   0.203  18.323 -2.0151 -0.8465 -1.7738
 2831TIP3    H232689   4.806   0.168  18.408  0.5047 -0.3342  2.2276
 2832TIP3   OH232690   6.431   1.304  19.327 -0.5844  0.3200 -0.2262
 2832TIP3    H132691   6.369   1.292  19.255 -0.1690  0.0544 -0.5411
 2832TIP3    H232692   6.422   1.396  19.351  0.5049  0.8509 -1.7477
 2833TIP3   OH232693   1.396   0.084  17.540  0.4575 -0.2386 -0.3207
 2833TIP3    H132694   1.359   0.172  17.554  1.7640  0.7513 -2.5372
 2833TIP3    H232695   1.399   0.046  17.628 -0.3019  1.8621  0.7079
 2834TIP3   OH232696   0.465   6.909  17.367 -0.2434  0.7411  0.1853
 2834TIP3    H132697   0.500   6.995  17.342 -0.9405  1.3500  1.2082
 2834TIP3    H232698   0.526   6.878  17.434  0.2192  0.2597 -0.4552
 2835TIP3   OH232699   5.918   5.239  19.466 -0.3616 -0.3415 -0.2121
 2835TIP3    H132700   5.925   5.161  19.411  2.6007 -1.3694  1.4355
 2835TIP3    H232701   5.852   5.217  19.531 -2.4009  0.1153 -2.0225
 2836TIP3   OH232702   2.862   0.408  18.548  0.0453 -0.3004 -0.0355
 2836TIP3    H132703   2.946   0.453  18.537  0.0601 -0.3782 -0.2345
 2836TIP3    H232704   2.880   0.339  18.611 -0.3817  1.0854  1.6884
 2837TIP3   OH232705   3.298   5.032  17.269 -0.0722  0.1004 -0.2658
 2837TIP3    H132706   3.254   4.985  17.339 -1.5152  0.0676 -1.1596
 2837TIP3    H232707   3.322   4.965  17.205 -1.5701  0.4589 -1.2486
 2838TIP3   OH232708   7.050   2.745  18.557  0.3492  0.6115  0.1888
 2838TIP3    H132709   7.093   2.753  18.642  0.5657 -1.4699  0.3338
 2838TIP3    H232710   7.110   2.691  18.505 -0.6375  0.2783 -0.6366
 2839TIP3   OH232711   5.547   7.585  19.101  0.6798 -0.0515  0.2759
 2839TIP3    H132712   5.627   7.639  19.103 -0.1033  1.1415  0.0866
 2839TIP3    H232713   5.503   7.606  19.183 -0.9611  1.6791 -0.9851
 2840TIP3   OH232714   1.356   5.077  18.162 -0.1128  0.7330 -0.1373
 2840TIP3    H132715   1.443   5.071  18.122 -0.0218 -0.0623  0.1514
 2840TIP3    H232716   1.303   5.014  18.115 -0.8102  1.8816 -0.9417
 2841TIP3   OH232717   2.774   0.281  17.839 -0.8502 -0.3571 -0.8996
 2841TIP3    H132718   2.854   0.236  17.813  0.1520  0.6864  0.2368
 2841TIP3    H232719   2.747   0.238  17.920  0.6706  1.5917  0.7493
 2842TIP3   OH232720   2.857   6.849  17.321 -0.3457  0.1838 -0.2506
 2842TIP3    H132721   2.814   6.930  17.293  1.2101  1.8792  1.9097
 2842TIP3    H232722   2.860   6.856  17.416 -1.7729 -3.3351  0.1965
 2843TIP3   OH232723   4.493   4.862  17.610  0.0751 -0.3957  0.4688
 2843TIP3    H132724   4.513   4.921  17.537  1.1902 -1.5403 -0.1746
 2843TIP3    H232725   4.453   4.786  17.569 -0.2414 -0.6141  1.1674
 2844TIP3   OH232726   5.100   4.799  19.242 -0.2093 -0.6676  0.1389
 2844TIP3    H132727   5.098   4.894  19.256  3.1826 -0.4876  0.2672
 2844TIP3    H232728   5.052   4.785  19.161 -2.3347  0.8726  1.0385
 2845TIP3   OH232729   5.119   5.896  17.151 -0.0727 -0.3156 -0.6608
 2845TIP3    H132730   5.028   5.909  17.178 -0.2418 -0.6595 -1.0463
 2845TIP3    H232731   5.128   5.948  17.071 -0.7453 -2.3874 -2.1998
 2846TIP3   OH232732   0.651   6.710  16.646  0.2964 -0.0927 -1.1774
 2846TIP3    H132733   0.662   6.776  16.578  0.1929  0.0961 -1.0108
 2846TIP3    H232734   0.558   6.711  16.667  0.6332  1.4463  0.5418
 2847TIP3   OH232735   2.235   5.484  17.265  0.6942  0.2604 -0.1742
 2847TIP3    H132736   2.246   5.505  17.172  1.2046 -0.7565 -0.3660
 2847TIP3    H232737   2.302   5.535  17.310 -0.3478  1.6993 -0.2130
 2848TIP3   OH232738   4.573   1.881  17.866 -0.1628 -0.2121  0.1922
 2848TIP3    H132739   4.571   1.961  17.918  1.4695  1.2650 -1.8550
 2848TIP3    H232740   4.481   1.860  17.851 -0.6449  1.8835 -0.0433
 2849TIP3   OH232741   4.430   5.392  19.110 -0.1089 -0.0926  0.3721
 2849TIP3    H132742   4.398   5.466  19.161 -1.0164 -0.2612  0.0568
 2849TIP3    H232743   4.394   5.315  19.153  1.1915 -0.4023  0.9623
 2850TIP3   OH232744   4.867   2.674  18.184  0.1389 -1.0127  0.7691
 2850TIP3    H132745   4.901   2.615  18.252  1.8099  0.3481  1.1721
 2850TIP3    H232746   4.772   2.674  18.198  0.3517 -1.5589  2.4527
 2851TIP3   OH232747   1.090   7.359  17.501 -0.3099  0.4238  0.1696
 2851TIP3    H132748   1.149   7.284  17.495 -0.5754  0.1841  0.5026
 2851TIP3    H232749   1.140   7.431  17.463 -0.0991  0.0520 -0.2706
 2852TIP3   OH232750   2.312   6.102  18.965 -0.1591 -0.6537  0.1649
 2852TIP3    H132751   2.374   6.080  18.895 -0.0815  1.4392 -0.4861
 2852TIP3    H232752   2.362   6.157  19.025 -1.1276  0.3586  0.0769
 2853TIP3   OH232753   7.411   6.817  19.509 -0.2276  0.0577 -0.1007
 2853TIP3    H132754   7.501   6.847  19.495  0.0228 -1.4884 -2.2346
 2853TIP3    H232755   7.367   6.833  19.426 -1.2575 -1.4239  0.1238
 2854TIP3   OH232756   7.181   1.253  18.799 -0.3629  0.8781  0.2061
 2854TIP3    H132757   7.191   1.205  18.881  2.5343  0.3166 -0.3373
 2854TIP3    H232758   7.127   1.196  18.744  0.0173 -0.0689  0.7964
 2855TIP3   OH232759   1.508   3.098  18.001  0.2207 -0.0947 -0.3392
 2855TIP3    H132760   1.459   3.062  18.075 -1.3033  1.8029 -0.3596
 2855TIP3    H232761   1.441   3.125  17.939  1.3710  0.9625 -1.1682
 2856TIP3   OH232762   3.728   1.900  19.095 -0.2184 -0.2019 -0.5918
 2856TIP3    H132763   3.801   1.855  19.053 -0.3127 -0.0970 -0.8645
 2856TIP3    H232764   3.765   1.982  19.127  0.2470 -0.9603  0.9424
 2857TIP3   OH232765   5.405   0.341  19.109 -0.1147 -0.0286  0.0213
 2857TIP3    H132766   5.443   0.336  19.197 -0.9557  0.9294  0.4546
 2857TIP3    H232767   5.330   0.281  19.111  0.0261 -0.2161 -0.1438
 2858TIP3   OH232768   2.389   7.637  18.961 -0.5602  0.2661  0.1441
 2858TIP3    H132769   2.368   7.563  18.904  0.2780 -0.9007  1.2857
 2858TIP3    H232770   2.471   7.612  19.003 -0.6163  1.5532  1.0709
 2859TIP3   OH232771   6.409   2.218  18.612 -0.0004  0.8846  0.6016
 2859TIP3    H132772   6.411   2.187  18.703 -0.4192 -1.9071 -0.2414
 2859TIP3    H232773   6.323   2.260  18.603 -0.5890 -0.1662  1.1291
 2860TIP3   OH232774   4.438   1.779  18.736 -0.0707  0.4654 -0.0400
 2860TIP3    H132775   4.502   1.833  18.689 -1.0092  0.9804 -0.7401
 2860TIP3    H232776   4.374   1.753  18.670 -1.4582  1.2598  0.9307
 2861TIP3   OH232777   3.230   3.862  19.414  0.1509 -0.1556  0.6237
 2861TIP3    H132778   3.156   3.854  19.354  1.1075  1.1547 -0.7873
 2861TIP3    H232779   3.306   3.832  19.364  1.0201  1.2649  1.0264
 2862TIP3   OH232780   1.982   7.061  18.615 -0.1836  0.2055 -0.1009
 2862TIP3    H132781   1.937   7.017  18.543 -1.6003  1.2034  0.1383
 2862TIP3    H232782   1.972   7.154  18.597  1.5131  0.4860  0.1626
 2863TIP3   OH232783   6.388   5.635  17.100 -0.0686 -0.3986  0.0464
 2863TIP3    H132784   6.317   5.617  17.038 -2.0346 -1.9343  2.5308
 2863TIP3    H232785   6.468   5.616  17.051 -1.3323  0.8084 -2.6947
 2864TIP3   OH232786   0.186   7.367  18.003 -0.8570 -0.1710  0.1720
 2864TIP3    H132787   0.253   7.421  17.961 -1.0777 -0.0302  0.0048
 2864TIP3    H232788   0.233   7.288  18.030 -0.9766 -0.8358 -1.4702
 2865TIP3   OH232789   0.001   4.764  19.381 -0.3176  0.0241  0.0902
 2865TIP3    H132790   0.090   4.746  19.352  0.1324 -1.6639  2.2370
 2865TIP3    H232791  -0.028   4.838  19.328  1.8710 -0.2269 -1.5587
 2866TIP3   OH232792   4.714   7.003  18.765  0.1062  0.2397  0.3328
 2866TIP3    H132793   4.727   7.091  18.731  0.7466 -0.1588 -0.4888
 2866TIP3    H232794   4.727   6.946  18.689 -1.3923 -0.5031  0.6141
 2867TIP3   OH232795   0.604   4.767  18.480  0.4725 -0.1483  0.0861
 2867TIP3    H132796   0.599   4.861  18.501 -2.3013 -0.0136 -0.8302
 2867TIP3    H232797   0.680   4.760  18.422 -0.7516  2.0492 -1.9570
 2868TIP3   OH232798   2.485   5.115  18.312  0.1670 -0.2189  0.2741
 2868TIP3    H132799   2.466   5.089  18.222 -0.3197 -0.3187  0.4006
 2868TIP3    H232800   2.541   5.045  18.346  0.0503 -0.3693  0.1596
 2869TIP3   OH232801   3.621   2.063  18.815  0.0634  0.4643 -0.1117
 2869TIP3    H132802   3.690   2.121  18.782 -0.8099  0.9703 -1.1172
 2869TIP3    H232803   3.668   1.990  18.856  1.3559 -1.4660 -4.4734
 2870TIP3   OH232804   5.414   0.750  18.797 -0.0573 -0.0783 -0.2480
 2870TIP3    H132805   5.453   0.693  18.863 -1.8373  1.7013  2.5461
 2870TIP3    H232806   5.385   0.690  18.728  0.5675 -2.2313  1.2507
 2871TIP3   OH232807   0.436   4.069  19.225 -0.4798 -0.4097  0.5504
 2871TIP3    H132808   0.357   4.068  19.171 -1.0023  0.0169  1.2893
 2871TIP3    H232809   0.424   4.143  19.285 -0.3186 -1.3800  1.8283
 2872TIP3   OH232810   2.960   1.099  17.818  0.0063  0.4220  0.3359
 2872TIP3    H132811   2.882   1.046  17.834 -0.0810  0.0829 -1.1044
 2872TIP3    H232812   2.927   1.189  17.816  0.3955  0.8723  4.5447
 2873TIP3   OH232813   0.823   5.723  19.195  0.2011 -0.2349  0.3118
 2873TIP3    H132814   0.788   5.775  19.122 -0.0564 -0.0232  0.5861
 2873TIP3    H232815   0.798   5.633  19.174 -0.3876 -0.1048  0.4344
 2874TIP3   OH232816   7.573   6.304  17.642  0.1270 -0.0867  0.3784
 2874TIP3    H132817   7.584   6.332  17.551  1.6673 -0.7963  0.3076
 2874TIP3    H232818   7.622   6.369  17.693 -0.3418  0.0517  0.6538
 2875TIP3   OH232819   5.448   1.797  16.470  0.2471 -0.3002 -0.1584
 2875TIP3    H132820   5.376   1.776  16.411  0.2264 -2.1445  0.4620
 2875TIP3    H232821   5.408   1.852  16.538 -0.1764  0.1207 -0.7370
 2876TIP3   OH232822   1.909   1.393  17.804  0.1863 -0.3384 -0.1576
 2876TIP3    H132823   1.915   1.445  17.884  0.7841  0.8580 -0.9482
 2876TIP3    H232824   1.827   1.421  17.763  0.8527  0.5483 -0.9387
 2877TIP3   OH232825   2.564   1.489  18.795  0.2855 -0.2583 -0.6949
 2877TIP3    H132826   2.621   1.478  18.871 -1.8070  1.1073  1.1789
 2877TIP3    H232827   2.584   1.577  18.762  1.4036 -0.9561 -1.9951
 2878TIP3   OH232828   1.117   7.006  18.123  0.3424  0.5710 -0.7039
 2878TIP3    H132829   1.147   7.079  18.069 -0.4210 -0.0543 -2.0225
 2878TIP3    H232830   1.023   7.019  18.131  0.4419  0.6280  0.4666
 2879TIP3   OH232831   7.300   2.370  18.940 -0.3442 -0.1813 -0.4485
 2879TIP3    H132832   7.313   2.375  18.845 -1.2413  1.0483 -0.5365
 2879TIP3    H232833   7.305   2.461  18.969  2.2857 -0.7110  1.0642
 2880TIP3   OH232834   1.264   3.087  18.279  0.1606  0.0936 -0.3897
 2880TIP3    H132835   1.185   3.057  18.323 -0.7678 -0.6502 -2.4676
 2880TIP3    H232836   1.324   3.012  18.283  0.5067  0.4077  0.5403
 2881TIP3   OH232837   4.958   0.763  18.788 -0.2367  0.1036  0.2765
 2881TIP3    H132838   4.938   0.711  18.866 -1.5066 -1.4288 -0.9965
 2881TIP3    H232839   4.908   0.721  18.718  2.3773  0.2237 -1.7917
 2882TIP3   OH232840   6.235   3.926  19.696 -0.4972 -0.4130 -0.1487
 2882TIP3    H132841   6.228   4.022  19.698 -0.6858 -0.3923  3.4039
 2882TIP3    H232842   6.145   3.895  19.687 -0.6128 -0.2458  0.4158
 2883TIP3   OH232843   5.474   4.646  17.649 -0.4621 -0.3166  0.1219
 2883TIP3    H132844   5.558   4.688  17.666 -1.1308  0.9760  0.3530
 2883TIP3    H232845   5.488   4.594  17.570  0.3894  0.3748 -0.1872
 2884TIP3   OH232846   1.897   1.127  17.881 -0.3012 -0.0034  0.4001
 2884TIP3    H132847   1.958   1.078  17.826 -1.5159  0.9508 -1.9868
 2884TIP3    H232848   1.904   1.218  17.850 -1.9624  0.3519  0.9457
 2885TIP3   OH232849   4.054   6.769  17.634  0.3209  0.3171  0.0011
 2885TIP3    H132850   3.980   6.821  17.601 -1.3390 -0.8843  1.6516
 2885TIP3    H232851   4.131   6.811  17.595 -1.1736  1.7825 -1.5851
 2886TIP3   OH232852   0.254   4.378  17.535  0.0163 -0.0603 -0.1136
 2886TIP3    H132853   0.213   4.416  17.612  0.0974 -0.4550  0.1312
 2886TIP3    H232854   0.184   4.332  17.490  0.2586 -1.1029  0.5372
 2887TIP3   OH232855   3.117   6.924  16.967 -0.2029 -0.9236 -0.1330
 2887TIP3    H132856   3.180   6.853  16.959 -0.6871 -1.4059  0.2762
 2887TIP3    H232857   3.169   7.001  16.990  0.1654 -1.4455  0.7905
 2888TIP3   OH232858   0.715   4.612  18.825  0.3748  0.0302 -0.1071
 2888TIP3    H132859   0.672   4.697  18.839  0.7757  0.0855  0.8377
 2888TIP3    H232860   0.666   4.573  18.753  0.1403  1.0355 -0.5165
 2889TIP3   OH232861   4.526   2.966  19.120 -0.2377 -0.4196  0.5382
 2889TIP3    H132862   4.511   3.011  19.203 -1.6225  1.6257 -0.7473
 2889TIP3    H232863   4.468   2.890  19.124 -0.3582 -0.3027  1.3858
 2890TIP3   OH232864   7.490   2.463  17.089  0.6210  0.1139  0.2418
 2890TIP3    H132865   7.483   2.527  17.019  0.3900 -0.3192 -0.1387
 2890TIP3    H232866   7.431   2.392  17.062 -0.5501  0.5405  1.5259
 2891TIP3   OH232867   2.614   3.327  16.920  0.6545 -0.2615 -0.4495
 2891TIP3    H132868   2.523   3.308  16.897  1.2831 -0.0001 -3.6555
 2891TIP3    H232869   2.646   3.248  16.962 -1.0944 -0.2250  1.0773
 2892TIP3   OH232870   5.096   2.246  18.235  0.4869  0.4976 -0.4204
 2892TIP3    H132871   5.046   2.274  18.311  1.8418 -0.7724  1.0127
 2892TIP3    H232872   5.164   2.189  18.270  2.7149  1.7871 -2.3072
 2893TIP3   OH232873   0.129   7.010  18.052  0.0176 -0.2035 -0.0302
 2893TIP3    H132874   0.063   7.049  17.995 -1.9430 -2.3660  0.6331
 2893TIP3    H232875   0.142   7.074  18.122 -2.7170 -0.3647  0.7482
 2894TIP3   OH232876   7.075   2.704  16.722 -0.2619 -0.8672 -0.3748
 2894TIP3    H132877   7.069   2.784  16.668  2.1959 -0.7114 -0.5116
 2894TIP3    H232878   7.003   2.649  16.690 -1.8345  1.1185 -0.4945
 2895TIP3   OH232879   7.574   1.900  18.313 -0.0087 -0.2939 -0.2506
 2895TIP3    H132880   7.574   1.975  18.372  1.0623  0.0885 -0.7026
 2895TIP3    H232881   7.491   1.907  18.265 -0.7076 -0.3951  0.9195
 2896TIP3   OH232882   1.897   5.710  17.180 -0.0692  0.0332  0.1589
 2896TIP3    H132883   1.814   5.709  17.226 -0.1971  0.5589 -0.0528
 2896TIP3    H232884   1.956   5.657  17.234 -0.9452 -1.6500 -0.4796
 2897TIP3   OH232885   7.230   1.939  19.096 -0.1868  0.4536 -0.4498
 2897TIP3    H132886   7.162   2.006  19.085 -1.5089 -0.5536  0.9463
 2897TIP3    H232887   7.306   1.987  19.129 -1.4415  1.2225  1.5847
 2898TIP3   OH232888   7.502   4.279  17.979 -0.1317 -0.2537  0.4546
 2898TIP3    H132889   7.416   4.256  17.944  0.6412 -1.0247 -1.0569
 2898TIP3    H232890   7.504   4.242  18.067 -1.8965  1.1390  1.1356
 2899TIP3   OH232891   4.892   2.387  17.232 -0.7215 -1.1334  0.1434
 2899TIP3    H132892   4.849   2.305  17.205 -2.6514 -1.5747  3.9334
 2899TIP3    H232893   4.883   2.388  17.327  1.6145  2.2774  0.4680
 2900TIP3   OH232894   3.305   2.225  17.230  0.3340 -0.1956  0.1057
 2900TIP3    H132895   3.333   2.316  17.221 -0.0540  0.0572  1.2828
 2900TIP3    H232896   3.336   2.182  17.150 -2.0928  1.6062 -1.9480
 2901TIP3   OH232897   0.645   1.017  17.599 -0.5019  0.3392  0.2170
 2901TIP3    H132898   0.687   0.999  17.515 -2.1593 -1.3967 -0.3138
 2901TIP3    H232899   0.593   1.096  17.584  1.8668  2.0914  0.6811
 2902TIP3   OH232900   5.571   3.476  18.396 -0.4127 -0.3012 -0.0737
 2902TIP3    H132901   5.530   3.391  18.378  0.0184 -1.0121  2.0466
 2902TIP3    H232902   5.498   3.538  18.393 -1.0642 -1.0274  0.1820
 2903TIP3   OH232903   4.101   3.386  17.951  0.0924 -0.1956  0.7405
 2903TIP3    H132904   4.180   3.409  17.903  0.3633 -1.0857  0.7412
 2903TIP3    H232905   4.112   3.425  18.037  0.9791 -1.1043  1.0599
 2904TIP3   OH232906   6.093   5.375  18.321 -0.6788  0.2606 -0.6972
 2904TIP3    H132907   6.115   5.408  18.408  0.1636 -0.3187 -0.6811
 2904TIP3    H232908   5.997   5.366  18.323 -0.5301 -1.8014  0.9471
 2905TIP3   OH232909   2.371   2.886  19.461  0.7306  0.0928 -0.1517
 2905TIP3    H132910   2.458   2.903  19.496  1.6057 -2.8444 -0.6239
 2905TIP3    H232911   2.343   2.806  19.505 -1.2386  0.3194 -0.8933
 2906TIP3   OH232912   6.799   0.893  17.996 -0.2919  0.2503 -0.1603
 2906TIP3    H132913   6.802   0.798  17.983 -0.5340  0.2753 -0.4008
 2906TIP3    H232914   6.840   0.930  17.918  0.0717  0.3357  0.0682
 2907TIP3   OH232915   2.282   1.404  19.146 -0.2107 -0.0114  0.1163
 2907TIP3    H132916   2.351   1.427  19.208  1.0350 -0.1747 -1.1540
 2907TIP3    H232917   2.235   1.333  19.188  0.1163  0.3971  1.2021
 2908TIP3   OH232918   3.858   0.894  18.453 -0.3493  0.2503 -0.2247
 2908TIP3    H132919   3.808   0.819  18.421  1.0640 -0.3836 -1.0393
 2908TIP3    H232920   3.796   0.942  18.508 -1.6960 -0.7483 -0.8037
 2909TIP3   OH232921   3.116   6.847  19.310 -0.2655  0.1510  0.3233
 2909TIP3    H132922   3.041   6.843  19.370 -0.8909  0.6807 -0.4066
 2909TIP3    H232923   3.113   6.763  19.263 -0.5501  0.2735  0.1208
 2910TIP3   OH232924   2.488   7.178  18.689  0.0034 -0.0760 -0.3879
 2910TIP3    H132925   2.568   7.232  18.693 -1.2745  1.9867 -0.9279
 2910TIP3    H232926   2.438   7.204  18.766 -0.2114 -1.2671 -0.1161
 2911TIP3   OH232927   4.467   1.361  17.522  0.2585 -0.1132  0.0726
 2911TIP3    H132928   4.529   1.400  17.584  0.3146 -0.4396  0.2187
 2911TIP3    H232929   4.404   1.431  17.505  1.8933  1.0201 -1.8162
 2912TIP3   OH232930   5.495   0.784  17.433 -0.4083  0.0350 -0.5252
 2912TIP3    H132931   5.579   0.771  17.389 -0.2798  0.5820 -0.4507
 2912TIP3    H232932   5.498   0.875  17.463 -0.1018 -0.5800  1.4274
 2913TIP3   OH232933   7.388   5.459  19.093 -0.6134 -0.1413 -1.0582
 2913TIP3    H132934   7.306   5.471  19.141  0.5130 -0.3813  0.9860
 2913TIP3    H232935   7.396   5.364  19.084  0.4804 -0.2482  0.6852
 2914TIP3   OH232936   5.491   5.260  18.100 -0.0189 -0.3570 -0.2520
 2914TIP3    H132937   5.490   5.176  18.146  0.8821 -0.9766 -1.3279
 2914TIP3    H232938   5.578   5.296  18.118 -0.0659 -0.0905 -0.5534
 2915TIP3   OH232939   1.459   0.768  18.293 -0.4056  0.4774  0.4065
 2915TIP3    H132940   1.375   0.753  18.336  0.3717  0.8723  2.1726
 2915TIP3    H232941   1.522   0.773  18.365  1.5321 -2.0643 -0.9548
 2916TIP3   OH232942   1.448   3.877  18.908  0.0781  0.8744  0.3775
 2916TIP3    H132943   1.462   3.921  18.992  0.9033 -1.4819  1.5708
 2916TIP3    H232944   1.421   3.947  18.848  1.0311  2.8964  2.1862
 2917TIP3   OH232945   2.120   2.928  16.310  0.1738  0.3959  0.7334
 2917TIP3    H132946   2.095   2.836  16.299 -1.0344  0.8874 -1.0213
 2917TIP3    H232947   2.126   2.963  16.221 -1.7183  2.5877  1.3636
 2918TIP3   OH232948   4.112   5.428  19.370  0.2412 -0.2000  0.1879
 2918TIP3    H132949   4.121   5.426  19.275 -2.5839 -1.7939 -0.1324
 2918TIP3    H232950   4.151   5.346  19.400  0.9045  0.1880  0.4147
 2919TIP3   OH232951   1.942   3.001  18.373  0.4470  0.0607  0.1727
 2919TIP3    H132952   1.918   3.093  18.358  0.0420 -0.3033 -1.7706
 2919TIP3    H232953   1.872   2.951  18.329  1.9216 -1.1120 -0.9300
 2920TIP3   OH232954   0.567   7.151  17.282 -0.5729  0.1969  0.4964
 2920TIP3    H132955   0.518   7.227  17.249  0.7920  0.6177 -0.6674
 2920TIP3    H232956   0.641   7.143  17.222  0.4961 -0.7379  1.8886
 2921TIP3   OH232957   2.422   2.097  18.386 -0.0802 -0.3417  0.2043
 2921TIP3    H132958   2.386   2.008  18.380  0.3079 -0.4470 -0.8081
 2921TIP3    H232959   2.513   2.088  18.358 -0.0184  0.3593  0.1660
 2922TIP3   OH232960   1.260   1.757  16.802 -0.0124  0.0144 -0.2655
 2922TIP3    H132961   1.188   1.774  16.742 -1.1731  0.1748  1.1212
 2922TIP3    H232962   1.221   1.706  16.873  1.2287  0.1203  0.5297
 2923TIP3   OH232963   7.641   7.579  19.017  0.5447  0.4085  0.3901
 2923TIP3    H132964   7.562   7.563  19.068  0.3258 -0.3297 -0.1747
 2923TIP3    H232965   7.702   7.511  19.045  0.9901  0.9653  0.8111
 2924TIP3   OH232966   3.979   1.938  18.671 -0.2984  0.0458  0.0699
 2924TIP3    H132967   4.043   2.000  18.635 -1.4404  1.7136  0.8011
 2924TIP3    H232968   3.975   1.958  18.764 -2.9079  1.0232 -0.1628
 2925TIP3   OH232969   1.756   1.685  19.108  0.1069  0.5461  0.3707
 2925TIP3    H132970   1.687   1.619  19.110  0.3402  0.3035  0.3995
 2925TIP3    H232971   1.809   1.667  19.186  0.3064  0.6246  0.2530
 2926TIP3   OH232972   3.553   4.468  17.442 -0.5026  0.3553 -0.3043
 2926TIP3    H132973   3.512   4.433  17.362  0.1625 -0.5956 -0.2365
 2926TIP3    H232974   3.637   4.504  17.412  0.0950 -0.6968  0.0776
 2927TIP3   OH232975   7.472   6.416  16.543  0.0810  0.7176 -0.2148
 2927TIP3    H132976   7.400   6.354  16.559  0.6625  0.0313 -0.2400
 2927TIP3    H232977   7.551   6.364  16.553  0.5871  1.5141 -0.0115
 2928TIP3   OH232978   0.316   0.768  18.883  0.0588 -0.1115  0.4596
 2928TIP3    H132979   0.361   0.776  18.967 -1.3308 -1.4291  1.3597
 2928TIP3    H232980   0.226   0.746  18.905  0.0069 -2.0983 -1.3943
 2929TIP3   OH232981   2.653   5.500  17.641 -0.2144 -0.2547 -0.1802
 2929TIP3    H132982   2.590   5.503  17.569  0.1587  0.0009 -0.5001
 2929TIP3    H232983   2.732   5.463  17.602  0.8026  2.1223 -0.5542
 2930TIP3   OH232984   5.314   2.543  18.553 -0.2739  0.3530 -0.0390
 2930TIP3    H132985   5.236   2.583  18.517 -1.3541 -0.0937  1.6629
 2930TIP3    H232986   5.303   2.550  18.648  1.6408  0.0613  0.2538
 2931TIP3   OH232987   5.371   6.676  17.381  0.0173 -0.1169 -0.3417
 2931TIP3    H132988   5.346   6.661  17.290 -1.6311  0.8639 -0.0802
 2931TIP3    H232989   5.293   6.654  17.431  0.5117  0.5317  0.7507
 2932TIP3   OH232990   3.770   3.021  18.961  0.1649  0.0182  0.2983
 2932TIP3    H132991   3.689   3.030  18.910 -0.1391  0.3407  0.8259
 2932TIP3    H232992   3.743   2.973  19.040  0.4924  0.1229  0.4737
 2933TIP3   OH232993   6.556   1.321  18.375 -0.0500  0.0651  0.6652
 2933TIP3    H132994   6.510   1.357  18.299  0.2945 -0.1883  0.3322
 2933TIP3    H232995   6.604   1.395  18.411  1.2244 -0.1945 -0.4350
 2934TIP3   OH232996   4.591   2.297  17.031 -0.2442 -0.0181 -0.2648
 2934TIP3    H132997   4.534   2.249  17.092 -0.0797 -0.8846 -0.7872
 2934TIP3    H232998   4.678   2.258  17.044  0.3346  1.5124  0.7596
 2935TIP3   OH232999   5.064   6.606  18.073  0.7068  0.4598 -0.3173
 2935TIP3    H133000   5.159   6.603  18.086  0.4802 -0.0803  1.4794
 2935TIP3    H233001   5.042   6.522  18.033  1.1419  1.2150 -2.2445
 2936TIP3   OH233002   7.656   6.298  17.065  0.1961  0.2857  0.0138
 2936TIP3    H133003   7.581   6.303  17.005  0.3386 -1.3859 -0.3554
 2936TIP3    H233004   7.688   6.388  17.071 -0.4598  0.6641 -1.5982
 2937TIP3   OH233005   2.362   0.247  17.919 -0.2286  0.0863 -0.9632
 2937TIP3    H133006   2.347   0.304  17.994 -0.8479  1.3397 -1.9894
 2937TIP3    H233007   2.338   0.300  17.843 -0.1371 -1.3118 -2.0260
 2938TIP3   OH233008   4.641   0.730  17.110  0.2348  0.4404 -0.4835
 2938TIP3    H133009   4.622   0.782  17.187 -0.7864 -0.4988 -0.0782
 2938TIP3    H233010   4.694   0.657  17.142 -0.9859 -0.4762 -0.4658
 2939TIP3   OH233011   5.381   5.045  17.888  0.6816 -0.0213  0.2178
 2939TIP3    H133012   5.458   4.993  17.907  2.1569  1.5396 -1.1527
 2939TIP3    H233013   5.414   5.135  17.879 -1.2298  0.6510 -0.6742
 2940TIP3   OH233014   5.986   3.410  19.336  0.1696  0.2543 -0.5368
 2940TIP3    H133015   5.978   3.331  19.283  0.6288  0.3206 -0.7083
 2940TIP3    H233016   5.905   3.412  19.388  0.4647 -0.7165 -0.0040
 2941TIP3   OH233017   0.185   3.195  16.920  0.6263  0.0904  0.3588
 2941TIP3    H133018   0.222   3.107  16.933  0.5410 -0.0471 -0.3070
 2941TIP3    H233019   0.104   3.180  16.872  0.4177  0.5099  0.5772
 2942TIP3   OH233020   7.499   0.381  18.627 -0.7593  0.0774  0.1484
 2942TIP3    H133021   7.454   0.459  18.659  2.9147  2.2013  0.6491
 2942TIP3    H233022   7.528   0.403  18.539 -1.5757 -1.6584 -0.6093
 2943TIP3   OH233023   2.237   3.668  18.734  0.4438 -0.5404  0.3159
 2943TIP3    H133024   2.168   3.730  18.756 -0.2077 -1.0883 -0.1570
 2943TIP3    H233025   2.192   3.584  18.723  1.1473 -0.8594 -0.2246
 2944TIP3   OH233026   1.487   6.083  19.249 -0.6323 -0.2609  0.1977
 2944TIP3    H133027   1.553   6.027  19.207 -0.4172 -0.0207  0.2150
 2944TIP3    H233028   1.516   6.091  19.340  0.7122  1.8860 -0.3505
 2945TIP3   OH233029   4.854   5.879  18.862 -0.6950 -0.1335 -0.5152
 2945TIP3    H133030   4.798   5.832  18.924  2.2864 -0.6313  2.0486
 2945TIP3    H233031   4.798   5.893  18.786 -3.8350 -1.7503  1.2683
 2946TIP3   OH233032   7.548   2.988  18.918  0.3163 -0.1609  0.2438
 2946TIP3    H133033   7.550   3.054  18.986  0.6509  0.7086 -0.5923
 2946TIP3    H233034   7.536   3.037  18.836 -0.8987 -1.2374 -0.2590
 2947TIP3   OH233035   3.301   5.815  18.087 -0.1878 -0.4279 -0.8507
 2947TIP3    H133036   3.341   5.800  18.172  0.3392 -1.0839 -1.2034
 2947TIP3    H233037   3.254   5.898  18.097  0.3611 -0.1928 -0.1019
 2948TIP3   OH233038   6.510   0.202  18.582 -0.1216 -0.4078 -0.6876
 2948TIP3    H133039   6.593   0.165  18.553  0.4112  0.2690 -0.0690
 2948TIP3    H233040   6.475   0.137  18.644  1.2686  0.4862  1.1418
 2949TIP3   OH233041   0.851   4.033  18.004 -0.3971  0.3464  0.0764
 2949TIP3    H133042   0.881   4.013  18.092 -1.4412  0.2440  0.4322
 2949TIP3    H233043   0.892   3.966  17.949 -1.6600 -1.1523  0.8626
 2950TIP3   OH233044   0.035   0.941  18.998 -0.4630  0.3787  0.2020
 2950TIP3    H133045  -0.044   0.988  19.023  0.1499  0.7924  1.4184
 2950TIP3    H233046   0.006   0.880  18.931 -1.7862  0.6025  0.5460
 2951TIP3   OH233047   1.892   0.175  18.745 -0.1101  0.1139 -0.1651
 2951TIP3    H133048   1.843   0.098  18.775 -0.5613  0.3388 -0.3164
 2951TIP3    H233049   1.960   0.188  18.811 -2.2008  1.7220  1.8179
 2952TIP3   OH233050   0.605   1.651  17.273 -0.0453 -0.2848 -0.6348
 2952TIP3    H133051   0.536   1.702  17.230  0.5645 -0.3619 -1.7348
 2952TIP3    H233052   0.641   1.596  17.204  0.9431 -0.4344 -0.0206
 2953TIP3   OH233053   3.519   7.078  18.716  0.2579 -0.2259  0.4760
 2953TIP3    H133054   3.528   6.986  18.740  1.5095  0.0912  1.3353
 2953TIP3    H233055   3.596   7.121  18.755  0.6078  0.8978 -1.3036
 2954TIP3   OH233056   0.179   2.279  18.798  0.5059  0.1390  0.4654
 2954TIP3    H133057   0.167   2.343  18.728  1.9132  0.5236  0.5270
 2954TIP3    H233058   0.096   2.279  18.845 -0.2384  0.3562 -0.8021
 2955TIP3   OH233059   6.380   4.671  18.844  0.2702 -0.5207  0.7661
 2955TIP3    H133060   6.306   4.611  18.858 -0.5778  0.1374 -0.6918
 2955TIP3    H233061   6.344   4.758  18.859  0.6995 -0.1817 -0.0824
 2956TIP3   OH233062   3.222   4.825  18.296 -0.0513  0.4739  0.2018
 2956TIP3    H133063   3.292   4.883  18.265 -0.6777  1.2810  0.2383
 2956TIP3    H233064   3.190   4.782  18.217 -0.7670  1.5403 -0.1226
 2957TIP3   OH233065   3.160   6.230  17.624  0.3283 -0.1398  0.1565
 2957TIP3    H133066   3.154   6.307  17.680  1.5167  0.8682 -1.0539
 2957TIP3    H233067   3.251   6.203  17.629  0.5390  0.1359 -1.4495
 2958TIP3   OH233068   2.857   1.581  18.665 -0.0025 -0.0687 -0.4879
 2958TIP3    H133069   2.797   1.654  18.682 -0.7225 -0.7400 -0.0643
 2958TIP3    H233070   2.906   1.571  18.747 -0.3415 -0.4463 -0.3238
 2959TIP3   OH233071   0.999   3.043  19.167 -0.2761 -0.9646 -0.4485
 2959TIP3    H133072   0.911   3.009  19.186 -0.4969 -1.4846 -2.2002
 2959TIP3    H233073   1.018   3.012  19.079  0.0647  2.3191 -1.6870
 2960TIP3   OH233074   6.547   3.952  18.717 -0.4575 -0.2658 -0.1185
 2960TIP3    H133075   6.599   3.871  18.710  1.9002  1.1258  0.1177
 2960TIP3    H233076   6.479   3.931  18.781  1.3676 -1.4973  1.5517
 2961TIP3   OH233077   5.702   6.011  18.077 -0.5621  0.4095 -0.7357
 2961TIP3    H133078   5.640   6.071  18.118 -0.0806  0.9299 -0.7511
 2961TIP3    H233079   5.665   5.992  17.991 -0.0192  1.8243 -1.3024
 2962TIP3   OH233080   0.260   0.352  17.071 -0.1227  0.0052 -0.0984
 2962TIP3    H133081   0.214   0.401  17.004  0.5775 -1.9801 -2.1460
 2962TIP3    H233082   0.339   0.403  17.089  1.3731 -0.9005 -3.3031
 2963TIP3   OH233083   1.613   5.150  18.147 -0.3282  0.2986 -0.1970
 2963TIP3    H133084   1.705   5.129  18.165 -0.2770 -0.2117 -1.0079
 2963TIP3    H233085   1.576   5.171  18.233  0.3360 -0.3245  0.2506
 2964TIP3   OH233086   7.308   3.644  18.300 -0.1394 -0.0264 -0.2224
 2964TIP3    H133087   7.223   3.611  18.330  0.5898 -0.1799  1.8263
 2964TIP3    H233088   7.296   3.739  18.296 -0.1140  0.0518  1.1556
 2965TIP3   OH233089   7.317   1.201  18.403 -0.4089 -0.2182 -0.2021
 2965TIP3    H133090   7.229   1.206  18.439 -0.6927  3.1026 -1.0102
 2965TIP3    H233091   7.305   1.176  18.312 -0.7156  1.5526 -0.6819
 2966TIP3   OH233092   0.147   6.312  17.444 -0.1780 -0.0679 -0.2780
 2966TIP3    H133093   0.211   6.368  17.399  0.7284 -1.0527 -0.2726
 2966TIP3    H233094   0.139   6.235  17.387 -2.1081  0.4412 -0.7607
 2967TIP3   OH233095   0.277   1.091  18.907 -0.0961  0.6517  0.5604
 2967TIP3    H133096   0.207   1.037  18.944 -0.4194 -0.4801 -1.5795
 2967TIP3    H233097   0.357   1.043  18.929 -0.3485 -0.4831 -0.8876
 2968TIP3   OH233098   0.872   0.154  17.307 -0.1531 -0.0582  0.6331
 2968TIP3    H133099   0.821   0.081  17.272  1.6459 -0.2411 -1.9631
 2968TIP3    H233100   0.831   0.232  17.269  0.0156 -0.0201  0.5257
 2969TIP3   OH233101   2.045   1.791  17.153 -0.5011  0.0956  0.1775
 2969TIP3    H133102   2.101   1.722  17.187 -2.2998 -1.5905 -0.0987
 2969TIP3    H233103   2.028   1.848  17.228 -0.9242 -1.1418  1.0432
 2970TIP3   OH233104   5.727   5.915  19.049 -0.5596  0.2053  0.2558
 2970TIP3    H133105   5.808   5.902  18.999 -1.0820  0.0119 -0.5729
 2970TIP3    H233106   5.658   5.912  18.982 -1.4200 -1.5965  1.1800
 2971TIP3   OH233107   1.266   3.766  18.349 -0.7303 -0.3084 -0.7745
 2971TIP3    H133108   1.296   3.783  18.260  0.0220 -0.9962 -0.6731
 2971TIP3    H233109   1.335   3.710  18.386 -1.1370 -0.1946  0.1671
 2972TIP3   OH233110   7.627   5.879  19.214  0.6920 -0.1572 -0.2673
 2972TIP3    H133111   7.603   5.888  19.306  0.1233  1.3055 -0.5304
 2972TIP3    H233112   7.722   5.885  19.214  0.6778  0.1127  0.1939
 2973TIP3   OH233113   6.196   0.554  18.138  0.6732 -0.1983 -0.0602
 2973TIP3    H133114   6.182   0.549  18.043 -0.2105  0.0019  0.0523
 2973TIP3    H233115   6.143   0.483  18.174 -0.0948  0.5817  0.3832
 2974TIP3   OH233116   6.463   7.085  17.814 -0.3404 -0.5221 -0.3534
 2974TIP3    H133117   6.552   7.073  17.780 -0.3097  0.7637 -0.7773
 2974TIP3    H233118   6.440   7.000  17.852  0.8764 -1.0164 -0.6824
 2975TIP3   OH233119   0.851   5.887  16.627 -0.0431 -0.1674 -0.1991
 2975TIP3    H133120   0.918   5.928  16.681  1.3100 -0.5297 -1.5364
 2975TIP3    H233121   0.889   5.883  16.540 -0.1663 -3.9018 -0.2670
 2976TIP3   OH233122   0.150   0.655  19.101  0.1337 -0.2377 -0.8197
 2976TIP3    H133123   0.244   0.671  19.110  0.0628  1.1106 -2.0883
 2976TIP3    H233124   0.113   0.680  19.185  0.6199  1.8225 -1.1673
 2977TIP3   OH233125   0.710   1.773  17.583 -0.2903 -0.2865 -0.5506
 2977TIP3    H133126   0.676   1.787  17.495  0.3269  0.5280 -0.6647
 2977TIP3    H233127   0.800   1.745  17.570 -0.4453 -0.9873 -0.1943
 2978TIP3   OH233128   1.447   6.494  18.465  0.6576  0.2669  0.1817
 2978TIP3    H133129   1.401   6.570  18.429  0.0808  0.3717  1.1166
 2978TIP3    H233130   1.383   6.451  18.522  2.1367  1.3749  2.8627
 2979TIP3   OH233131   2.905   0.360  18.176 -0.1802 -0.0369 -0.3241
 2979TIP3    H133132   2.959   0.397  18.106  0.1939 -1.4194 -0.8166
 2979TIP3    H233133   2.956   0.373  18.255  0.3237 -0.2279 -0.6102
 2980TIP3   OH233134   1.655   3.228  18.898  0.2627 -0.2469 -1.3678
 2980TIP3    H133135   1.677   3.310  18.942 -1.0083 -0.5966 -0.0283
 2980TIP3    H233136   1.652   3.251  18.805  1.4612  0.8542 -1.1655
 2981TIP3   OH233137   2.752   4.793  17.469 -0.2068  0.9526 -0.7361
 2981TIP3    H133138   2.836   4.780  17.513  0.2846  2.5450 -1.1498
 2981TIP3    H233139   2.698   4.720  17.499  0.7238  0.9224  0.9904
 2982TIP3   OH233140   6.400   1.637  17.767  0.0410 -0.2900  0.2587
 2982TIP3    H133141   6.305   1.636  17.774 -0.1134 -1.5095 -1.4811
 2982TIP3    H233142   6.428   1.553  17.803  0.5363  0.3044  1.3117
 2983TIP3   OH233143   4.428   7.485  17.616  0.0746  0.3806 -0.0317
 2983TIP3    H133144   4.481   7.558  17.648  0.3878  0.6999 -1.2459
 2983TIP3    H233145   4.383   7.519  17.539  0.3781 -0.7566 -0.7424
 2984TIP3   OH233146   1.274   4.190  18.338  0.4754 -0.6565 -0.3783
 2984TIP3    H133147   1.209   4.207  18.270 -0.0450 -0.5728  0.1322
 2984TIP3    H233148   1.242   4.111  18.383  0.6953 -0.5849 -0.0922
 2985TIP3   OH233149   1.430   4.611  18.663  0.3698 -0.1287 -0.1079
 2985TIP3    H133150   1.406   4.523  18.636  1.8937 -0.4426 -0.5634
 2985TIP3    H233151   1.484   4.644  18.591  0.8914  0.6771  0.6256
 2986TIP3   OH233152   2.112   2.640  16.330  0.6824  0.2041 -0.1852
 2986TIP3    H133153   2.174   2.574  16.298  0.6721  0.2733 -0.3477
 2986TIP3    H233154   2.035   2.590  16.354  0.8657  0.0952  0.1897
 2987TIP3   OH233155   6.242   0.494  17.642  0.3660 -0.1637  0.0819
 2987TIP3    H133156   6.277   0.412  17.607 -0.0731 -0.8340  1.1751
 2987TIP3    H233157   6.287   0.562  17.592  0.3039 -1.0721 -1.2615
 2988TIP3   OH233158   5.163   6.119  17.925 -0.4286 -0.0691 -0.5545
 2988TIP3    H133159   5.190   6.168  17.847  0.5221 -0.3974 -0.4448
 2988TIP3    H233160   5.070   6.139  17.935  0.2167  2.9188  0.3360
 2989TIP3   OH233161   0.450   1.068  17.938 -0.3587 -0.1342  0.3564
 2989TIP3    H133162   0.480   1.095  18.025 -1.6870 -0.4208  0.9285
 2989TIP3    H233163   0.416   1.148  17.898 -1.2038 -0.2959  0.7345
 2990TIP3   OH233164   5.651   4.008  17.100 -0.4031  0.4705 -0.3812
 2990TIP3    H133165   5.683   4.083  17.048  0.4827  1.3591  1.3593
 2990TIP3    H233166   5.688   4.022  17.187 -0.3471 -1.9424  0.0449
 2991TIP3   OH233167   1.461   1.474  18.609  0.2787  0.2617  0.4615
 2991TIP3    H133168   1.550   1.468  18.642 -0.3673  1.0879  2.4628
 2991TIP3    H233169   1.444   1.568  18.600 -0.2675  0.1065 -0.3332
 2992TIP3   OH233170   4.494   4.582  19.021 -0.2265  0.7829  0.4551
 2992TIP3    H133171   4.460   4.638  18.952 -3.5450 -1.6204 -0.1265
 2992TIP3    H233172   4.562   4.530  18.978  0.8530  2.3184  0.2504
 2993TIP3   OH233173   0.592   4.236  18.517  0.5517  0.5874 -0.3525
 2993TIP3    H133174   0.581   4.152  18.474 -2.0472  0.2946  0.6756
 2993TIP3    H233175   0.522   4.291  18.482 -0.7452  0.7924  2.2708
 2994TIP3   OH233176   5.748   5.576  16.992 -0.4001 -0.1849 -0.2647
 2994TIP3    H133177   5.813   5.631  16.949 -0.5110 -0.0413 -0.2469
 2994TIP3    H233178   5.664   5.607  16.957 -0.5084  0.0935  0.2385
 2995TIP3   OH233179   1.299   3.233  17.846 -0.4604 -0.2997 -0.1102
 2995TIP3    H133180   1.232   3.268  17.904 -0.5224 -2.1322  1.0119
 2995TIP3    H233181   1.254   3.166  17.795  0.5553 -2.0203  1.1142
 2996TIP3   OH233182   6.136   2.389  19.365  0.2989 -0.1565  0.1246
 2996TIP3    H133183   6.207   2.437  19.322 -0.0984 -1.0504 -1.6165
 2996TIP3    H233184   6.179   2.315  19.406  0.4050 -0.7736 -1.0427
 2997TIP3   OH233185   0.102   2.622  16.800 -0.2675 -0.5364 -0.5359
 2997TIP3    H133186   0.096   2.527  16.809 -0.4396 -0.6814 -1.9935
 2997TIP3    H233187   0.162   2.649  16.870  0.5653 -1.8236 -0.7270
 2998TIP3   OH233188   0.781   4.536  18.389 -0.2594  0.1924 -0.2271
 2998TIP3    H133189   0.703   4.553  18.335 -0.4239  0.7445  0.1786
 2998TIP3    H233190   0.853   4.574  18.340 -0.1699 -0.6753 -0.7994
 2999TIP3   OH233191   2.395   6.030  18.379  0.1246 -0.2197 -0.2818
 2999TIP3    H133192   2.335   5.970  18.424 -1.2013  0.5369 -0.9452
 2999TIP3    H233193   2.479   6.019  18.423 -0.9462  0.0319  1.9714
 3000TIP3   OH233194   4.333   5.962  18.717 -0.1787 -0.2286 -0.1631
 3000TIP3    H133195   4.313   5.996  18.804  0.5753  0.2782 -0.1767
 3000TIP3    H233196   4.312   6.034  18.658 -0.3319 -0.4376 -0.3621
 3001TIP3   OH233197   0.596   7.407  17.023 -0.3557 -0.2654 -0.2245
 3001TIP3    H133198   0.683   7.416  16.985 -0.9994  1.1202 -1.4521
 3001TIP3    H233199   0.548   7.484  16.994 -2.4316 -1.6515 -0.7359
 3002TIP3   OH233200   2.946   4.080  17.279 -0.1128  0.2957  0.6459
 3002TIP3    H133201   2.856   4.113  17.285  0.8148  3.2519  0.0728
 3002TIP3    H233202   2.943   4.012  17.212 -1.5718  1.7786 -0.8717
 3003TIP3   OH233203   5.885   5.553  17.635  0.6846  0.3268 -0.0815
 3003TIP3    H133204   5.881   5.646  17.656  1.0551  1.0313 -2.6847
 3003TIP3    H233205   5.798   5.531  17.602  0.7050 -0.1407  0.1645
 3004TIP3   OH233206   0.299   2.987  19.123  0.3079  0.1997  0.3229
 3004TIP3    H133207   0.361   3.009  19.054  1.2332  0.0647  1.0978
 3004TIP3    H233208   0.239   2.924  19.082  0.4787  0.5783 -0.5265
 3005TIP3   OH233209   1.789   4.169  18.557  0.0891  0.4615 -0.3403
 3005TIP3    H133210   1.823   4.105  18.619 -0.2254  0.7422  0.1317
 3005TIP3    H233211   1.829   4.146  18.473 -1.8633 -1.8375 -0.7285
 3006TIP3   OH233212   1.036   4.484  17.709 -0.3872 -0.1173  0.5728
 3006TIP3    H133213   1.062   4.413  17.651  2.1415  1.9533 -0.9978
 3006TIP3    H233214   0.988   4.545  17.653 -1.1137  0.2253  1.5290
 3007TIP3   OH233215   6.173   6.665  19.072 -0.8267 -0.0899 -0.7304
 3007TIP3    H133216   6.268   6.659  19.056 -0.8758 -1.2236 -0.7020
 3007TIP3    H233217   6.165   6.662  19.167 -0.8916 -0.1164 -0.7367
 3008TIP3   OH233218   1.564   3.000  19.448 -0.3241  0.7316 -0.2251
 3008TIP3    H133219   1.548   3.087  19.485 -2.3610  0.1831  0.2789
 3008TIP3    H233220   1.487   2.949  19.471  2.4767 -2.5542  3.2307
 3009TIP3   OH233221   6.065   4.293  18.647 -0.0063 -0.7292  0.4237
 3009TIP3    H133222   5.996   4.273  18.585 -0.6780 -0.9085  1.2077
 3009TIP3    H233223   6.123   4.353  18.600 -0.6073 -0.6988 -0.2946
 3010TIP3   OH233224   6.955   6.206  18.916  0.7240  0.3739  0.0602
 3010TIP3    H133225   6.882   6.186  18.858  1.1451  1.1031 -0.7385
 3010TIP3    H233226   6.948   6.141  18.986 -1.0098  0.7443  0.2932
 3011TIP3   OH233227   3.148   6.506  18.609  0.0505 -0.1040 -0.5264
 3011TIP3    H133228   3.132   6.504  18.703 -0.7968  1.1040 -0.6249
 3011TIP3    H233229   3.171   6.416  18.587 -0.8299 -0.6384  0.6409
 3012TIP3   OH233230   7.155   7.397  17.980 -0.0926  0.3261 -0.2246
 3012TIP3    H133231   7.153   7.480  18.027 -1.9688  0.3046 -0.2037
 3012TIP3    H233232   7.114   7.416  17.895 -1.3686 -0.7372  0.1137
 3013TIP3   OH233233   1.587   3.689  17.907  0.2503  0.5378  1.0530
 3013TIP3    H133234   1.637   3.770  17.897  1.1698  0.2858  3.1130
 3013TIP3    H233235   1.497   3.714  17.887  1.0253  1.0689 -2.4956
 3014TIP3   OH233236   7.425   2.983  18.661  1.0670  0.4588  0.0632
 3014TIP3    H133237   7.348   2.992  18.606  1.4679  0.4670 -0.4992
 3014TIP3    H233238   7.480   3.058  18.638  1.7054 -0.1095 -0.2936
 3015TIP3   OH233239   2.060   5.272  18.827 -0.0515  0.1109  0.4141
 3015TIP3    H133240   2.084   5.364  18.838 -0.4565  0.2392  0.2385
 3015TIP3    H233241   2.019   5.248  18.910 -0.0928  0.1391  0.4030
 3016TIP3   OH233242   4.500   4.264  18.919 -0.1857 -0.4286 -0.3307
 3016TIP3    H133243   4.581   4.311  18.903  0.4077 -1.6834 -1.1954
 3016TIP3    H233244   4.499   4.248  19.014  0.7731 -0.7230 -0.3589
 3017TIP3   OH233245   2.029   1.908  18.933 -0.1239  0.4661  0.8197
 3017TIP3    H133246   2.059   1.826  18.894 -0.0350  0.7918  0.1891
 3017TIP3    H233247   2.102   1.969  18.920 -0.5956  0.9410  0.3221
 3018TIP3   OH233248   6.417   5.203  18.609 -0.7424 -0.8627  0.6407
 3018TIP3    H133249   6.488   5.146  18.639  0.4066  0.0789 -0.1769
 3018TIP3    H233250   6.407   5.266  18.681  0.5428  0.0929  0.0435
 3019TIP3   OH233251   2.660   3.199  18.861  0.0438  0.1130 -0.0698
 3019TIP3    H133252   2.686   3.232  18.775  0.2696 -1.5905 -0.6979
 3019TIP3    H233253   2.570   3.227  18.872  0.1831  0.8028 -0.6117
 3020TIP3   OH233254   4.836   0.147  19.448 -0.3273 -0.1241 -0.1277
 3020TIP3    H133255   4.826   0.085  19.376 -0.3824 -0.4072  0.1218
 3020TIP3    H233256   4.767   0.124  19.509 -0.8580  0.7118 -0.4069
 3021TIP3   OH233257   4.993   7.460  18.115  0.0470  0.2436 -0.5943
 3021TIP3    H133258   4.900   7.444  18.131  0.3465 -0.5295  0.5262
 3021TIP3    H233259   5.027   7.486  18.200  0.8715  0.4591 -0.9869
 3022TIP3   OH233260   4.522   4.664  18.181 -0.6004 -0.2061 -0.5000
 3022TIP3    H133261   4.489   4.652  18.092 -0.4186  2.0992 -0.9498
 3022TIP3    H233262   4.605   4.710  18.170  0.0210 -0.9349  0.8404
 3023TIP3   OH233263   4.449   3.641  17.379 -0.0684 -1.0822 -0.5533
 3023TIP3    H133264   4.506   3.597  17.317 -0.8553 -0.5897 -1.6596
 3023TIP3    H233265   4.360   3.624  17.347 -0.4122  1.0694 -0.9115
 3024TIP3   OH233266   5.092   0.875  17.805 -0.0073 -0.0800 -0.1748
 3024TIP3    H133267   5.021   0.811  17.801  0.7167 -0.8330 -2.3092
 3024TIP3    H233268   5.048   0.960  17.798 -0.7381 -0.5368 -1.5156
 3025TIP3   OH233269   3.089   4.763  18.792  0.4376 -0.8189  0.1376
 3025TIP3    H133270   3.106   4.753  18.698  0.5502  0.0289  0.0569
 3025TIP3    H233271   3.173   4.790  18.828  0.2682 -0.6358  0.3952
 3026TIP3   OH233272   1.803   2.169  16.969  0.8280  0.1719  0.0463
 3026TIP3    H133273   1.834   2.244  16.918  0.4140  0.8021  0.7054
 3026TIP3    H233274   1.708   2.170  16.957  0.6984  0.5050  1.0693
 3027TIP3   OH233275   0.316   3.165  17.672  0.5281  0.3386 -0.3409
 3027TIP3    H133276   0.366   3.180  17.752  0.2332 -1.6886  0.2854
 3027TIP3    H233277   0.239   3.115  17.700  0.0690  0.1735 -1.7874
 3028TIP3   OH233278   6.459   6.635  19.525 -0.2026  0.4575 -0.4141
 3028TIP3    H133279   6.469   6.548  19.565 -1.0998  0.7645  0.5295
 3028TIP3    H233280   6.394   6.622  19.456 -1.8736  0.7280  1.0279
 3029TIP3   OH233281   0.505   2.040  16.967 -0.6166  0.1630 -0.4526
 3029TIP3    H133282   0.429   1.984  16.956  0.3856 -1.2406 -0.5037
 3029TIP3    H233283   0.580   1.982  16.954  0.4852  1.2689  0.6554
 3030TIP3   OH233284   0.065   4.807  16.517 -0.0628 -0.5683 -0.3811
 3030TIP3    H133285   0.061   4.795  16.422  0.8001 -0.6434 -0.4141
 3030TIP3    H233286   0.143   4.760  16.544 -1.1446 -1.8710  0.5941
 3031TIP3   OH233287   7.442   1.511  17.658  0.4403  0.3112  0.1689
 3031TIP3    H133288   7.422   1.604  17.655 -0.5946  0.1419  1.2438
 3031TIP3    H233289   7.514   1.504  17.721 -0.8993  0.1872  1.7438
 3032TIP3   OH233290   2.187   3.997  19.086  0.7640  0.1633  0.2797
 3032TIP3    H133291   2.153   4.084  19.067  0.0369 -0.0508  0.5593
 3032TIP3    H233292   2.188   3.992  19.182  3.6024  0.9292  0.3952
 3033TIP3   OH233293   7.464   2.126  19.125 -0.1860 -0.8859 -0.8058
 3033TIP3    H133294   7.533   2.190  19.140 -1.4570 -0.0363  2.3003
 3033TIP3    H233295   7.404   2.168  19.064 -0.7600  0.7972  0.8233
 3034TIP3   OH233296   0.981   2.289  18.665  0.5668 -0.5382 -0.2336
 3034TIP3    H133297   0.985   2.301  18.570 -1.0342  0.2418 -0.2400
 3034TIP3    H233298   1.020   2.203  18.680 -0.7984 -1.5029 -1.8198
 3035TIP3   OH233299   6.759   6.969  18.252  0.0585  0.1815  0.2807
 3035TIP3    H133300   6.802   6.917  18.320  3.1400 -1.0706 -2.4064
 3035TIP3    H233301   6.718   6.904  18.195 -0.1286  1.0175 -0.5510
 3036TIP3   OH233302   6.054   6.381  17.383  0.5652 -0.2395  0.2365
 3036TIP3    H133303   6.100   6.329  17.316  0.5731  1.0079 -0.7567
 3036TIP3    H233304   6.006   6.447  17.333 -0.2325  0.1060  1.4229
 3037TIP3   OH233305   1.448   5.375  17.683  0.3793  0.1339  0.3243
 3037TIP3    H133306   1.465   5.320  17.759 -0.8746 -2.2832 -1.0207
 3037TIP3    H233307   1.422   5.459  17.720  1.2153 -0.5018  2.5150
 3038TIP3   OH233308   6.484   7.276  18.848  0.1141  0.3307  0.1148
 3038TIP3    H133309   6.508   7.197  18.895  2.4610  2.1165  2.1894
 3038TIP3    H233310   6.411   7.313  18.897 -1.5688 -0.8815 -1.3551
 3039TIP3   OH233311   6.625   4.524  19.181  0.0904 -0.6546  0.3640
 3039TIP3    H133312   6.642   4.593  19.245 -2.3713 -0.7683  1.2302
 3039TIP3    H233313   6.683   4.452  19.207  1.4463  0.4429  0.4698
 3040TIP3   OH233314   2.814   6.159  17.762 -0.5003 -0.0345 -0.5062
 3040TIP3    H133315   2.721   6.139  17.750 -0.4484 -0.4131 -0.2934
 3040TIP3    H233316   2.819   6.254  17.752 -1.0180  0.0725  0.1785
 3041TIP3   OH233317   0.741   4.257  17.842  0.4678  0.0351  0.1124
 3041TIP3    H133318   0.781   4.183  17.885  0.4466  0.7519  1.4114
 3041TIP3    H233319   0.791   4.333  17.872 -2.1763  1.0615  2.3826
 3042TIP3   OH233320   0.772   3.617  17.132 -0.4686  0.3002 -0.2020
 3042TIP3    H133321   0.765   3.659  17.218 -0.7445  2.0098 -1.0359
 3042TIP3    H233322   0.682   3.596  17.108 -0.2508 -2.4459  0.9346
 3043TIP3   OH233323   6.205   3.618  17.638 -0.0648  0.0098 -0.2786
 3043TIP3    H133324   6.207   3.705  17.598 -1.5514  0.4242  0.4846
 3043TIP3    H233325   6.166   3.562  17.572  0.1632  0.0777 -0.4737
 3044TIP3   OH233326   0.616   0.820  17.802 -0.1280  0.5461  0.4859
 3044TIP3    H133327   0.615   0.903  17.755 -0.5420 -0.3510 -1.1828
 3044TIP3    H233328   0.679   0.766  17.754 -0.2455 -0.2708  1.2189
 3045TIP3   OH233329   6.423   6.715  19.008 -0.3852 -0.0452 -0.3623
 3045TIP3    H133330   6.475   6.744  19.083 -1.2350  1.0573 -0.1616
 3045TIP3    H233331   6.460   6.763  18.934 -1.7374  1.6118 -0.0442
 3046TIP3   OH233332   1.192   6.167  18.689  0.4638 -0.0607 -0.1762
 3046TIP3    H133333   1.230   6.112  18.757 -0.6934 -1.4108 -0.5741
 3046TIP3    H233334   1.110   6.123  18.666  0.5178  0.7211 -1.9891
 3047TIP3   OH233335   1.782   4.083  19.383  0.0124  0.0602  0.0204
 3047TIP3    H133336   1.719   4.153  19.399 -1.7847 -1.3343 -0.6054
 3047TIP3    H233337   1.823   4.106  19.300  0.6183  1.1589  0.5986
 3048TIP3   OH233338   1.153   4.139  17.877 -0.0702  0.1223 -0.5825
 3048TIP3    H133339   1.137   4.202  17.947  0.7407  1.3492 -1.4624
 3048TIP3    H233340   1.247   4.142  17.862 -0.0900 -0.9078 -1.0208
 3049TIP3   OH233341   2.067   0.597  17.827  0.1618  0.5020 -0.5980
 3049TIP3    H133342   2.008   0.593  17.752 -0.4084 -0.0225 -0.1393
 3049TIP3    H233343   2.154   0.583  17.790 -0.1605 -0.2285 -1.1163
 3050TIP3   OH233344   1.955   3.708  19.168  0.4967  0.5148 -0.2448
 3050TIP3    H133345   1.986   3.785  19.217  0.0526 -0.5058  1.7629
 3050TIP3    H233346   1.866   3.732  19.140 -0.7599 -0.1352  2.7467
 3051TIP3   OH233347   6.142   5.724  19.261  0.0650  0.4257  0.8548
 3051TIP3    H133348   6.130   5.667  19.185 -0.8764  0.3799  1.0229
 3051TIP3    H233349   6.208   5.680  19.314 -0.6043 -0.4963  0.9512
 3052TIP3   OH233350   7.335   5.654  18.930  0.0518  0.2866  0.0374
 3052TIP3    H133351   7.295   5.628  18.847 -0.5269  0.0882  0.3753
 3052TIP3    H233352   7.324   5.578  18.987  1.1343  0.1327  0.0707
 3053TIP3   OH233353   2.113   4.501  17.011  0.0366 -0.1406 -0.3520
 3053TIP3    H133354   2.146   4.417  16.978 -0.9916 -0.3385 -0.8991
 3053TIP3    H233355   2.091   4.551  16.933 -0.1375  0.3213 -0.0116
 3054TIP3   OH233356   6.768   7.673  18.715 -0.4122 -0.2286  0.2023
 3054TIP3    H133357   6.831   7.642  18.780  0.2364 -1.2996 -0.8735
 3054TIP3    H233358   6.683   7.669  18.759  0.1714  0.5015  1.4347
 3055TIP3   OH233359   2.772   5.740  17.728 -0.0429 -0.4585  0.1877
 3055TIP3    H133360   2.693   5.788  17.752  0.4391  0.0632  0.7559
 3055TIP3    H233361   2.758   5.652  17.764 -0.1055 -0.1912  0.8362
 3056TIP3   OH233362   3.680   3.654  18.385  0.9396 -0.0146 -0.1436
 3056TIP3    H133363   3.692   3.560  18.370  1.2903  0.2922 -1.9757
 3056TIP3    H233364   3.760   3.694  18.352  0.0251  1.0602 -1.1496
 3057TIP3   OH233365   3.184   3.085  18.319 -0.4089  0.2017  0.4106
 3057TIP3    H133366   3.252   3.099  18.385  1.3582 -0.8365 -1.0750
 3057TIP3    H233367   3.185   2.990  18.305 -1.9355  0.2194  0.0707
 3058TIP3   OH233368   6.941   0.146  17.050 -0.1310 -0.2855 -0.0286
 3058TIP3    H133369   6.874   0.144  16.982  1.2280  0.7509 -1.4649
 3058TIP3    H233370   6.984   0.060  17.044 -2.2821 -1.6498  2.0307
 3059TIP3   OH233371   6.020   5.069  17.842 -0.0218  0.1769  0.3052
 3059TIP3    H133372   6.087   5.008  17.874 -2.0563 -0.9260  2.7940
 3059TIP3    H233373   6.029   5.066  17.746  2.6628 -0.7965  0.5085
 3060TIP3   OH233374   5.306   1.646  19.200  0.3370 -0.4635  0.3388
 3060TIP3    H133375   5.363   1.579  19.162 -0.5440 -3.0459  3.1516
 3060TIP3    H233376   5.255   1.679  19.126  2.1549 -1.4714 -1.4800
 3061TIP3   OH233377   6.428   1.272  16.863 -0.5937 -0.3539  0.1016
 3061TIP3    H133378   6.396   1.317  16.785 -1.8280 -1.8995 -0.3408
 3061TIP3    H233379   6.460   1.188  16.831 -0.8816 -0.9092  1.2146
 3062TIP3   OH233380   4.298   0.276  18.043  0.0573 -0.1578  0.1931
 3062TIP3    H133381   4.249   0.334  17.985  1.7942  1.8788  0.6124
 3062TIP3    H233382   4.252   0.193  18.039 -0.8226  0.3484 -2.8277
 3063TIP3   OH233383   7.608   0.308  17.833  0.0811 -0.5233  0.1911
 3063TIP3    H133384   7.618   0.359  17.913 -0.9785 -0.9658  0.6344
 3063TIP3    H233385   7.696   0.277  17.812  0.3362 -0.5789  1.3028
 3064TIP3   OH233386   7.621   0.255  18.365  0.5454 -0.1327  0.2283
 3064TIP3    H133387   7.605   0.163  18.340  0.5905  0.2992 -1.5413
 3064TIP3    H233388   7.714   0.258  18.387 -0.0081 -1.0642  3.1316
 3065TIP3   OH233389   4.195   2.733  18.802 -0.2158 -0.1268 -0.5252
 3065TIP3    H133390   4.130   2.691  18.746 -0.2958  0.4808 -0.9011
 3065TIP3    H233391   4.166   2.825  18.808  0.5318  0.1206 -0.5892
 3066TIP3   OH233392   6.745   5.494  18.499  0.2910  0.1781 -0.3720
 3066TIP3    H133393   6.769   5.404  18.480 -0.4987 -0.2139  0.4470
 3066TIP3    H233394   6.707   5.526  18.417 -2.1567 -1.1827  0.1316
 3067TIP3   OH233395   3.094   0.754  19.240 -0.1577 -0.5408 -0.1682
 3067TIP3    H133396   3.036   0.828  19.257 -0.0234 -0.8852  2.1063
 3067TIP3    H233397   3.039   0.676  19.256  0.2320 -0.9094 -0.5916
 3068TIP3   OH233398   0.959   4.582  18.635  0.1587 -0.5098 -0.1160
 3068TIP3    H133399   0.914   4.553  18.555 -0.0054  0.3083 -0.3317
 3068TIP3    H233400   0.938   4.514  18.700  0.0686 -1.0443 -0.6868
 3069TIP3   OH233401   4.741   4.464  18.326  0.0478  0.2213 -0.7173
 3069TIP3    H133402   4.668   4.482  18.266 -0.4462 -0.4391 -0.3302
 3069TIP3    H233403   4.778   4.382  18.295  1.7763  1.4097 -1.9789
 3070TIP3   OH233404   3.078   7.166  17.789 -0.3446  0.5475  0.3303
 3070TIP3    H133405   3.036   7.149  17.704  1.1786 -0.3652 -0.2690
 3070TIP3    H233406   3.006   7.195  17.845 -1.9325 -1.5620 -0.4582
 3071TIP3   OH233407   3.119   6.434  19.178 -1.0917  0.1392  0.1163
 3071TIP3    H133408   3.188   6.493  19.207 -2.2412  2.1992 -1.1607
 3071TIP3    H233409   3.165   6.354  19.152  0.6545  0.9670  0.5701
 3072TIP3   OH233410   5.178   3.590  16.947  0.2648 -0.3057  0.0314
 3072TIP3    H133411   5.226   3.673  16.944  0.7153 -0.5568  0.0550
 3072TIP3    H233412   5.238   3.530  16.992  0.8684 -1.2278 -1.9140
 3073TIP3   OH233413   0.881   1.740  18.944  0.2178 -0.5440 -0.0803
 3073TIP3    H133414   0.946   1.787  18.996  0.0336 -0.1727 -0.1842
 3073TIP3    H233415   0.932   1.672  18.899  0.4570 -0.5538  0.1992
 3074TIP3   OH233416   5.133   7.087  18.596 -0.2888  0.5159 -0.1160
 3074TIP3    H133417   5.197   7.016  18.603 -0.1156  0.7013  0.1933
 3074TIP3    H233418   5.131   7.126  18.683 -0.2010  1.0576 -0.3548
 3075TIP3   OH233419   6.394   1.010  19.397  0.2435 -0.3517  0.2453
 3075TIP3    H133420   6.351   1.087  19.362  2.6699  0.5064 -1.1065
 3075TIP3    H233421   6.415   1.032  19.488  0.8062  0.5636 -0.0985
 3076TIP3   OH233422   1.567   1.699  17.824  0.2193 -0.1715 -0.0373
 3076TIP3    H133423   1.648   1.750  17.813 -0.9755  1.3925 -2.2038
 3076TIP3    H233424   1.514   1.751  17.884  0.3209 -0.5976  0.4294
 3077TIP3   OH233425   6.117   0.851  18.975  0.0016  0.0034  0.5309
 3077TIP3    H133426   6.197   0.863  18.924 -1.4670  0.4762 -1.7802
 3077TIP3    H233427   6.126   0.763  19.013  1.3315 -0.1873 -0.1802
 3078TIP3   OH233428   7.301   2.599  16.877 -0.2072  0.1948  0.2867
 3078TIP3    H133429   7.253   2.617  16.796 -0.1736  0.7230  0.3839
 3078TIP3    H233430   7.235   2.561  16.936 -0.0074 -1.1428 -0.3233
 3079TIP3   OH233431   5.196   4.581  18.786 -0.0059 -0.4393 -0.3022
 3079TIP3    H133432   5.214   4.583  18.880 -1.5257  1.5953  0.0058
 3079TIP3    H233433   5.129   4.514  18.776  1.1318 -1.6328 -0.1706
 3080TIP3   OH233434   0.306   7.119  17.800 -0.3997 -0.0229 -0.2904
 3080TIP3    H133435   0.210   7.124  17.802 -0.3737  0.5412  1.6427
 3080TIP3    H233436   0.325   7.034  17.759 -1.7158 -0.2081 -0.5645
 3081TIP3   OH233437   2.966   2.306  19.054 -0.4270  0.1316 -0.2807
 3081TIP3    H133438   2.910   2.286  19.129 -2.4847  0.7015 -1.5975
 3081TIP3    H233439   3.040   2.245  19.063 -1.5721 -1.1452  1.1462
 3082TIP3   OH233440   0.976   4.679  18.250 -0.1661  0.0777  0.0612
 3082TIP3    H133441   1.046   4.627  18.291 -0.0779  0.4866  0.4389
 3082TIP3    H233442   1.020   4.758  18.219 -0.5224  0.5272  0.6704
 3083TIP3   OH233443   0.382   1.405  17.400 -0.5891 -0.3938  0.3003
 3083TIP3    H133444   0.413   1.430  17.313 -0.9837 -0.2253  0.2080
 3083TIP3    H233445   0.337   1.483  17.433 -0.1243 -0.3363  0.8046
 3084TIP3   OH233446   1.106   3.040  17.800  0.0953 -0.0002  0.3812
 3084TIP3    H133447   1.014   3.027  17.778  0.4902 -0.5668 -1.0420
 3084TIP3    H233448   1.122   2.980  17.873 -0.4367 -0.5741  0.0352
 3085TIP3   OH233449   4.666   2.166  18.646  0.1538 -0.1966  0.3070
 3085TIP3    H133450   4.727   2.235  18.623  0.0070 -0.1035  0.1944
 3085TIP3    H233451   4.602   2.166  18.575  1.5183 -2.1012 -1.0545
 3086TIP3   OH233452   1.597   4.553  18.865 -0.2185 -0.2391 -0.6350
 3086TIP3    H133453   1.539   4.560  18.941 -1.0895  1.3749 -1.3904
 3086TIP3    H233454   1.540   4.569  18.790  0.9761  0.2062 -1.4775
 3087TIP3   OH233455   4.429   3.985  18.832  0.3581  0.0736  0.6786
 3087TIP3    H133456   4.458   4.073  18.853  0.8395  0.1435 -0.2440
 3087TIP3    H233457   4.492   3.928  18.876  0.3940  0.1946  0.7845
 3088TIP3   OH233458   7.416   7.365  17.703  0.0175 -0.5621  0.3880
 3088TIP3    H133459   7.472   7.387  17.777  0.5871  0.2959 -0.2720
 3088TIP3    H233460   7.474   7.372  17.627 -0.9679  0.3080 -0.3115
 3089TIP3   OH233461   2.433   3.769  19.039  1.0097 -0.7010 -0.2115
 3089TIP3    H133462   2.502   3.718  18.996  0.2881 -1.0853 -0.9361
 3089TIP3    H233463   2.462   3.860  19.031  1.8428 -0.9125  0.2508
 3090TIP3   OH233464   4.902   6.101  18.008  0.3877 -0.0312 -0.0037
 3090TIP3    H133465   4.896   6.037  18.079 -0.5406 -0.5732 -0.5372
 3090TIP3    H233466   4.835   6.072  17.946  1.3820  0.2479 -1.2365
 3091TIP3   OH233467   2.683   4.888  16.268  0.0345  0.1427 -0.1695
 3091TIP3    H133468   2.597   4.870  16.305 -0.5397  0.4300 -1.3116
 3091TIP3    H233469   2.672   4.872  16.174  1.1947  0.2966 -0.3438
 3092TIP3   OH233470   6.004   5.959  18.643  0.1314  0.4320  0.5714
 3092TIP3    H133471   6.078   5.941  18.701  0.0175 -0.1342  0.5481
 3092TIP3    H233472   5.960   6.034  18.683  0.1975  0.2030  1.0845
 3093TIP3   OH233473   0.130   0.149  17.542 -0.2676  0.1419 -0.4813
 3093TIP3    H133474   0.044   0.110  17.558 -0.1265  0.4534  1.1532
 3093TIP3    H233475   0.158   0.110  17.459 -2.2922  0.6137 -1.4655
 3094TIP3   OH233476   0.330   7.025  19.391  0.3532 -0.1005 -0.0205
 3094TIP3    H133477   0.319   7.020  19.486  1.4906 -1.2124  0.0697
 3094TIP3    H233478   0.420   7.052  19.378  0.9674 -2.2752 -0.7665
 3095TIP3   OH233479   5.643   2.580  18.656 -0.4007  0.5367 -0.5939
 3095TIP3    H133480   5.699   2.540  18.589 -0.2573 -1.0791  0.4579
 3095TIP3    H233481   5.626   2.510  18.718 -1.5273  1.6944  0.4435
 3096TIP3   OH233482   5.249   4.962  18.316  0.1151 -0.1925  0.5723
 3096TIP3    H133483   5.190   4.899  18.356  0.8099 -0.9411  0.4391
 3096TIP3    H233484   5.217   5.047  18.347 -0.9072 -0.5886  0.6436
 3097TIP3   OH233485   1.550   2.568  17.404 -0.2877  0.2618  0.1352
 3097TIP3    H133486   1.534   2.499  17.340 -1.8567 -0.7783  1.5449
 3097TIP3    H233487   1.572   2.520  17.484  1.0344  1.5018  0.5452
 3098TIP3   OH233488   0.980   5.642  18.274 -0.0441  0.4778 -0.2319
 3098TIP3    H133489   1.011   5.687  18.352 -2.0060  1.1142  0.2374
 3098TIP3    H233490   1.019   5.554  18.280 -1.0917  0.0928  2.1413
 3099TIP3   OH233491   4.224   3.650  17.714  0.4980 -0.3478  0.2424
 3099TIP3    H133492   4.182   3.616  17.635 -0.5812  0.2838  0.5186
 3099TIP3    H233493   4.221   3.746  17.703  1.4742 -0.2706  0.4906
 3100TIP3   OH233494   4.382   6.705  18.369  0.0261 -0.1545  0.1201
 3100TIP3    H133495   4.406   6.742  18.453  0.3773 -1.1358  0.4677
 3100TIP3    H233496   4.446   6.741  18.307 -0.3011  0.6519  0.2335
 3101TIP3   OH233497   4.486   0.863  18.902  0.0451 -0.2449 -0.2613
 3101TIP3    H133498   4.574   0.848  18.868  1.0806  0.7568  1.7974
 3101TIP3    H233499   4.454   0.940  18.854  0.1970 -0.6963 -1.1096
 3102TIP3   OH233500   4.049   4.032  18.448 -0.5393  0.8489 -0.7729
 3102TIP3    H133501   4.124   4.059  18.395 -0.9815  0.1833 -1.7714
 3102TIP3    H233502   3.990   4.108  18.445  0.3929  1.6717  0.6517
 3103TIP3   OH233503   3.153   1.754  17.489 -0.0091 -0.0277  0.0269
 3103TIP3    H133504   3.202   1.833  17.467 -0.7528 -0.1970 -2.5298
 3103TIP3    H233505   3.180   1.690  17.423 -1.2212 -1.1422  0.5751
 3104TIP3   OH233506   0.651   3.905  17.022  0.1922 -0.3135  0.2510
 3104TIP3    H133507   0.680   3.854  16.947  0.7139  1.5778 -0.8987
 3104TIP3    H233508   0.557   3.891  17.026  0.2782 -1.0966 -0.2264
 3105TIP3   OH233509   2.640   6.321  18.251  0.5531  0.3081  0.4465
 3105TIP3    H133510   2.647   6.296  18.343  1.8409  0.6078  0.4591
 3105TIP3    H233511   2.635   6.238  18.204 -3.6317  0.1202  0.9147
 3106TIP3   OH233512   1.161   6.819  17.909  0.3726 -1.3628 -0.0625
 3106TIP3    H133513   1.185   6.886  17.973 -1.0273 -1.6917  0.8286
 3106TIP3    H233514   1.183   6.859  17.824 -0.0060  0.0405  0.4719
 3107TIP3   OH233515   0.854   7.540  19.099 -0.5520  0.1400 -0.5111
 3107TIP3    H133516   0.855   7.474  19.029  0.7628 -0.0498 -0.3340
 3107TIP3    H233517   0.773   7.522  19.147 -1.2098 -0.0684 -1.6498
 3108TIP3   OH233518   7.616   0.450  17.376  0.1049  0.3215 -0.2902
 3108TIP3    H133519   7.554   0.403  17.432  0.4154 -0.7121 -0.7867
 3108TIP3    H233520   7.615   0.403  17.293  0.4389  1.1999 -0.8092
 3109TIP3   OH233521   6.807   7.098  17.802 -0.5331 -0.3532 -0.5120
 3109TIP3    H133522   6.778   7.025  17.858  1.8697 -1.4545 -0.5698
 3109TIP3    H233523   6.847   7.055  17.726  0.2856  1.0370 -0.9006
 3110TIP3   OH233524   2.973   1.473  16.596  0.2655  0.2684  0.3563
 3110TIP3    H133525   3.038   1.520  16.545  0.7687 -1.5560 -0.7632
 3110TIP3    H233526   2.994   1.494  16.687  1.3124  1.0930 -0.0635
 3111TIP3   OH233527   2.532   3.840  17.574 -0.7536  0.2592  0.1339
 3111TIP3    H133528   2.609   3.896  17.582 -2.0744  1.8858  2.8672
 3111TIP3    H233529   2.550   3.766  17.632 -0.5442 -0.3077 -0.6330
 3112TIP3   OH233530   1.503   0.065  19.324  0.1629 -0.1493 -0.4199
 3112TIP3    H133531   1.473   0.148  19.287 -0.7173  0.6109  1.8322
 3112TIP3    H233532   1.427   0.007  19.317 -0.0746  0.0592  0.2962
 3113TIP3   OH233533   3.208   3.362  18.735  0.1016  0.0667  0.6101
 3113TIP3    H133534   3.178   3.412  18.659 -0.5990 -1.0535  0.1146
 3113TIP3    H233535   3.287   3.407  18.764  0.2664  0.6408 -0.6578
 3114TIP3   OH233536   2.744   2.144  16.595  0.0331 -0.2640  0.3651
 3114TIP3    H133537   2.657   2.177  16.618  1.3447  2.4892  1.9429
 3114TIP3    H233538   2.745   2.053  16.625 -1.4946  0.4277  2.7600
 3115TIP3   OH233539   3.449   2.809  19.517 -0.2861 -0.1976 -0.5278
 3115TIP3    H133540   3.419   2.742  19.579 -1.1164 -0.2226 -0.9495
 3115TIP3    H233541   3.533   2.776  19.485  1.4332  0.9595  2.4048
 3116TIP3   OH233542   0.890   5.957  18.275 -0.4131  0.1625  0.2092
 3116TIP3    H133543   0.967   5.961  18.219  0.8743  0.4383  1.9280
 3116TIP3    H233544   0.847   5.875  18.250 -0.5152  0.7805 -1.8875
 3117TIP3   OH233545   7.426   6.205  18.283  0.4317  0.2422 -0.2347
 3117TIP3    H133546   7.447   6.258  18.360 -0.3313  0.6998 -0.3283
 3117TIP3    H233547   7.445   6.115  18.310 -2.1565  0.0559  1.4064
 3118TIP3   OH233548   1.266   1.940  18.483  0.5176  0.0039  0.5834
 3118TIP3    H133549   1.231   1.926  18.395 -0.8864 -1.4986  1.3181
 3118TIP3    H233550   1.324   1.865  18.497 -1.3909 -1.3234  1.8864
 3119TIP3   OH233551   4.409   3.959  17.808  0.4263 -0.2762 -0.0975
 3119TIP3    H133552   4.315   3.940  17.807  0.2824  0.3707  0.3645
 3119TIP3    H233553   4.434   3.959  17.716 -0.3100  0.8530 -0.3179
 3120TIP3   OH233554   3.042   2.589  18.189 -0.3945 -0.4275 -0.4713
 3120TIP3    H133555   3.135   2.568  18.181 -0.3789 -0.6292  0.1638
 3120TIP3    H233556   3.002   2.553  18.111 -0.1846 -1.7427  0.0090
 3121TIP3   OH233557   0.735   0.487  18.605 -0.5298 -0.7729  0.0676
 3121TIP3    H133558   0.668   0.540  18.649 -0.2687 -0.6116  0.2769
 3121TIP3    H233559   0.706   0.483  18.514 -0.0417  0.5932 -0.1764
 3122TIP3   OH233560   2.031   0.664  18.292  0.1256 -0.1609  0.2740
 3122TIP3    H133561   2.080   0.588  18.259  1.1705  1.3742 -1.9334
 3122TIP3    H233562   1.942   0.651  18.258 -0.0992 -1.0777  1.1468
 3123TIP3   OH233563   2.470   4.362  16.924 -0.0490  0.1743  0.1006
 3123TIP3    H133564   2.410   4.292  16.950 -0.5296  0.2270 -0.8428
 3123TIP3    H233565   2.418   4.420  16.870 -0.1211  2.2498  2.2542
 3124TIP3   OH233566   1.046   7.258  19.248 -0.2509 -0.3331 -0.2833
 3124TIP3    H133567   1.105   7.300  19.185  1.8576 -1.0142  1.1347
 3124TIP3    H233568   1.000   7.331  19.290  1.5787  0.4610  0.4577
 3125TIP3   OH233569   7.240   6.401  19.727 -0.0424 -0.6649 -0.0639
 3125TIP3    H133570   7.230   6.495  19.713 -0.9151 -0.6670  0.4373
 3125TIP3    H233571   7.157   6.374  19.766  0.4345 -1.5338  0.3807
 3126TIP3   OH233572   6.007   1.012  18.069 -0.4244 -0.3542  0.5568
 3126TIP3    H133573   5.997   0.931  18.118 -2.1673  0.5631  1.8285
 3126TIP3    H233574   6.072   1.062  18.118  2.4822 -1.8221 -1.5245
 3127TIP3   OH233575   5.060   4.002  17.417 -0.0173  0.0069  0.3817
 3127TIP3    H133576   4.975   3.959  17.413  0.4043 -0.9906  1.5323
 3127TIP3    H233577   5.044   4.083  17.465 -0.3058 -0.1844  0.6050
 3128TIP3   OH233578   1.928   1.971  16.387 -0.0301 -0.1810 -0.6743
 3128TIP3    H133579   2.019   1.956  16.359  0.5135  0.1987  0.7939
 3128TIP3    H233580   1.894   1.883  16.406  0.9870 -0.1615  1.5038
 3129TIP3   OH233581   1.055   4.356  17.454  0.1360  0.1102 -0.4864
 3129TIP3    H133582   1.059   4.364  17.359  0.5970 -1.8918 -0.6836
 3129TIP3    H233583   0.968   4.322  17.473 -0.2619  1.2779 -0.0801
 3130TIP3   OH233584   7.220   5.490  18.012 -0.4297  0.2484  0.1094
 3130TIP3    H133585   7.295   5.476  18.071 -0.0818  1.3793 -0.0509
 3130TIP3    H233586   7.179   5.403  18.005 -0.1259 -0.0326  1.5332
 3131TIP3   OH233587   4.787   6.651  18.095  0.5071  0.3455  0.2521
 3131TIP3    H133588   4.874   6.613  18.108  1.1620  1.4314 -0.8077
 3131TIP3    H233589   4.778   6.657  18.000 -0.5919  0.5732  0.3625
 3132TIP3   OH233590   4.738   3.811  18.370 -0.0692 -0.0035  0.2582
 3132TIP3    H133591   4.732   3.815  18.466  0.6050  1.8146  0.2647
 3132TIP3    H233592   4.647   3.806  18.341 -0.3609  0.9773  0.9668
 3133TIP3   OH233593   1.059   2.222  18.945  0.3243  0.0006 -0.0390
 3133TIP3    H133594   0.971   2.242  18.912 -0.3117 -0.6371  1.1872
 3133TIP3    H233595   1.110   2.201  18.867 -1.2029 -1.7707 -0.6190
 3134TIP3   OH233596   4.865   5.404  17.681 -0.0886  0.5855 -0.2429
 3134TIP3    H133597   4.849   5.312  17.700 -0.4817  0.5753 -0.6042
 3134TIP3    H233598   4.954   5.406  17.646  0.2310  0.4633  0.5551
 3135TIP3   OH233599   0.636   5.076  18.044  0.4634 -0.2139 -0.6515
 3135TIP3    H133600   0.718   5.091  17.997 -0.1202 -1.6833 -2.2227
 3135TIP3    H233601   0.602   4.994  18.008 -1.0745 -0.3117  0.8806
 3136TIP3   OH233602   5.286   5.665  17.629  0.8109 -0.2105 -0.1684
 3136TIP3    H133603   5.264   5.632  17.542  1.3186 -1.9981  0.3354
 3136TIP3    H233604   5.206   5.706  17.661  0.7429  0.8457 -1.6239
 3137TIP3   OH233605   4.651   5.186  17.460 -0.4326  0.0315 -0.2063
 3137TIP3    H133606   4.672   5.166  17.551 -1.0727  1.3447  0.2605
 3137TIP3    H233607   4.581   5.125  17.437 -1.3263  0.6865  0.6976
 3138TIP3   OH233608   1.045   0.800  17.978  0.3872  0.1452  0.8078
 3138TIP3    H133609   1.069   0.849  17.899 -0.5030 -0.4638  0.1256
 3138TIP3    H233610   0.988   0.858  18.027  0.3127  0.2384  0.6107
 3139TIP3   OH233611   2.291   0.699  17.994 -0.0244  0.2663 -0.3332
 3139TIP3    H133612   2.202   0.667  17.988 -0.3691  1.1825 -0.2698
 3139TIP3    H233613   2.299   0.762  17.923  0.2197  0.9900  0.3213
 3140TIP3   OH233614   3.862   0.160  18.785  0.5423  1.1694 -0.1070
 3140TIP3    H133615   3.892   0.070  18.796  0.1936  1.2845  2.1402
 3140TIP3    H233616   3.814   0.159  18.703 -1.3984 -1.2369  0.9398
 3141TIP3   OH233617   4.721   3.790  19.286 -0.3786 -0.3887  0.1871
 3141TIP3    H133618   4.790   3.739  19.244  0.3754  1.2865 -0.6882
 3141TIP3    H233619   4.764   3.828  19.363 -1.0000 -1.2269  0.9639
 3142TIP3   OH233620   1.360   4.115  18.786 -0.1426 -0.0676  0.3829
 3142TIP3    H133621   1.431   4.176  18.765  1.1875 -1.3887  0.8537
 3142TIP3    H233622   1.284   4.151  18.741  1.5381 -0.4428 -3.0905
 3143TIP3   OH233623   3.176   6.762  18.094 -0.2375  0.5215 -0.4014
 3143TIP3    H133624   3.132   6.686  18.132 -0.5330 -0.2539 -2.2126
 3143TIP3    H233625   3.246   6.725  18.040  0.4826  1.6052 -0.2540
 3144TIP3   OH233626   1.526   1.572  16.504  0.7827 -0.3984  0.1929
 3144TIP3    H133627   1.473   1.648  16.480 -1.6925 -2.8846 -3.2263
 3144TIP3    H233628   1.462   1.504  16.525  2.7154 -2.4650 -0.1741
 3145TIP3   OH233629   0.446   2.155  18.584 -0.1803 -0.4406  0.0762
 3145TIP3    H133630   0.428   2.090  18.652  0.5353 -0.3819  0.3294
 3145TIP3    H233631   0.541   2.168  18.588 -0.2619  0.3000 -0.2595
 3146TIP3   OH233632   6.150   6.401  19.186  0.0546 -0.1476 -0.7507
 3146TIP3    H133633   6.229   6.437  19.226 -0.2136  0.4637 -0.7565
 3146TIP3    H233634   6.129   6.462  19.116 -0.1192 -0.6011 -1.1008
 3147TIP3   OH233635   5.836   4.858  18.562 -0.4651 -0.0879  0.1969
 3147TIP3    H133636   5.770   4.871  18.630 -0.7923 -1.7514  0.2544
 3147TIP3    H233637   5.856   4.946  18.530 -1.3509  0.5983  1.4549
 3148TIP3   OH233638   4.177   3.164  18.783 -0.2030  0.2117 -0.2556
 3148TIP3    H133639   4.140   3.235  18.730 -1.0084  0.7441  0.9808
 3148TIP3    H233640   4.184   3.091  18.722 -0.9959  0.8317 -1.1301
 3149TIP3   OH233641   4.881   7.214  19.251 -0.4061  0.2351  0.2173
 3149TIP3    H133642   4.813   7.276  19.278 -2.8361 -0.6689 -3.0549
 3149TIP3    H233643   4.842   7.128  19.267  0.5169 -0.3321 -0.5062
 3150TIP3   OH233644   6.049   3.587  18.062  0.7954  0.2144  0.2884
 3150TIP3    H133645   6.032   3.493  18.055  0.6919  0.3376 -2.2115
 3150TIP3    H233646   5.963   3.627  18.073  0.7285  0.0826  0.2366
 3151TIP3   OH233647   3.253   1.996  17.384 -0.0567  0.3939  0.3515
 3151TIP3    H133648   3.277   2.085  17.357 -2.3891  0.8471 -0.5268
 3151TIP3    H233649   3.247   1.948  17.301 -2.0357  0.3623  0.4559
 3152TIP3   OH233650   1.987   7.460  19.169  0.0109  0.5942  0.0070
 3152TIP3    H133651   1.967   7.501  19.085  0.4262 -1.1666 -0.9833
 3152TIP3    H233652   1.911   7.405  19.188 -0.0497  0.9260  0.7589
 3153TIP3   OH233653   4.904   1.036  19.187 -0.2945 -0.0691 -0.7586
 3153TIP3    H133654   4.914   1.004  19.097  1.3009  1.4175 -1.1695
 3153TIP3    H233655   4.974   1.100  19.198 -1.3756  0.9047  1.0692
 3154TIP3   OH233656   2.923   3.613  18.814 -0.3293  0.6855 -0.1432
 3154TIP3    H133657   2.944   3.526  18.848 -0.2291  1.5293  2.1289
 3154TIP3    H233658   3.003   3.665  18.828 -0.3947  1.1773 -1.4424
 3155TIP3   OH233659   2.535   5.840  18.729 -0.9455 -0.0784 -0.2663
 3155TIP3    H133660   2.500   5.922  18.695  0.5566 -0.0922 -2.0734
 3155TIP3    H233661   2.619   5.830  18.683 -0.0880 -1.5713  1.4875
 3156TIP3   OH233662   1.206   0.050  17.954  0.0993  0.0527  0.4355
 3156TIP3    H133663   1.229   0.045  18.047  1.5809  0.5736  0.1321
 3156TIP3    H233664   1.207   0.144  17.935 -0.3712 -0.0439 -0.0688
 3157TIP3   OH233665   3.098   5.434  16.404 -0.6476  0.3787  0.1870
 3157TIP3    H133666   3.123   5.357  16.455 -0.2210 -0.2337 -0.9194
 3157TIP3    H233667   3.034   5.479  16.459 -0.7197 -0.6306  0.9595
 3158TIP3   OH233668   5.606   7.531  16.841 -0.1111  0.2851 -0.5254
 3158TIP3    H133669   5.614   7.600  16.907 -0.7797  0.1386 -0.2836
 3158TIP3    H233670   5.672   7.553  16.775  1.5372 -0.3278  0.8553
 3159TIP3   OH233671   5.143   6.238  17.222  0.2107  0.3138  0.5282
 3159TIP3    H133672   5.053   6.266  17.205 -0.7042 -1.2813  2.3622
 3159TIP3    H233673   5.196   6.315  17.203 -1.4127  1.0411 -1.4651
 3160TIP3   OH233674   3.000   3.704  18.101  0.6993 -0.2514  0.8670
 3160TIP3    H133675   3.060   3.708  18.027  1.0939  0.4770  1.2173
 3160TIP3    H233676   3.046   3.651  18.167  1.7384  1.7161  1.8029
 3161TIP3   OH233677   4.016   0.483  19.096  0.0939 -0.1472 -0.0346
 3161TIP3    H133678   3.955   0.422  19.138 -0.6471 -0.1248 -1.0178
 3161TIP3    H233679   4.023   0.451  19.006 -1.4062  1.9509 -0.9920
 3162TIP3   OH233680   7.020   1.063  17.080  0.1241  0.2052  0.1426
 3162TIP3    H133681   7.052   1.152  17.069 -0.4938  0.2294 -1.9463
 3162TIP3    H233682   7.076   1.010  17.023 -0.5543 -0.4615  0.0786
 3163TIP3   OH233683   1.547   2.201  16.902  0.1533 -0.7309 -0.1619
 3163TIP3    H133684   1.486   2.142  16.858 -1.4673  0.9008 -0.2039
 3163TIP3    H233685   1.537   2.284  16.857 -0.2540  0.5250  2.1167
 3164TIP3   OH233686   1.521   0.063  18.593  0.3027 -0.0679  0.1936
 3164TIP3    H133687   1.545   0.134  18.653  2.9249 -0.7996  0.1501
 3164TIP3    H233688   1.456   0.012  18.640  0.6481  0.6376  1.4793
 3165TIP3   OH233689   0.920   5.130  18.573 -0.1067 -0.0889 -0.2148
 3165TIP3    H133690   0.998   5.094  18.615  1.4404  0.8330 -2.1393
 3165TIP3    H233691   0.892   5.061  18.513 -2.8079 -1.7505  2.6845
 3166TIP3   OH233692   1.950   3.117  18.746 -0.5147 -0.7297  0.1553
 3166TIP3    H133693   1.996   3.126  18.829 -1.3584 -3.1745  0.9630
 3166TIP3    H233694   1.867   3.075  18.768 -0.7624 -1.4453 -1.8917
 3167TIP3   OH233695   4.819   0.978  18.374  0.2085 -0.1486  0.1476
 3167TIP3    H133696   4.891   1.002  18.316 -0.8432 -0.1513 -1.2132
 3167TIP3    H233697   4.800   0.887  18.353 -0.0149 -0.2295  0.6834
 3168TIP3   OH233698   3.014   3.242  18.508  0.6602 -0.2137 -0.1666
 3168TIP3    H133699   2.961   3.315  18.476  0.3988  0.2525  1.2562
 3168TIP3    H233700   3.057   3.207  18.429 -0.4989  0.4090 -1.1074
 3169TIP3   OH233701   7.074   1.305  19.279 -0.8065 -0.0548  0.2341
 3169TIP3    H133702   7.045   1.216  19.303  1.3138 -0.5957  0.9705
 3169TIP3    H233703   7.122   1.335  19.355  2.8097 -0.2631 -1.7757
 3170TIP3   OH233704   0.122   5.618  18.079  0.0685 -0.1058  0.0507
 3170TIP3    H133705   0.049   5.558  18.093  0.4210 -0.3538  0.9062
 3170TIP3    H233706   0.096   5.699  18.121 -0.8233  0.7054 -1.9483
 3171TIP3   OH233707   7.438   0.674  19.438 -0.1600  0.1627  0.6249
 3171TIP3    H133708   7.377   0.621  19.489 -1.0324  1.6580  1.1908
 3171TIP3    H233709   7.432   0.638  19.349  0.3313 -1.5563  1.2364
 3172TIP3   OH233710   3.271   7.392  17.185 -0.0822 -0.1085 -0.1141
 3172TIP3    H133711   3.270   7.458  17.254  0.1492 -1.6911  1.4724
 3172TIP3    H233712   3.319   7.432  17.113  1.4332  0.8886  1.3929
 3173TIP3   OH233713   0.987   3.899  17.584  0.4428 -0.1070  0.2298
 3173TIP3    H133714   1.020   3.813  17.556  1.7385  0.5092 -0.2095
 3173TIP3    H233715   1.042   3.962  17.538 -1.1138  0.9905 -0.1856
 3174TIP3   OH233716   1.084   4.759  19.148 -0.1426 -0.2964 -0.2481
 3174TIP3    H133717   1.131   4.804  19.077 -0.4715 -1.6405 -1.3765
 3174TIP3    H233718   0.994   4.755  19.117  0.1287 -2.9753 -0.9035
 3175TIP3   OH233719   1.009   2.404  17.455  0.5240  0.3376  0.0270
 3175TIP3    H133720   1.066   2.442  17.387  1.5908 -0.4540  0.4510
 3175TIP3    H233721   1.043   2.440  17.537  1.2844 -1.1428  0.4017
 3176TIP3   OH233722   4.102   2.985  18.992  0.4580 -0.0087 -0.6296
 3176TIP3    H133723   4.026   2.939  18.956  0.3994  0.6359 -1.3430
 3176TIP3    H233724   4.134   3.039  18.920  0.4206  1.2278  0.2501
 3177TIP3   OH233725   5.227   5.617  18.069  0.1165  0.1171 -0.2933
 3177TIP3    H133726   5.207   5.700  18.024 -1.2679 -1.2767 -2.4780
 3177TIP3    H233727   5.322   5.613  18.072  0.2119  1.8917  0.1180
 3178TIP3   OH233728   2.003   0.265  17.374  0.0254  0.2162  0.0474
 3178TIP3    H133729   1.937   0.196  17.381  1.1252 -0.8547 -0.0165
 3178TIP3    H233730   2.023   0.289  17.465  0.1316 -0.0051  0.0814
 3179TIP3   OH233731   2.871   1.370  17.786  0.7798 -0.0014 -0.2233
 3179TIP3    H133732   2.914   1.432  17.728  0.0837  1.4206  0.7170
 3179TIP3    H233733   2.794   1.417  17.818  1.6387 -0.3114  2.5934
 3180TIP3   OH233734   7.285   0.988  17.295  0.5679 -0.1176  0.2923
 3180TIP3    H133735   7.289   0.920  17.362 -1.5504 -0.1996  0.3889
 3180TIP3    H233736   7.235   1.059  17.336 -0.1416  0.1169 -0.9374
 3181TIP3   OH233737   2.845   5.330  17.493  0.0260  0.2518 -0.0153
 3181TIP3    H133738   2.935   5.321  17.524 -0.1023 -0.1431  0.2504
 3181TIP3    H233739   2.850   5.311  17.399  0.2598  0.4733 -0.0483
 3182TIP3   OH233740   1.087   2.907  18.042 -0.5304  0.0606  0.0747
 3182TIP3    H133741   1.015   2.844  18.038 -0.5229  0.0926 -1.3692
 3182TIP3    H233742   1.046   2.988  18.072 -0.5543 -0.5823  1.8877
 3183TIP3   OH233743   3.986   6.513  17.577  0.5707  0.8533 -0.5431
 3183TIP3    H133744   4.057   6.479  17.523  2.4984  1.1010  1.6987
 3183TIP3    H233745   4.005   6.606  17.587  0.6733  0.6942  1.0566
 3184TIP3   OH233746   0.974   0.840  18.467  0.1143  0.5074  0.1442
 3184TIP3    H133747   0.922   0.795  18.401 -0.9212 -0.6926  1.7103
 3184TIP3    H233748   1.050   0.785  18.481 -1.4299 -1.2340  2.4743
 3185TIP3   OH233749   2.088   2.579  16.674 -0.2276  0.3283  0.4129
 3185TIP3    H133750   2.157   2.644  16.688  0.9166 -0.3764 -1.5055
 3185TIP3    H233751   2.133   2.505  16.634 -2.1482 -0.0096 -1.3029
 3186TIP3   OH233752   0.262   3.167  18.746  0.0523 -0.4118 -0.4080
 3186TIP3    H133753   0.213   3.248  18.760 -0.4382 -0.6666 -0.6464
 3186TIP3    H233754   0.353   3.196  18.734 -0.5135  0.4362 -3.6493
 3187TIP3   OH233755   0.414   4.944  17.530  0.1598  0.0939  0.2883
 3187TIP3    H133756   0.348   4.926  17.463 -0.0952 -1.0410  0.8145
 3187TIP3    H233757   0.490   4.976  17.481 -0.0793 -0.5472 -0.5210
 3188TIP3   OH233758   0.865   5.800  19.454 -0.2802  0.3796  0.5921
 3188TIP3    H133759   0.861   5.766  19.365 -0.7010  0.5800  0.5340
 3188TIP3    H233760   0.829   5.888  19.448 -0.8413  0.1881  1.0613
 3189TIP3   OH233761   5.927   2.645  18.839 -0.1506 -0.2256 -0.4518
 3189TIP3    H133762   5.904   2.715  18.777 -0.4228  0.5521  0.4952
 3189TIP3    H233763   5.981   2.689  18.904 -1.9559 -0.4019  1.2629
 3190TIP3   OH233764   2.325   3.528  17.241  0.3630  0.1490 -0.7662
 3190TIP3    H133765   2.310   3.498  17.151 -0.8203  0.1657 -0.5885
 3190TIP3    H233766   2.404   3.581  17.235  1.0319 -0.8795 -1.5557
 3191TIP3   OH233767   1.983   5.629  17.442  0.3214 -0.0654  0.1853
 3191TIP3    H133768   2.046   5.557  17.440  0.5583  0.1304  0.6021
 3191TIP3    H233769   1.955   5.634  17.533  1.8779  1.7306  0.6259
 3192TIP3   OH233770   1.773   7.267  16.837  0.4874 -0.1746  0.0244
 3192TIP3    H133771   1.685   7.254  16.802  0.5386 -4.0759  0.8660
 3192TIP3    H233772   1.759   7.297  16.927  0.0156  0.0212 -0.1152
 3193TIP3   OH233773   2.671   1.812  19.012 -0.2381 -0.7342  0.7806
 3193TIP3    H133774   2.606   1.861  19.062 -1.1758 -1.4612  0.3128
 3193TIP3    H233775   2.657   1.720  19.038  1.0799 -0.8425  1.1939
 3194TIP3   OH233776   4.701   6.921  18.017 -0.3777 -0.5067 -0.2894
 3194TIP3    H133777   4.789   6.910  18.054 -0.7767  0.0608  0.8604
 3194TIP3    H233778   4.651   6.847  18.051 -1.4067  1.3012  2.4193
 3195TIP3   OH233779   4.873   1.456  19.029 -0.0375  0.1815 -0.0272
 3195TIP3    H133780   4.920   1.507  19.096 -0.0314  0.2063 -0.0500
 3195TIP3    H233781   4.835   1.383  19.077  1.3031 -0.6966 -0.2534
 3196TIP3   OH233782   5.553   6.974  18.925 -0.2114 -0.0966  0.1983
 3196TIP3    H133783   5.492   6.901  18.915  2.1188 -2.2632  0.6608
 3196TIP3    H233784   5.545   7.001  19.016  0.2281 -1.0495  0.5227
 3197TIP3   OH233785   2.796   4.620  19.046 -0.4855  0.0155  0.5624
 3197TIP3    H133786   2.816   4.598  18.955  0.7219 -0.8537  1.0221
 3197TIP3    H233787   2.700   4.619  19.050 -0.5423 -1.9893 -0.2164
 3198TIP3   OH233788   3.410   2.887  17.368 -0.6910 -0.1435  0.1475
 3198TIP3    H133789   3.484   2.830  17.392 -1.5040 -1.0780  0.4959
 3198TIP3    H233790   3.419   2.899  17.274  1.5959  2.2067  0.5386
 3199TIP3   OH233791   1.902   2.488  16.433 -0.1130 -1.0201 -0.0164
 3199TIP3    H133792   1.846   2.412  16.417 -0.6797 -0.8401  1.0279
 3199TIP3    H233793   1.850   2.544  16.490  0.3400  0.1169 -0.6926
 3200TIP3   OH233794   4.707   4.680  17.531  0.1190 -0.4228 -0.3745
 3200TIP3    H133795   4.776   4.724  17.580 -0.4199 -1.1380  1.0590
 3200TIP3    H233796   4.685   4.741  17.460  1.3645  0.3323 -0.1281
 3201TIP3   OH233797   6.577   5.458  17.593  0.3626  0.7551  0.2449
 3201TIP3    H133798   6.538   5.511  17.523 -1.8979  2.0285  2.3301
 3201TIP3    H233799   6.524   5.379  17.595  3.0629 -1.3435 -2.1337
 3202TIP3   OH233800   5.182   7.094  18.858 -0.1722  0.1716  0.6463
 3202TIP3    H133801   5.243   7.059  18.923 -1.1373 -1.5011  0.6903
 3202TIP3    H233802   5.118   7.144  18.910 -1.6090 -2.1019  1.2045
 3203TIP3   OH233803   4.938   6.017  18.473 -0.0042  0.1350 -0.6999
 3203TIP3    H133804   4.861   6.025  18.529  0.1959  0.2791 -0.4388
 3203TIP3    H233805   5.008   5.992  18.533 -0.3331 -2.4592 -1.3029
 3204TIP3   OH233806   2.615   1.042  19.187  0.0768 -0.5183 -0.4116
 3204TIP3    H133807   2.534   1.059  19.235  0.2001  0.5969 -0.5636
 3204TIP3    H233808   2.588   0.988  19.113 -0.3020 -1.2826  0.2715
 3205TIP3   OH233809   0.328   7.601  17.674 -0.1645  0.8181  0.0688
 3205TIP3    H133810   0.345   7.668  17.608  1.3103  2.9645  2.4318
 3205TIP3    H233811   0.323   7.519  17.624  1.9306  2.1282 -2.5857
 3206TIP3   OH233812   7.074   1.466  19.046  0.3935  0.5718  0.1666
 3206TIP3    H133813   7.107   1.435  19.130  0.2790 -0.0952 -0.0328
 3206TIP3    H233814   7.147   1.517  19.010  0.7415  0.1647  0.2931
 3207TIP3   OH233815   3.319   6.185  18.617  0.0435 -0.4448 -0.0562
 3207TIP3    H133816   3.301   6.217  18.706  0.2228  0.6525 -0.3986
 3207TIP3    H233817   3.413   6.196  18.606 -0.4185  3.5169 -1.8260
 3208TIP3   OH233818   5.589   5.536  17.794  0.1912 -0.0019 -0.3390
 3208TIP3    H133819   5.614   5.543  17.702  0.4926 -3.1332 -0.6235
 3208TIP3    H233820   5.501   5.499  17.791  0.2737 -0.2861  0.6342
 3209TIP3   OH233821   1.959   5.207  19.393 -0.7317  0.0729  0.1715
 3209TIP3    H133822   2.042   5.161  19.376 -0.5086  0.5839 -0.1218
 3209TIP3    H233823   1.985   5.296  19.417 -0.9037 -0.8123  4.3662
 3210TIP3   OH233824   6.676   1.476  18.563  0.1587  0.1295  0.5046
 3210TIP3    H133825   6.668   1.513  18.651  2.3207 -1.7484  1.5956
 3210TIP3    H233826   6.766   1.498  18.536  0.4846 -1.6863 -0.0167
 3211TIP3   OH233827   1.341   2.838  19.452 -0.3436  0.7821 -0.2179
 3211TIP3    H133828   1.307   2.815  19.366 -1.4824  0.1285  0.3856
 3211TIP3    H233829   1.263   2.860  19.503  0.2876  0.8319  0.7432
 3212TIP3   OH233830   5.406   1.684  17.588 -0.3242 -0.0283  0.1700
 3212TIP3    H133831   5.340   1.746  17.557 -0.8749 -0.2648  0.8477
 3212TIP3    H233832   5.393   1.606  17.534 -0.4332  0.0169  0.1314
 3213TIP3   OH233833   0.116   4.206  18.386  0.2162  0.2156  0.1560
 3213TIP3    H133834   0.139   4.119  18.419 -2.7748 -0.6767  0.2442
 3213TIP3    H233835   0.069   4.189  18.304  0.1575  1.8085 -0.1732
 3214TIP3   OH233836   5.620   7.065  17.581  0.5587  0.1267  0.1582
 3214TIP3    H133837   5.659   7.002  17.521 -0.2774 -0.4916  0.2487
 3214TIP3    H233838   5.572   7.126  17.525  1.7345  0.9770  0.0346
 3215TIP3   OH233839   6.614   4.154  17.465 -0.2223  0.4258  0.4486
 3215TIP3    H133840   6.618   4.064  17.496  0.6050  0.1326 -0.4536
 3215TIP3    H233841   6.615   4.208  17.544 -0.3605 -0.3406  0.9786
 3216TIP3   OH233842   6.397   1.957  18.497 -0.5175 -0.5935  0.2456
 3216TIP3    H133843   6.481   1.912  18.487 -0.2775  0.1620 -1.6386
 3216TIP3    H233844   6.418   2.038  18.543 -0.5340 -1.1836  1.3343
 3217TIP3   OH233845   7.057   0.774  19.251 -0.6662  0.0383  0.3939
 3217TIP3    H133846   7.104   0.727  19.182  0.3054  0.9923  0.3834
 3217TIP3    H233847   6.993   0.710  19.284 -1.3242 -0.3569 -1.5329
 3218TIP3   OH233848   6.902   4.358  17.031  0.1061 -0.3463 -0.2644
 3218TIP3    H133849   6.896   4.373  17.125  1.4158  1.0790 -0.3554
 3218TIP3    H233850   6.846   4.426  16.992 -1.5968 -1.8272 -0.5239
 3219TIP3   OH233851   1.781   0.353  18.479 -0.0330  0.3552  0.4824
 3219TIP3    H133852   1.723   0.422  18.512 -0.2454  0.0986  0.6556
 3219TIP3    H233853   1.737   0.321  18.400 -0.3789 -0.1704  0.8799
 3220TIP3   OH233854   7.090   2.161  19.002  0.0064 -0.8505 -0.0767
 3220TIP3    H133855   7.035   2.146  18.925 -1.4580  0.8571  0.5798
 3220TIP3    H233856   7.153   2.227  18.974 -0.9937  0.3199  0.3577
 3221TIP3   OH233857   3.579   5.759  18.587  0.0698 -0.0538  0.1268
 3221TIP3    H133858   3.661   5.807  18.584  0.0229 -0.0072 -0.5364
 3221TIP3    H233859   3.601   5.675  18.628  0.6921 -0.5114 -1.1269
 3222TIP3   OH233860   5.192   3.691  19.419  0.0833 -0.5027 -0.0572
 3222TIP3    H133861   5.204   3.732  19.334 -0.6712 -0.1824 -0.0164
 3222TIP3    H233862   5.220   3.600  19.406  0.5923 -0.2867 -0.4703
 3223TIP3   OH233863   0.860   3.662  17.900  0.4348  1.2772 -0.0589
 3223TIP3    H133864   0.931   3.726  17.903  0.3631  1.4167 -0.9472
 3223TIP3    H233865   0.787   3.709  17.859 -0.4161  1.3548  1.4731
 3224TIP3   OH233866   2.972   3.357  18.872  0.8235  0.2950  0.2516
 3224TIP3    H133867   3.054   3.345  18.823 -0.1575 -0.6565 -1.2496
 3224TIP3    H233868   2.947   3.268  18.898  1.7395  0.8053  3.3714
 3225TIP3   OH233869   5.640   1.300  18.332 -0.4609  0.1461  0.5038
 3225TIP3    H133870   5.625   1.276  18.424 -1.6037  1.4858  0.6926
 3225TIP3    H233871   5.660   1.217  18.289 -0.3301 -0.5697  1.8675
 3226TIP3   OH233872   1.841   2.730  18.836  0.4713  0.0928 -0.3102
 3226TIP3    H133873   1.887   2.756  18.756  2.6271 -0.8497  0.5363
 3226TIP3    H233874   1.823   2.813  18.880 -2.7751  0.8502 -2.6539
 3227TIP3   OH233875   3.741   5.851  18.252  0.3924  0.4581 -0.2501
 3227TIP3    H133876   3.719   5.759  18.268 -1.5693  0.6698 -1.4123
 3227TIP3    H233877   3.789   5.850  18.169 -0.6458  0.5625 -0.8703
 3228TIP3   OH233878   3.102   5.479  17.534 -0.1419  0.1869  0.3492
 3228TIP3    H133879   3.054   5.546  17.485  1.1887  0.9328 -0.0158
 3228TIP3    H233880   3.042   5.451  17.603 -1.2382  0.7485 -0.3567
 3229TIP3   OH233881   6.098   5.744  18.441 -0.2421 -0.1083  0.5661
 3229TIP3    H133882   6.123   5.754  18.349 -0.6290 -0.6024  0.4059
 3229TIP3    H233883   6.165   5.794  18.489 -0.2398  0.4490  0.0013
 3230TIP3   OH233884   0.924   4.017  18.271 -0.2247 -0.2987 -0.1778
 3230TIP3    H133885   0.897   3.947  18.331 -0.4558  0.6409  0.8560
 3230TIP3    H233886   0.947   4.090  18.329 -0.5268  0.6704 -1.2519
 3231TIP3   OH233887   0.027   5.146  18.705  0.5149 -0.0685  0.2000
 3231TIP3    H133888   0.093   5.077  18.707  0.4464 -0.1622 -0.4187
 3231TIP3    H233889   0.076   5.227  18.695  0.7787  0.2857  3.4751
 3232TIP3   OH233890   3.357   7.623  17.969 -0.3087  0.0941  0.4809
 3232TIP3    H133891   3.327   7.622  17.879  0.8790  1.1453  0.0508
 3232TIP3    H233892   3.372   7.715  17.989  0.1729 -0.1850  1.4988
 3233TIP3   OH233893   5.345   4.786  17.133  0.5372 -0.2098 -0.0634
 3233TIP3    H133894   5.269   4.786  17.076 -0.5826  2.0551  1.3003
 3233TIP3    H233895   5.419   4.769  17.075 -0.5781  1.4980 -2.1105
 3234TIP3   OH233896   1.665   4.790  17.985  0.6221 -0.6307 -0.9201
 3234TIP3    H133897   1.746   4.786  18.036  1.1420 -3.3931 -1.8453
 3234TIP3    H233898   1.597   4.805  18.051  1.7970  1.8376 -0.1306
 3235TIP3   OH233899   7.569   3.539  18.328 -0.4777  0.6071 -0.6025
 3235TIP3    H133900   7.575   3.517  18.421  1.3823 -1.5369 -1.1311
 3235TIP3    H233901   7.479   3.569  18.315 -0.5848  1.6115  1.9844
 3236TIP3   OH233902   3.345   4.059  16.692  0.0740  0.0683 -0.5061
 3236TIP3    H133903   3.275   4.050  16.627  0.6401  1.3403 -1.3389
 3236TIP3    H233904   3.424   4.073  16.640  0.5599  0.9781  0.4376
 3237TIP3   OH233905   6.905   3.632  17.858 -0.3643  0.2068 -0.3810
 3237TIP3    H133906   6.888   3.554  17.805  0.3291  0.8362 -1.5640
 3237TIP3    H233907   6.993   3.618  17.894 -0.5899  0.0539  0.1156
 3238TIP3   OH233908   2.121   3.880  19.330  0.7533  0.1409 -0.0826
 3238TIP3    H133909   2.216   3.884  19.327  0.7735  0.4071  0.7127
 3238TIP3    H233910   2.097   3.940  19.401  0.0046 -0.0386 -0.1804
 3239TIP3   OH233911   4.629   6.379  18.066 -1.0799 -1.2886 -0.3008
 3239TIP3    H133912   4.647   6.409  18.155 -1.5268 -1.1360 -0.2615
 3239TIP3    H233913   4.710   6.397  18.018 -0.6936 -1.7530  0.1704
 3240TIP3   OH233914   2.937   0.726  18.187  0.0947  0.1534  0.0973
 3240TIP3    H133915   2.883   0.679  18.251 -0.9582  0.6756 -0.3942
 3240TIP3    H233916   2.906   0.816  18.190  0.8119  0.4277 -0.3488
 3241TIP3   OH233917   5.963   5.860  18.920 -0.0358 -0.1590  0.2542
 3241TIP3    H133918   6.024   5.934  18.913  1.2102 -1.2501 -1.5669
 3241TIP3    H233919   6.017   5.788  18.952 -0.7689 -0.7549  0.1728
 3242TIP3   OH233920   5.920   3.461  18.439  0.1216  0.3931 -0.0887
 3242TIP3    H133921   5.872   3.431  18.362 -1.0440  4.1406 -1.0280
 3242TIP3    H233922   5.856   3.459  18.510  0.1858  0.3028 -0.0314
 3243TIP3   OH233923   6.297   5.017  18.844 -0.0264 -0.2027  0.2716
 3243TIP3    H133924   6.221   5.070  18.867  0.5330  1.1131 -0.8138
 3243TIP3    H233925   6.292   5.006  18.749  1.5646  0.6374  0.0497
 3244TIP3   OH233926   4.627   3.323  17.378 -0.0054 -0.0267  0.2833
 3244TIP3    H133927   4.622   3.372  17.296 -0.4134  0.2164  0.4447
 3244TIP3    H233928   4.712   3.347  17.416  1.7222 -2.6754 -1.5945
 3245TIP3   OH233929   3.203   1.303  17.247 -0.0670  0.6823 -0.3102
 3245TIP3    H133930   3.181   1.216  17.280  0.8344  0.6222  0.1682
 3245TIP3    H233931   3.274   1.288  17.184  1.0272  1.1867  0.7709
 3246TIP3   OH233932   3.564   7.556  19.160  0.1127  0.2411  0.0291
 3246TIP3    H133933   3.549   7.508  19.079 -2.0842 -0.1089  0.5592
 3246TIP3    H233934   3.478   7.593  19.182  0.7125  0.5997  2.0132
 3247TIP3   OH233935   6.204   7.178  19.465 -0.0274 -0.1380  0.2489
 3247TIP3    H133936   6.261   7.144  19.533 -0.8274 -0.7288  0.6450
 3247TIP3    H233937   6.123   7.201  19.511 -0.3949 -0.0600 -0.4161
 3248TIP3   OH233938   5.492   3.575  19.572  0.4959  0.5752  1.1144
 3248TIP3    H133939   5.555   3.602  19.639  1.8843  1.9204 -0.6234
 3248TIP3    H233940   5.451   3.657  19.543 -1.2021 -0.1517  1.3448
 3249TIP3   OH233941   0.705   3.333  17.392 -0.0648 -0.5819  0.2045
 3249TIP3    H133942   0.680   3.345  17.300 -1.4064  0.1957  0.6322
 3249TIP3    H233943   0.650   3.260  17.422 -0.2711 -0.2656  0.6042
 3250TIP3   OH233944   0.945   2.864  16.824 -0.0527 -0.2107  0.0956
 3250TIP3    H133945   0.998   2.917  16.884  0.2407 -0.8466  0.4063
 3250TIP3    H233946   0.880   2.925  16.790  0.1675  0.3102  0.5856
 3251TIP3   OH233947   4.051   6.022  19.499  0.6872  0.5038 -0.2848
 3251TIP3    H133948   4.083   5.941  19.461  0.7585  0.8379 -0.9574
 3251TIP3    H233949   4.129   6.070  19.525  0.6103 -0.1759  1.2821
 3252TIP3   OH233950   6.826   3.545  18.120  0.5880  0.1268  0.1851
 3252TIP3    H133951   6.784   3.582  18.042  1.9230 -0.7954 -1.0282
 3252TIP3    H233952   6.896   3.606  18.141 -0.1159  0.6606  1.0211
 3253TIP3   OH233953   7.145   6.494  17.427 -0.2954  0.1858  0.1878
 3253TIP3    H133954   7.213   6.562  17.419 -0.3245  0.3207  0.9943
 3253TIP3    H233955   7.175   6.423  17.371  0.8188  0.0074  0.9713
 3254TIP3   OH233956   3.258   1.954  18.449  0.1405  0.0980  0.0462
 3254TIP3    H133957   3.316   1.940  18.524  0.9150  1.4037 -0.2797
 3254TIP3    H233958   3.313   1.938  18.372  0.1670  1.5497 -0.2696
 3255TIP3   OH233959   4.547   0.220  17.926  0.3877 -0.0487  0.2795
 3255TIP3    H133960   4.477   0.257  17.981  0.2131 -1.9197  1.3968
 3255TIP3    H233961   4.515   0.133  17.902  1.4775 -0.1534 -0.9157
 3256TIP3   OH233962   0.339   4.499  18.761 -0.0067  0.3347  0.3252
 3256TIP3    H133963   0.273   4.442  18.720 -1.6070  0.0555  3.0539
 3256TIP3    H233964   0.414   4.442  18.777 -1.0561 -0.7389  1.7132
 3257TIP3   OH233965   2.294   2.719  16.770 -0.4174 -0.0957 -0.7330
 3257TIP3    H133966   2.382   2.682  16.767 -0.4483 -0.1346 -1.1003
 3257TIP3    H233967   2.305   2.811  16.746 -0.1847  0.4401  1.1846
 3258TIP3   OH233968   1.781   1.682  17.111 -0.1058 -0.7247 -0.0862
 3258TIP3    H133969   1.847   1.682  17.180  0.2350  0.1692 -0.3945
 3258TIP3    H233970   1.814   1.619  17.046  0.0762 -0.8320  0.1096
 3259TIP3   OH233971   4.739   0.845  19.360 -0.5353 -0.1691  0.0039
 3259TIP3    H133972   4.774   0.922  19.314  1.4821  0.1222  1.8781
 3259TIP3    H233973   4.646   0.845  19.339 -0.6265  2.8668  0.0099
 3260TIP3   OH233974   7.426   4.280  17.383  0.4316  0.0161 -0.2356
 3260TIP3    H133975   7.382   4.291  17.467  0.9263  0.4657 -0.0338
 3260TIP3    H233976   7.363   4.231  17.330  0.5341 -1.2037  0.7260
 3261TIP3   OH233977   1.066   2.084  16.682 -1.0603  0.2601  0.1859
 3261TIP3    H133978   1.133   2.152  16.688  0.0007 -0.7264 -0.0902
 3261TIP3    H233979   1.005   2.116  16.615 -0.0124  0.4797 -0.6892
 3262TIP3   OH233980   6.225   4.357  18.014  0.5520  0.0687 -0.3300
 3262TIP3    H133981   6.134   4.330  17.999  0.2611  1.1394 -0.5500
 3262TIP3    H233982   6.278   4.288  17.973 -0.1654 -0.1902 -0.8367
 3263TIP3   OH233983   5.007   5.467  18.706  0.3319  0.3698  0.0550
 3263TIP3    H133984   4.927   5.488  18.754 -0.1390  1.2707 -1.0612
 3263TIP3    H233985   5.001   5.519  18.626  2.0240  0.4284 -0.0725
 3264TIP3   OH233986   0.456   7.182  18.301 -0.4693  0.4002  0.2779
 3264TIP3    H133987   0.389   7.147  18.359 -0.0389 -1.3333 -0.2087
 3264TIP3    H233988   0.510   7.238  18.357 -1.8629  1.2409  0.8217
 3265TIP3   OH233989   1.137   4.935  19.641 -0.3921 -0.1744  0.1894
 3265TIP3    H133990   1.184   4.987  19.576  1.8361 -0.8021  1.2142
 3265TIP3    H233991   1.189   4.944  19.721 -0.4422 -3.1483  0.6551
 3266TIP3   OH233992   0.638   4.976  19.218 -0.1396  0.0527 -0.6253
 3266TIP3    H133993   0.578   5.025  19.162 -0.4531 -1.5317 -1.7230
 3266TIP3    H233994   0.582   4.932  19.282  0.0322  0.1654 -0.3957
 3267TIP3   OH233995   4.051   0.099  18.376  0.5353 -0.1055  0.0410
 3267TIP3    H133996   4.081   0.042  18.447 -0.0044  0.0199  0.3810
 3267TIP3    H233997   4.129   0.145  18.348  0.5374  0.9127  1.5514
 3268TIP3   OH233998   1.590   5.404  18.824  0.2987  0.0133  0.1845
 3268TIP3    H133999   1.671   5.431  18.868 -0.6101  0.2302  1.8216
 3268TIP3    H234000   1.522   5.416  18.891 -0.9849 -0.8307 -0.9274
 3269TIP3   OH234001   4.920   5.299  18.334  0.6864  0.0717 -0.2337
 3269TIP3    H134002   4.994   5.239  18.341  0.6738 -0.0347 -0.9291
 3269TIP3    H234003   4.863   5.276  18.408  0.5280 -0.9802 -0.6636
 3270TIP3   OH234004   5.029   5.787  17.719 -0.6689 -0.3221 -0.4072
 3270TIP3    H134005   5.032   5.787  17.623 -0.0978 -2.9286 -0.4660
 3270TIP3    H234006   4.950   5.738  17.740 -0.6575  0.0217  0.4728
 3271TIP3   OH234007   3.283   4.944  18.785  0.4912 -0.0593  0.1063
 3271TIP3    H134008   3.327   4.938  18.700  1.8067 -0.3408  0.7913
 3271TIP3    H234009   3.278   5.038  18.803  2.7339 -0.0533  0.9625
 3272TIP3   OH234010   1.778   0.680  19.203 -0.0312 -0.3061  0.0023
 3272TIP3    H134011   1.721   0.603  19.200  0.6570 -0.9507  2.0217
 3272TIP3    H234012   1.845   0.662  19.137  0.1883 -1.5150  0.5275
 3273TIP3   OH234013   3.566   4.154  18.747 -0.3893 -0.2874 -0.1463
 3273TIP3    H134014   3.657   4.127  18.735 -0.7870 -1.6484 -0.2469
 3273TIP3    H234015   3.515   4.090  18.698 -1.5591 -1.0932  1.9896
 3274TIP3   OH234016   5.342   6.409  17.171  0.7103  0.4491 -0.7676
 3274TIP3    H134017   5.431   6.441  17.165  1.0054 -0.5078 -1.9406
 3274TIP3    H234018   5.291   6.468  17.116  0.7569  0.5354 -0.7187
 3275TIP3   OH234019   0.262   0.347  19.430 -0.0029  0.4419  0.1065
 3275TIP3    H134020   0.205   0.284  19.475 -0.1442  0.6140  0.1728
 3275TIP3    H234021   0.334   0.295  19.396 -0.5088  0.1255 -0.4982
 3276TIP3   OH234022   5.779   2.393  17.600 -0.3840 -0.5220 -0.0406
 3276TIP3    H134023   5.736   2.465  17.553 -1.6209 -0.5925  0.9427
 3276TIP3    H234024   5.728   2.383  17.680  2.9652  1.1263  2.5483
 3277TIP3   OH234025   5.156   0.219  17.903  0.1727  0.1780  0.2770
 3277TIP3    H134026   5.116   0.164  17.836  1.5597 -1.9100  1.0493
 3277TIP3    H234027   5.098   0.295  17.911 -2.8744 -2.0165  0.4173
 3278TIP3   OH234028   7.249   1.631  17.840  0.0347  0.0197 -0.2019
 3278TIP3    H134029   7.279   1.579  17.915 -1.3616 -1.0408 -0.3423
 3278TIP3    H234030   7.264   1.722  17.866 -0.0748 -0.3472  1.2063
 3279TIP3   OH234031   4.734   2.413  18.903 -0.1459  0.1131 -0.0622
 3279TIP3    H134032   4.655   2.385  18.949 -0.9762 -0.7128 -1.8874
 3279TIP3    H234033   4.712   2.404  18.811  1.6352  1.1935 -0.6413
 3280TIP3   OH234034   3.147   1.364  16.855  0.1217 -0.1712 -0.0070
 3280TIP3    H134035   3.074   1.302  16.843  0.7568 -0.7590 -1.0616
 3280TIP3    H234036   3.107   1.450  16.843 -0.4132 -0.4890 -0.6031
 3281TIP3   OH234037   5.933   6.740  18.981  0.4511 -0.7223  0.1510
 3281TIP3    H134038   6.023   6.708  18.988  0.6367 -0.7401 -1.7007
 3281TIP3    H234039   5.941   6.835  18.978  0.5364 -0.7507 -1.0743
 3282TIP3   OH234040   6.983   6.050  17.743 -0.1672 -0.5350 -0.3424
 3282TIP3    H134041   7.030   6.104  17.679 -0.2543 -0.8624 -0.6906
 3282TIP3    H234042   6.927   5.993  17.689 -0.7490 -0.3441  0.0526
 3283TIP3   OH234043   5.618   3.744  17.107 -0.1872  0.5002  0.2751
 3283TIP3    H134044   5.597   3.713  17.019 -0.7032 -1.7371  1.1135
 3283TIP3    H234045   5.641   3.836  17.095 -0.5918  0.3612 -2.1313
 3284TIP3   OH234046   3.950   6.509  18.431 -0.0187  0.0450 -0.2305
 3284TIP3    H134047   3.895   6.504  18.353  0.8933 -0.8451 -0.8496
 3284TIP3    H234048   4.039   6.518  18.397  0.1693  3.0257  0.7462
 3285TIP3   OH234049   4.435   4.205  18.170  0.0395  0.2658  0.7384
 3285TIP3    H134050   4.446   4.222  18.077 -0.9477  0.5680  0.6671
 3285TIP3    H234051   4.378   4.128  18.174  1.7657 -1.0673  1.0949
 3286TIP3   OH234052   3.775   7.584  18.859  0.7061 -0.3450 -0.7847
 3286TIP3    H134053   3.751   7.495  18.884 -1.1287  0.9543  2.7521
 3286TIP3    H234054   3.724   7.602  18.781  2.9601 -3.0719 -3.0978
 3287TIP3   OH234055   1.741   7.600  18.496 -0.4389 -0.1177  0.2401
 3287TIP3    H134056   1.762   7.605  18.589  0.9773 -0.2348 -0.0420
 3287TIP3    H234057   1.663   7.653  18.485 -0.5483 -0.0123  1.4744
 3288TIP3   OH234058   4.441   6.529  17.216  0.2487 -0.0934  0.5408
 3288TIP3    H134059   4.516   6.532  17.276 -0.8107  1.3537  1.8609
 3288TIP3    H234060   4.460   6.598  17.151  0.4073 -0.2442  0.4251
 3289TIP3   OH234061   7.355   0.548  19.198  0.8571  0.1423 -0.2460
 3289TIP3    H134062   7.402   0.513  19.121 -1.1262 -0.5821 -1.2046
 3289TIP3    H234063   7.268   0.569  19.165  0.0672  0.1842  1.7364
 3290TIP3   OH234064   0.801   5.950  17.607  0.0723 -0.2750 -0.5310
 3290TIP3    H134065   0.755   5.876  17.566  0.1721 -0.3178 -0.5660
 3290TIP3    H234066   0.855   5.986  17.536 -0.5982  0.3434 -0.7442
 3291TIP3   OH234067   2.733   0.030  19.482 -1.0278 -0.0954 -0.0758
 3291TIP3    H134068   2.739  -0.065  19.469 -1.2685 -0.3801  1.6616
 3291TIP3    H234069   2.685   0.040  19.565 -1.5360  1.5614 -0.5291
 3292TIP3   OH234070   0.712   6.794  18.663 -0.2055  0.1427  0.1868
 3292TIP3    H134071   0.807   6.790  18.656 -0.0049  2.1739  0.9440
 3292TIP3    H234072   0.695   6.880  18.703 -2.3793  0.0232 -0.3699
 3293TIP3   OH234073   5.397   0.631  19.320  0.0667 -0.8737  0.7412
 3293TIP3    H134074   5.441   0.557  19.361 -0.3702 -0.9402  1.0950
 3293TIP3    H234075   5.303   0.613  19.331 -0.0695  0.4376  2.1772
 3294TIP3   OH234076   4.033   3.730  18.763 -0.1946 -0.0762 -0.2842
 3294TIP3    H134077   4.087   3.800  18.724  2.0980 -0.0816  2.5389
 3294TIP3    H234078   3.946   3.745  18.727  1.3909  0.5223 -4.4319
 3295TIP3   OH234079   6.491   2.797  17.753 -0.3937 -0.2930  0.6780
 3295TIP3    H134080   6.454   2.867  17.808  2.6032 -0.9597  3.8469
 3295TIP3    H234081   6.428   2.725  17.761 -0.7685  0.1568  2.0498
 3296TIP3   OH234082   3.427   1.025  18.473 -0.3425  0.7580 -0.3853
 3296TIP3    H134083   3.484   1.035  18.396 -0.1747 -0.6908 -0.4720
 3296TIP3    H234084   3.488   1.019  18.547 -0.4163  0.2698 -0.3600
 3297TIP3   OH234085   2.480   6.048  17.440  0.6031  0.1074 -0.6284
 3297TIP3    H134086   2.501   6.065  17.532  0.1509  1.1354 -0.7063
 3297TIP3    H234087   2.391   6.082  17.429  0.1589 -1.1686 -1.1326
 3298TIP3   OH234088   1.043   0.805  19.138  0.3876  0.3397  0.3646
 3298TIP3    H134089   0.993   0.832  19.061 -0.1248  0.7441  0.8215
 3298TIP3    H234090   1.132   0.833  19.121  0.6182 -0.9807 -0.7604
 3299TIP3   OH234091   1.660   2.998  19.186  0.9197 -0.2252 -0.1265
 3299TIP3    H134092   1.680   2.986  19.279  3.8962 -1.6476 -0.8228
 3299TIP3    H234093   1.598   2.928  19.165 -1.8383  1.6369  1.2081
 3300TIP3   OH234094   2.421   4.502  18.822  0.3021 -0.4016  0.2573
 3300TIP3    H134095   2.419   4.559  18.899 -2.1079 -0.4991  0.3492
 3300TIP3    H234096   2.395   4.559  18.750 -2.1335 -1.2709  0.3493
 3301TIP3   OH234097   1.601   0.345  16.991  0.1744  0.1172 -0.2308
 3301TIP3    H134098   1.689   0.314  17.014  1.0424 -0.1511 -3.4572
 3301TIP3    H234099   1.608   0.440  16.991  0.2046  0.1163  0.3821
 3302TIP3   OH234100   0.938   5.171  16.944  0.1615  0.3392  0.2014
 3302TIP3    H134101   0.987   5.246  16.977  0.7897 -0.6771  1.6956
 3302TIP3    H234102   1.005   5.112  16.910 -0.3621  0.6185 -1.4003
 3303TIP3   OH234103   5.119   1.855  18.519 -0.0938 -0.5205 -0.6441
 3303TIP3    H134104   5.041   1.849  18.574  0.1420 -0.5537 -0.3142
 3303TIP3    H234105   5.134   1.766  18.489  0.5796 -0.7548  0.3495
 3304TIP3   OH234106   5.307   3.828  16.956 -0.6307  0.1774  0.2278
 3304TIP3    H134107   5.314   3.869  17.042 -2.4616  2.0370 -0.4259
 3304TIP3    H234108   5.366   3.878  16.900 -1.6965  0.9646 -0.2266
 3305TIP3   OH234109   7.368   4.137  19.050  0.1210 -0.3035  0.5875
 3305TIP3    H134110   7.378   4.224  19.012 -0.0837 -0.4566  0.1777
 3305TIP3    H234111   7.294   4.145  19.109  1.4902  0.3862  2.3080
 3306TIP3   OH234112   5.599   2.763  18.140  0.0006 -0.0588  0.1545
 3306TIP3    H134113   5.665   2.738  18.205  0.3265 -1.3505 -0.6292
 3306TIP3    H234114   5.515   2.748  18.184  0.2058  1.0125  0.9474
 3307TIP3   OH234115   4.857   5.257  18.637  0.3095  0.4036 -0.2290
 3307TIP3    H134116   4.866   5.188  18.704 -0.4340 -0.0497 -0.5792
 3307TIP3    H234117   4.933   5.313  18.650  0.5611 -0.0932  0.5247
 3308TIP3   OH234118   0.534   2.170  16.735  0.2784  0.1178  0.0767
 3308TIP3    H134119   0.515   2.165  16.828  1.5788 -2.4668  0.2911
 3308TIP3    H234120   0.456   2.210  16.697 -0.6055  0.5098  2.1636
 3309TIP3   OH234121   3.782   4.801  18.249 -0.2989  0.3006 -0.3798
 3309TIP3    H134122   3.857   4.784  18.193  0.1524  0.2249  0.2413
 3309TIP3    H234123   3.803   4.759  18.332 -0.7618  0.7963 -0.0009
 3310TIP3   OH234124   3.913   5.223  17.745  0.6678 -0.4084  0.0052
 3310TIP3    H134125   3.977   5.270  17.799 -0.2045 -1.0054  1.5892
 3310TIP3    H234126   3.962   5.148  17.711  0.4851 -1.7342  2.4594
 3311TIP3   OH234127   0.716   5.739  18.941  0.1296 -0.1939 -0.0058
 3311TIP3    H134128   0.671   5.718  18.859  1.4323  1.5337 -1.2297
 3311TIP3    H234129   0.808   5.717  18.924  0.7342  1.9354  0.2868
 3312TIP3   OH234130   3.651   5.514  18.717  0.1305 -0.6379  0.0594
 3312TIP3    H134131   3.573   5.480  18.760  0.8498 -0.9755  1.1539
 3312TIP3    H234132   3.677   5.447  18.654 -0.9506 -0.1282 -0.9637
 3313TIP3   OH234133   3.276   0.817  18.819  0.1452  0.0887  0.8000
 3313TIP3    H134134   3.232   0.891  18.775  0.0550 -0.3966  0.0428
 3313TIP3    H234135   3.369   0.840  18.818  0.1236  0.1672  0.5088
 3314TIP3   OH234136   7.095   6.525  18.363  0.2042  0.1083 -0.0287
 3314TIP3    H134137   7.119   6.566  18.280 -0.0935  0.6649  0.1527
 3314TIP3    H234138   7.007   6.491  18.348  0.7524 -1.1988 -0.4312
 3315TIP3   OH234139   1.922   5.612  17.933  0.1678  0.3579  0.5038
 3315TIP3    H134140   1.850   5.564  17.974 -0.8272  0.8384 -0.6533
 3315TIP3    H234141   1.993   5.548  17.928 -1.1197 -1.0297 -1.0013
 3316TIP3   OH234142   0.965   0.278  19.059  0.0586  0.2551  0.3810
 3316TIP3    H134143   0.939   0.329  19.135  0.7904 -1.0671  1.5681
 3316TIP3    H234144   0.932   0.328  18.984  1.5795  2.9597  1.3849
 3317TIP3   OH234145   2.516   6.737  16.799  0.5480 -0.6092 -0.3274
 3317TIP3    H134146   2.585   6.713  16.736  1.8786  1.9878  0.0178
 3317TIP3    H234147   2.435   6.705  16.759  1.4762 -0.0918 -2.7937
 3318TIP3   OH234148   2.401   7.214  19.056  0.1484 -0.4580  0.4176
 3318TIP3    H134149   2.384   7.120  19.044 -1.4723 -0.1108 -0.2293
 3318TIP3    H234150   2.497   7.221  19.051  0.3236 -2.1028  0.7429
 3319TIP3   OH234151   0.949   4.124  19.181  0.3657 -0.1753  0.1663
 3319TIP3    H134152   1.017   4.172  19.133 -0.0731  0.1607 -0.1284
 3319TIP3    H234153   0.913   4.188  19.242 -2.2720  0.8725 -2.2263
 3320TIP3   OH234154   6.369   2.998  19.034 -0.5521 -0.2896 -0.3472
 3320TIP3    H134155   6.412   3.009  19.119 -2.0568 -0.1754  0.4140
 3320TIP3    H234156   6.336   2.908  19.035 -1.3117 -0.0132 -0.4752
 3321TIP3   OH234157   6.507   1.950  17.892  0.3646  0.5359  0.8998
 3321TIP3    H134158   6.537   1.950  17.983 -1.0942  2.0957  1.4577
 3321TIP3    H234159   6.485   1.859  17.873 -0.3065  0.3300  2.4967
 3322TIP3   OH234160   2.524   2.393  17.531 -0.1112 -0.5035  0.4502
 3322TIP3    H134161   2.549   2.301  17.534  0.8706 -0.4845 -3.0206
 3322TIP3    H234162   2.568   2.427  17.453 -0.9798  2.7614  1.2506
 3323TIP3   OH234163   0.415   1.800  19.160  0.4318 -0.0983  0.1457
 3323TIP3    H134164   0.479   1.730  19.153 -0.1297 -0.4736 -1.7661
 3323TIP3    H234165   0.462   1.879  19.136  0.3179 -0.3025 -0.7782
 3324TIP3   OH234166   1.390   7.194  18.246 -0.0192  0.2763  0.0703
 3324TIP3    H134167   1.345   7.235  18.319  1.1997  1.4887  0.1785
 3324TIP3    H234168   1.320   7.166  18.187 -1.0191 -0.5164  1.5504
 3325TIP3   OH234169   0.185   0.373  19.144 -0.0546 -0.0914  0.3748
 3325TIP3    H134170   0.159   0.465  19.139 -0.7075 -0.2311  0.9803
 3325TIP3    H234171   0.217   0.363  19.234  2.8268  0.2377 -0.4999
 3326TIP3   OH234172   0.345   4.356  16.969  0.1965  0.0563  0.1743
 3326TIP3    H134173   0.255   4.367  16.939 -0.1772  1.4221  1.6391
 3326TIP3    H234174   0.396   4.419  16.918  0.3934 -0.9028 -0.8427
 3327TIP3   OH234175   0.457   1.788  18.170 -0.9439  0.4683 -0.0461
 3327TIP3    H134176   0.435   1.819  18.258 -1.9543  0.6995 -0.3622
 3327TIP3    H234177   0.496   1.701  18.184  0.6222  1.2630  0.7476
 3328TIP3   OH234178   4.067   1.816  19.300 -0.7087 -0.4145 -0.5632
 3328TIP3    H134179   4.005   1.762  19.350 -0.0480 -0.9405 -0.2831
 3328TIP3    H234180   4.025   1.829  19.215 -1.9675  0.6995  0.1896
 3329TIP3   OH234181   2.102   0.310  17.642 -0.1529  0.0135  1.0509
 3329TIP3    H134182   2.196   0.302  17.633 -0.2989  0.9234 -2.9759
 3329TIP3    H234183   2.090   0.395  17.687  0.9506  0.5863  0.3048
 3330TIP3   OH234184   1.748   4.650  17.441 -0.3287 -0.2410  0.0703
 3330TIP3    H134185   1.819   4.605  17.396  0.2124  0.4184  0.2505
 3330TIP3    H234186   1.769   4.643  17.534  0.3494  1.2939  0.0633
 3331TIP3   OH234187   0.535   7.017  18.601 -0.2066 -0.2859 -0.2689
 3331TIP3    H134188   0.441   7.002  18.610 -0.1457 -0.6638 -0.2437
 3331TIP3    H234189   0.562   6.958  18.531  0.1227 -0.6386  0.1515
 3332TIP3   OH234190   1.615   5.680  18.426  0.1919  0.1225  0.2094
 3332TIP3    H134191   1.634   5.729  18.505  0.9801  1.0967 -0.5669
 3332TIP3    H234192   1.590   5.746  18.362 -2.5320 -0.7843  0.1792
 3333TIP3   OH234193   4.763   3.068  19.009  0.1951  0.2654  0.3026
 3333TIP3    H134194   4.699   3.021  19.063 -0.6797 -1.0197 -1.7040
 3333TIP3    H234195   4.730   3.158  19.005 -0.2161  0.1652  1.1260
 3334TIP3   OH234196   4.008   5.633  19.075 -0.3073  0.3781  0.7989
 3334TIP3    H134197   3.913   5.621  19.079 -0.1489 -1.1794  0.4689
 3334TIP3    H234198   4.044   5.546  19.091  0.9787 -0.0752 -3.3526
 3335TIP3   OH234199   7.650   4.352  19.137  0.0806  0.5078 -0.0817
 3335TIP3    H134200   7.735   4.395  19.130 -0.3044  1.1703 -1.0149
 3335TIP3    H234201   7.587   4.423  19.123 -0.6429  0.1393  1.1865
 3336TIP3   OH234202   0.516   5.681  19.169 -0.4134  0.1521 -0.5164
 3336TIP3    H134203   0.568   5.679  19.088  1.2717  0.1118  0.5178
 3336TIP3    H234204   0.567   5.630  19.232 -1.0392  1.2405  0.9452
 3337TIP3   OH234205   5.467   3.042  18.656 -0.4270 -0.2614  0.2209
 3337TIP3    H134206   5.402   3.102  18.694 -0.1811  1.2032 -1.4720
 3337TIP3    H234207   5.542   3.099  18.635 -0.3720 -1.0233 -1.9045
 3338TIP3   OH234208   4.068   6.119  18.943 -0.5358  0.5101  0.2133
 3338TIP3    H134209   4.147   6.127  18.996 -1.3734 -1.0166  1.7981
 3338TIP3    H234210   3.996   6.137  19.005 -1.6407 -3.0121  0.1747
 3339TIP3   OH234211   1.941   1.465  18.332  0.7032  0.2372 -0.1453
 3339TIP3    H134212   1.957   1.423  18.417 -0.9820  2.0237  1.1341
 3339TIP3    H234213   1.994   1.544  18.334  0.6109  0.3217 -0.7580
 3340TIP3   OH234214   0.741   1.899  18.783  0.4565 -0.1486 -0.0418
 3340TIP3    H134215   0.807   1.863  18.842 -0.1388  1.8718  2.0475
 3340TIP3    H234216   0.786   1.906  18.698  1.8304 -1.8401  0.4878
 3341TIP3   OH234217   5.892   5.270  17.988  0.3354 -0.1765 -0.1482
 3341TIP3    H134218   5.914   5.195  17.933  2.0298  0.8332 -0.9367
 3341TIP3    H234219   5.951   5.264  18.063  0.4253  0.2990 -0.1747
 3342TIP3   OH234220   6.868   7.221  18.185 -0.1530  0.0583  0.0322
 3342TIP3    H134221   6.839   7.140  18.228 -0.0186  0.8557  1.7287
 3342TIP3    H234222   6.933   7.193  18.121 -0.1068 -1.1804  0.6031
 3343TIP3   OH234223   0.974   2.137  18.409 -0.7074  0.1898  0.1850
 3343TIP3    H134224   1.034   2.126  18.335  0.5792  0.8326  1.0966
 3343TIP3    H234225   0.901   2.187  18.373 -1.1852 -1.3728 -1.1775
 3344TIP3   OH234226   4.812   0.067  17.476  0.0913 -0.0068  0.2773
 3344TIP3    H134227   4.828  -0.020  17.440 -0.1654 -0.1284  0.4508
 3344TIP3    H234228   4.873   0.124  17.429 -0.4538 -0.1053 -0.5744
 3345TIP3   OH234229   0.281   1.814  17.973  0.5400  0.4055 -0.4094
 3345TIP3    H134230   0.228   1.882  18.015  3.3655  1.3440  2.0391
 3345TIP3    H234231   0.326   1.771  18.046  0.7960 -2.3937 -2.1133
 3346TIP3   OH234232   0.527   6.272  17.652 -0.3609  0.2598 -0.1557
 3346TIP3    H134233   0.472   6.250  17.727  1.9496 -2.4268  0.9588
 3346TIP3    H234234   0.484   6.230  17.577  0.0531 -1.7802  0.6884
 3347TIP3   OH234235   3.093   4.743  16.591  0.1873 -0.2929  0.8230
 3347TIP3    H134236   3.157   4.675  16.571  1.3771  0.8341  0.6724
 3347TIP3    H234237   3.145   4.816  16.624 -0.9395  0.9553 -0.0558
 3348TIP3   OH234238   4.452   4.225  17.901  0.1164 -0.5361  0.5880
 3348TIP3    H134239   4.434   4.136  17.870 -0.4043 -0.3327  0.2976
 3348TIP3    H234240   4.459   4.277  17.821 -0.0576 -0.2270  0.7732
 3349TIP3   OH234241   5.808   7.143  19.464 -0.6925  0.1006 -0.1429
 3349TIP3    H134242   5.890   7.100  19.488 -0.3893  0.9867  0.4581
 3349TIP3    H234243   5.740   7.079  19.483 -0.3402  0.2379  1.7307
 3350TIP3   OH234244   5.582   7.377  19.478  0.3333  0.0997 -0.5539
 3350TIP3    H134245   5.650   7.403  19.540  0.2956 -1.7657  0.3316
 3350TIP3    H234246   5.630   7.342  19.403  0.3588  0.8433 -0.8913
 3351TIP3   OH234247   5.621   0.963  17.907 -1.1467  0.8327  0.3412
 3351TIP3    H134248   5.557   0.891  17.908 -0.7719  0.4908  0.1962
 3351TIP3    H234249   5.604   1.010  17.988 -0.6412 -0.1060  1.0139
 3352TIP3   OH234250   0.642   1.344  18.712 -0.5669 -0.7391 -0.4444
 3352TIP3    H134251   0.648   1.423  18.765 -1.2366 -1.0951  0.1687
 3352TIP3    H234252   0.680   1.369  18.627  0.7385 -0.2448  0.2664
 3353TIP3   OH234253   0.779   6.066  19.346 -0.0572  0.1133 -0.3740
 3353TIP3    H134254   0.825   6.063  19.262  1.0116  1.3007  0.1279
 3353TIP3    H234255   0.769   6.159  19.364 -1.0606 -0.1367  0.4039
 3354TIP3   OH234256   2.249   0.168  17.375  0.6230  1.0086 -0.2207
 3354TIP3    H134257   2.159   0.197  17.359  0.4761  1.6399  1.5640
 3354TIP3    H234258   2.284   0.150  17.287 -1.4444  0.0689 -0.9208
 3355TIP3   OH234259   3.435   1.221  17.798 -0.1959  0.0836  0.3810
 3355TIP3    H134260   3.444   1.180  17.883  0.2901 -0.1971  0.2019
 3355TIP3    H234261   3.436   1.148  17.736  0.1081  0.3251  0.0968
 3356TIP3   OH234262   2.904   0.271  18.996 -0.5362  0.2543  0.6432
 3356TIP3    H134263   2.854   0.333  18.943  0.4090  1.9289  1.5765
 3356TIP3    H234264   2.888   0.299  19.086 -0.1136 -0.9141  1.0999
 3357TIP3   OH234265   5.785   0.697  17.557 -0.0717  0.2594  0.5656
 3357TIP3    H134266   5.773   0.723  17.466  0.3316  0.7112  0.6317
 3357TIP3    H234267   5.697   0.685  17.591 -0.2145 -0.2339  0.0264
 3358TIP3   OH234268   0.666   0.454  19.194  0.2342  0.3473 -0.3307
 3358TIP3    H134269   0.751   0.454  19.239  0.4667  2.5061 -0.6682
 3358TIP3    H234270   0.651   0.546  19.171 -2.5813  0.1647  0.4109
 3359TIP3   OH234271   2.084   5.801  17.685 -0.2282  0.6309  0.5756
 3359TIP3    H134272   2.044   5.836  17.606 -0.1325  2.1034  1.1365
 3359TIP3    H234273   2.147   5.736  17.654 -1.7943 -0.4886 -0.4050
 3360TIP3   OH234274   2.473   4.805  19.529  0.0438  0.3846 -0.2531
 3360TIP3    H134275   2.506   4.823  19.617 -0.7328  2.2902 -0.3181
 3360TIP3    H234276   2.396   4.750  19.543  0.8366 -0.6698  0.1297
 3361TIP3   OH234277   4.516   3.262  18.263 -0.0292  0.3466  0.0367
 3361TIP3    H134278   4.600   3.257  18.309 -0.1748  1.4701  0.4572
 3361TIP3    H234279   4.508   3.354  18.239 -0.4359 -0.0331 -1.3732
 3362TIP3   OH234280   3.720   7.411  18.225 -0.0896 -0.0931 -0.2766
 3362TIP3    H134281   3.784   7.481  18.237  0.1579 -0.3844  0.1268
 3362TIP3    H234282   3.702   7.379  18.314 -2.6945  1.6512 -0.0774
 3363TIP3   OH234283   0.013   6.440  19.005  0.4111  0.1306 -0.4170
 3363TIP3    H134284   0.039   6.530  19.024  1.0833 -0.1206 -0.1114
 3363TIP3    H234285   0.024   6.393  19.087  1.1383 -0.4681 -0.8448
 3364TIP3   OH234286   7.437   7.448  17.275  0.4317 -0.4471  0.6222
 3364TIP3    H134287   7.353   7.494  17.272 -0.0986 -1.3731  0.9732
 3364TIP3    H234288   7.500   7.512  17.242 -0.4856  0.0762 -0.1657
 3365TIP3   OH234289   3.351   6.724  18.939  0.6321 -0.3920  0.3483
 3365TIP3    H134290   3.265   6.697  18.906 -0.6033  2.7719  0.5992
 3365TIP3    H234291   3.349   6.698  19.032 -0.9670  1.3571  0.8765
 3366TIP3   OH234292   2.349   7.577  17.274  0.3464 -0.4797 -0.7035
 3366TIP3    H134293   2.305   7.492  17.281 -0.3116 -0.0797  0.1720
 3366TIP3    H234294   2.353   7.609  17.364 -0.8268  1.1296 -1.1911
 3367TIP3   OH234295   1.705   5.775  18.950  0.5830 -0.4371 -0.4213
 3367TIP3    H134296   1.722   5.864  18.980 -0.4471 -0.6700  0.9492
 3367TIP3    H234297   1.719   5.721  19.027 -2.3418 -1.0445 -0.2040
 3368TIP3   OH234298   4.060   4.201  18.089  0.3201 -0.2716 -0.1969
 3368TIP3    H134299   4.054   4.159  18.003 -1.2926  0.1514 -0.3176
 3368TIP3    H234300   4.016   4.285  18.078 -0.1907 -0.3424  1.1300
 3369TIP3   OH234301   1.688   4.343  19.022  0.1634  0.0518  0.6073
 3369TIP3    H134302   1.619   4.346  19.087 -0.4035 -1.9478  0.1600
 3369TIP3    H234303   1.643   4.348  18.938  0.5145 -1.1970  0.3136
 3370TIP3   OH234304   2.609   4.695  18.537  0.1635  0.3059 -0.3956
 3370TIP3    H134305   2.535   4.639  18.514 -0.6985  0.7499  1.1287
 3370TIP3    H234306   2.623   4.679  18.631 -0.2819  2.7510  0.1684
 3371TIP3   OH234307   6.744   3.451  16.522 -0.3214 -0.2622 -0.2043
 3371TIP3    H134308   6.812   3.423  16.583 -0.4575  0.5037  0.3148
 3371TIP3    H234309   6.701   3.370  16.494 -2.9298 -0.5351  3.8141
 3372TIP3   OH234310   2.403   4.506  18.427  0.2190 -0.3001  0.7286
 3372TIP3    H134311   2.315   4.544  18.426  0.5795  0.7809  3.2556
 3372TIP3    H234312   2.432   4.511  18.335 -2.7242 -1.7850 -0.3995
 3373TIP3   OH234313   0.727   5.327  17.689 -0.0984  0.0748  0.1941
 3373TIP3    H134314   0.780   5.357  17.763  0.1373 -0.1384  0.1113
 3373TIP3    H234315   0.644   5.298  17.729  0.2212 -0.5296  0.4407
 3374TIP3   OH234316   4.315   6.739  17.387 -0.0191  0.0308 -0.1580
 3374TIP3    H134317   4.350   6.744  17.298 -0.7354  1.1234 -0.3970
 3374TIP3    H234318   4.223   6.719  17.375 -0.1752  0.4472  0.3292
 3375TIP3   OH234319   0.053   7.069  17.538  0.5509  0.4926  0.7444
 3375TIP3    H134320   0.144   7.053  17.565  0.8180  1.2784  0.3493
 3375TIP3    H234321   0.061   7.113  17.453 -0.2215  0.0194  0.4216
 3376TIP3   OH234322   1.095   2.012  18.717  0.0816  0.6413  0.5400
 3376TIP3    H134323   1.170   1.974  18.670  0.3330  0.3683  1.1443
 3376TIP3    H234324   1.020   1.960  18.689  0.6122 -1.2042  2.3336
 3377TIP3   OH234325   2.225   6.219  18.485  0.3958 -0.0483 -0.1667
 3377TIP3    H134326   2.260   6.268  18.559  1.0583 -1.0883  0.2305
 3377TIP3    H234327   2.302   6.188  18.437 -0.0135  1.5684 -1.9717
 3378TIP3   OH234328   0.557   6.934  17.860  0.0036 -0.3297  1.0830
 3378TIP3    H134329   0.480   6.878  17.852  0.5827 -1.2921  1.9919
 3378TIP3    H234330   0.553   6.969  17.949 -0.1557  0.8071  0.6492
 3379TIP3   OH234331   1.716   1.882  18.603 -0.0589 -0.3627  0.1154
 3379TIP3    H134332   1.778   1.950  18.629 -1.0223  1.3436 -1.7677
 3379TIP3    H234333   1.758   1.800  18.628  2.4335  0.7770 -0.0764
 3380TIP3   OH234334   3.652   3.907  19.357 -0.4029  0.3567  0.0056
 3380TIP3    H134335   3.652   3.964  19.434  1.6338  1.4714 -0.7506
 3380TIP3    H234336   3.656   3.818  19.393  0.5536  0.8556  1.1978
 3381TIP3   OH234337   5.878   6.517  18.806 -0.0045  0.1178  0.0194
 3381TIP3    H134338   5.813   6.518  18.876  0.1551 -0.5989  0.1834
 3381TIP3    H234339   5.905   6.608  18.797  0.4901  0.1177  1.3591
 3382TIP3   OH234340   1.828   1.832  17.753 -0.0172 -0.2318  0.1852
 3382TIP3    H134341   1.878   1.814  17.673 -0.2357 -0.8091  0.1794
 3382TIP3    H234342   1.881   1.798  17.824 -0.6931 -1.4537  0.1246
 3383TIP3   OH234343   6.722   4.053  19.503  0.5945  0.2688  0.3823
 3383TIP3    H134344   6.717   4.008  19.588  1.5327 -1.1086 -0.2435
 3383TIP3    H234345   6.661   4.005  19.448 -0.5937  1.6532  0.4623
 3384TIP3   OH234346   0.917   7.570  18.367  0.2028  0.1026  0.4764
 3384TIP3    H134347   0.885   7.493  18.320 -0.0302  0.7846 -0.4962
 3384TIP3    H234348   0.992   7.538  18.417 -0.6855 -1.0527  1.1322
 3385TIP3   OH234349   7.537   6.504  19.528  0.1872 -0.0459 -0.1474
 3385TIP3    H134350   7.462   6.553  19.495 -0.7132 -1.0577  0.3250
 3385TIP3    H234351   7.586   6.567  19.580 -0.3319  0.6295 -0.4598
 3386TIP3   OH234352   1.002   2.308  16.956 -0.2190 -0.5730 -0.2847
 3386TIP3    H134353   1.086   2.287  16.915 -0.3321 -0.3077 -0.6537
 3386TIP3    H234354   0.943   2.322  16.883 -0.7577 -1.4082 -0.0269
 3387TIP3   OH234355   1.094   0.509  17.289  0.4560 -0.4687 -0.3908
 3387TIP3    H134356   1.125   0.422  17.262 -0.0172 -0.9476  0.5609
 3387TIP3    H234357   1.163   0.542  17.346 -0.5820 -1.4158  1.4989
 3388TIP3   OH234358   1.294   6.787  17.305 -0.1673  0.3161  0.0936
 3388TIP3    H134359   1.354   6.788  17.230 -0.1680  0.3215  0.0928
 3388TIP3    H234360   1.312   6.869  17.350  0.2722  0.0289  0.4443
 3389TIP3   OH234361   3.348   2.620  18.434  0.0801  0.2358 -0.1600
 3389TIP3    H134362   3.421   2.680  18.419 -0.4976  0.7046 -1.1891
 3389TIP3    H234363   3.307   2.652  18.514  0.7625  0.2036  0.2107
 3390TIP3   OH234364   7.620   3.983  18.350  0.5209 -0.2306 -0.5401
 3390TIP3    H134365   7.696   3.945  18.392  0.2857 -0.0914  0.0168
 3390TIP3    H234366   7.546   3.959  18.406  0.1063 -0.6183 -1.2252
 3391TIP3   OH234367   2.688   1.901  17.372  0.5157 -0.3120  0.1798
 3391TIP3    H134368   2.654   1.848  17.444 -0.9524 -0.7277 -0.7833
 3391TIP3    H234369   2.769   1.856  17.346 -0.2846 -1.6701 -0.0970
 3392TIP3   OH234370   1.854   0.326  17.123 -0.5224 -0.1915 -0.2720
 3392TIP3    H134371   1.906   0.260  17.077  1.2277 -0.5717  2.1085
 3392TIP3    H234372   1.842   0.291  17.211 -1.1016  1.8786  0.5379
 3393TIP3   OH234373   0.866   0.435  17.438  0.3858  0.5294  0.5645
 3393TIP3    H134374   0.812   0.417  17.361  1.2165 -1.6590  0.4095
 3393TIP3    H234375   0.955   0.440  17.405  0.5718  1.5429  1.1561
 3394TIP3   OH234376   2.852   5.331  18.997 -0.0648 -0.1656 -0.1259
 3394TIP3    H134377   2.913   5.349  18.926  0.1369 -0.1453  0.0531
 3394TIP3    H234378   2.872   5.242  19.026  0.9082  0.3725  0.9441
 3395TIP3   OH234379   2.792   2.435  18.905 -0.1366 -0.4847 -0.0173
 3395TIP3    H134380   2.863   2.399  18.958  0.6459 -0.7277 -1.1946
 3395TIP3    H234381   2.828   2.439  18.817 -0.7767  1.6618 -0.2335
 3396TIP3   OH234382   1.677   1.901  16.723  0.0420 -0.3296  0.1315
 3396TIP3    H134383   1.731   1.878  16.799 -1.7459 -1.9348  1.0049
 3396TIP3    H234384   1.697   1.834  16.658  0.5009  0.2072 -0.2914
 3397TIP3   OH234385   0.381   0.237  17.586 -0.2119 -0.0029  0.5755
 3397TIP3    H134386   0.372   0.318  17.636 -0.6024  1.1311 -1.2266
 3397TIP3    H234387   0.292   0.207  17.572 -0.0344 -1.1937  1.8913
 3398TIP3   OH234388   7.087   5.255  17.960 -0.0246  0.0135 -0.3290
 3398TIP3    H134389   7.127   5.211  18.036  0.1159  1.8002  0.6754
 3398TIP3    H234390   7.083   5.186  17.893  2.4361 -0.9225  0.3421
 3399TIP3   OH234391   5.386   0.841  17.859  0.1824  0.4800  0.4225
 3399TIP3    H134392   5.300   0.849  17.818  0.1430  0.2350  0.4564
 3399TIP3    H234393   5.394   0.917  17.915 -0.3679  0.0510  1.0853
 3400TIP3   OH234394   4.012   0.414  17.125 -0.3582  0.7147  0.0878
 3400TIP3    H134395   4.073   0.441  17.194 -1.0477  2.0907  0.1921
 3400TIP3    H234396   3.929   0.401  17.171 -0.4115 -0.0604 -0.2213
 3401TIP3   OH234397   0.608   1.550  17.812  0.1652  0.6472  0.5035
 3401TIP3    H134398   0.513   1.555  17.828  0.5795  2.8396  2.8978
 3401TIP3    H234399   0.619   1.581  17.722 -1.2050  3.7732  1.2692
 3402TIP3   OH234400   0.142   1.820  18.464 -0.3427 -0.1774 -0.0442
 3402TIP3    H134401   0.108   1.853  18.547  1.1786  2.2412 -0.2649
 3402TIP3    H234402   0.076   1.844  18.399 -0.3643  0.3126  0.1485
 3403TIP3   OH234403   4.501   6.962  18.513 -0.2398 -0.1955 -0.5807
 3403TIP3    H134404   4.574   7.024  18.509 -0.9740  0.6692 -1.1127
 3403TIP3    H234405   4.424   7.018  18.528 -0.6290 -1.2080  1.5342
 3404TIP3   OH234406   5.145   2.548  19.555 -0.1167 -0.3283 -0.1114
 3404TIP3    H134407   5.108   2.629  19.521 -0.4629  0.1609  1.3299
 3404TIP3    H234408   5.145   2.488  19.481  0.5200  1.0948 -1.3087
 3405TIP3   OH234409   6.596   0.538  17.888 -0.4397 -0.6713  0.3886
 3405TIP3    H134410   6.670   0.577  17.935 -0.0490  0.7552 -1.2940
 3405TIP3    H234411   6.591   0.448  17.920  2.0981 -0.8473  0.4563
 3406TIP3   OH234412   0.507   1.398  19.598  0.3692 -0.1613 -0.2311
 3406TIP3    H134413   0.556   1.359  19.527 -0.2881  0.3561 -0.9842
 3406TIP3    H234414   0.459   1.325  19.637  0.4418 -0.3863 -0.5628
 3407TIP3   OH234415   1.978   3.574  18.553  0.0245 -0.5968  0.1577
 3407TIP3    H134416   1.968   3.571  18.458  0.4813 -0.9878  0.1219
 3407TIP3    H234417   1.888   3.581  18.586 -0.0515  1.5169 -0.3660
 3408TIP3   OH234418   5.617   4.110  18.315  0.0291  0.3201 -0.2104
 3408TIP3    H134419   5.579   4.037  18.364  2.5768 -2.5233 -2.1060
 3408TIP3    H234420   5.546   4.140  18.258 -1.5098  0.4465  1.6433
 3409TIP3   OH234421   2.545   4.345  17.184 -0.3010 -0.5752  0.1002
 3409TIP3    H134422   2.459   4.388  17.174 -0.6381 -1.4966 -1.4798
 3409TIP3    H234423   2.576   4.334  17.094  1.4607 -0.3452  0.6461
 3410TIP3   OH234424   7.306   5.119  18.185 -0.6268  0.0738 -0.2171
 3410TIP3    H134425   7.387   5.081  18.150 -0.3624  1.4490 -1.1798
 3410TIP3    H234426   7.324   5.133  18.278  0.8867  1.8990 -0.7297
 3411TIP3   OH234427   3.396   4.965  19.238  0.3522  0.0787 -0.4889
 3411TIP3    H134428   3.475   4.912  19.224 -0.6490 -1.2134 -1.5530
 3411TIP3    H234429   3.324   4.902  19.233 -0.7798  1.2722  0.1637
 3412TIP3   OH234430   5.150   5.697  19.246 -0.2660 -0.4937  0.1720
 3412TIP3    H134431   5.184   5.631  19.186 -0.4327  0.2006 -0.7043
 3412TIP3    H234432   5.224   5.756  19.261 -0.6323  0.1531 -0.5179
 3413TIP3   OH234433   0.572   5.029  17.328 -0.3431 -0.6254  0.1713
 3413TIP3    H134434   0.639   5.091  17.301 -1.1026 -0.4240 -1.3544
 3413TIP3    H234435   0.501   5.042  17.266 -2.2235 -0.1641  2.3159
 3414TIP3   OH234436   6.905   7.136  18.510  0.3340  0.0961 -0.1719
 3414TIP3    H134437   6.975   7.071  18.522  1.2778  1.2445  0.7114
 3414TIP3    H234438   6.951   7.218  18.495 -0.8534  0.5519 -1.5757
 3415TIP3   OH234439   4.095   7.397  18.622  0.5231 -0.0685 -0.2955
 3415TIP3    H134440   4.117   7.490  18.634  2.8323 -0.5350 -0.3435
 3415TIP3    H234441   4.087   7.386  18.527  0.3843  0.0632 -0.2980
 3416TIP3   OH234442   3.238   5.678  18.698  0.1856  0.3043 -0.7012
 3416TIP3    H134443   3.274   5.755  18.654  1.5783 -0.2393 -0.5790
 3416TIP3    H234444   3.172   5.644  18.638  1.7409 -0.1831 -2.2301
 3417TIP3   OH234445   4.320   1.434  18.852  0.2655 -0.2179  0.0720
 3417TIP3    H134446   4.364   1.461  18.771  0.2778 -0.5429 -0.0332
 3417TIP3    H234447   4.315   1.339  18.845  1.0508 -0.3286  0.8589
 3418TIP3   OH234448   4.757   7.263  18.674 -0.7399  0.2634 -0.1073
 3418TIP3    H134449   4.786   7.351  18.652 -0.8454  0.6599  1.2919
 3418TIP3    H234450   4.662   7.264  18.658 -0.3745 -0.5319 -3.0090
 3419TIP3   OH234451   1.053   0.542  18.105  0.6256 -0.0154  0.0943
 3419TIP3    H134452   1.079   0.619  18.054  1.2207  1.2200  2.1101
 3419TIP3    H234453   0.987   0.576  18.166  0.4238 -1.2512  0.5870
 3420TIP3   OH234454   5.592   5.006  16.756 -0.2560  0.4141  0.5462
 3420TIP3    H134455   5.675   5.023  16.712 -0.6362  0.8222 -0.0282
 3420TIP3    H234456   5.604   4.921  16.798  0.4575  0.4798  0.4835
 3421TIP3   OH234457   2.393   4.573  17.560  0.4352 -0.0429 -0.2899
 3421TIP3    H134458   2.398   4.563  17.655  0.3121 -2.6017 -0.4720
 3421TIP3    H234459   2.349   4.493  17.530  2.4101 -0.3731 -2.6522
 3422TIP3   OH234460   2.611   5.305  18.848 -0.3915 -0.1790 -0.3939
 3422TIP3    H134461   2.652   5.390  18.831 -0.3669 -0.2225 -0.5586
 3422TIP3    H234462   2.671   5.260  18.907 -1.6328  0.9144  1.8357
 3423TIP3   OH234463   2.301   6.519  19.214 -0.6475  0.5558 -0.0820
 3423TIP3    H134464   2.284   6.469  19.134  0.4735 -0.0883  0.0696
 3423TIP3    H234465   2.268   6.463  19.284  0.2210  0.1948  0.0541
 3424TIP3   OH234466   1.851   1.146  18.286  0.1108  0.5041  0.5630
 3424TIP3    H134467   1.928   1.127  18.340  1.4065  1.6170 -0.7716
 3424TIP3    H234468   1.835   1.239  18.300 -2.1002 -0.0472  2.1077
 3425TIP3   OH234469   4.670   0.941  17.846 -0.5161  0.3522 -0.1638
 3425TIP3    H134470   4.725   0.878  17.801  3.9934  0.9554  3.6725
 3425TIP3    H234471   4.596   0.890  17.879  0.4217 -1.7717 -1.2172
 3426TIP3   OH234472   5.788   2.229  18.179  0.3459  0.6668  0.1792
 3426TIP3    H134473   5.710   2.277  18.206 -0.1120  0.2988 -0.4671
 3426TIP3    H234474   5.861   2.286  18.204 -0.1696  1.5041 -0.1889
 3427TIP3   OH234475   3.292   3.270  17.694  0.2462  0.0030 -0.3338
 3427TIP3    H134476   3.272   3.179  17.672  1.7485 -0.1549 -1.2045
 3427TIP3    H234477   3.387   3.272  17.704  0.4457  1.7691 -1.8840
 3428TIP3   OH234478   4.022   2.632  17.864 -0.2495 -0.0577 -0.5554
 3428TIP3    H134479   4.041   2.570  17.793 -1.2560 -1.3637  0.2561
 3428TIP3    H234480   4.108   2.664  17.892  0.4587 -2.2049 -0.0745
 3429TIP3   OH234481   6.559   6.004  19.027 -0.6273 -0.4000  0.6533
 3429TIP3    H134482   6.467   5.982  19.039 -0.6533 -2.9735 -2.7827
 3429TIP3    H234483   6.604   5.920  19.030  0.5192 -0.3004 -4.7638
 3430TIP3   OH234484   1.656   4.344  18.064 -0.7559  0.1821  0.4989
 3430TIP3    H134485   1.685   4.406  17.996 -0.2399  0.5260  1.0246
 3430TIP3    H234486   1.711   4.364  18.140 -1.2541 -0.2722  0.9886
 3431TIP3   OH234487   5.414   5.813  18.932 -0.5322 -0.4789 -0.4198
 3431TIP3    H134488   5.363   5.824  19.012 -0.6481  0.9127 -0.6614
 3431TIP3    H234489   5.356   5.765  18.873 -0.9150 -0.4276 -0.0908
 3432TIP3   OH234490   7.611   5.366  17.999  0.1337  0.0752 -0.0676
 3432TIP3    H134491   7.700   5.333  18.011  0.5637  1.7427  1.9425
 3432TIP3    H234492   7.602   5.375  17.904  2.6942  1.2514 -0.2925
 3433TIP3   OH234493   6.635   2.806  17.297 -0.0438  0.1404 -0.2740
 3433TIP3    H134494   6.713   2.859  17.284  0.0733 -0.0215 -0.2324
 3433TIP3    H234495   6.651   2.759  17.379 -0.9209  1.4120  0.6660
 3434TIP3   OH234496   5.522   0.422  17.446 -0.7938 -0.1373 -0.0752
 3434TIP3    H134497   5.585   0.420  17.373 -0.1854 -1.2030  0.4480
 3434TIP3    H234498   5.516   0.514  17.470 -1.6499  0.3645 -1.9968
 3435TIP3   OH234499   7.430   0.679  17.968  0.4133 -0.1815  0.4462
 3435TIP3    H134500   7.400   0.589  17.956 -1.6093  0.5829 -0.9691
 3435TIP3    H234501   7.376   0.730  17.907  1.7928  1.9347  0.8886
 3436TIP3   OH234502   4.371   5.992  18.160  0.2718 -0.1971 -0.1445
 3436TIP3    H134503   4.305   5.945  18.110 -0.4586  0.3451  0.2902
 3436TIP3    H234504   4.423   6.037  18.094 -0.5900  0.3889 -0.4436
 3437TIP3   OH234505   5.525   4.588  18.633 -0.0966 -0.0164  0.3102
 3437TIP3    H134506   5.496   4.554  18.718 -0.6861 -1.8094 -0.5631
 3437TIP3    H234507   5.556   4.511  18.585  0.1195  0.9401 -1.1648
 3438TIP3   OH234508   2.276   3.889  17.621  0.0361  0.0227  0.1864
 3438TIP3    H134509   2.371   3.877  17.623  0.0578  0.3371  1.7639
 3438TIP3    H234510   2.250   3.901  17.712 -1.6505 -0.9551 -0.1089
 3439TIP3   OH234511   0.727   3.515  17.594  0.5454 -0.3035 -0.0306
 3439TIP3    H134512   0.732   3.432  17.547  0.7122 -0.0871 -0.3955
 3439TIP3    H234513   0.654   3.562  17.553  1.8946  0.6994 -1.3998
 3440TIP3   OH234514   3.375   1.372  18.433 -0.1858  0.1451  0.2005
 3440TIP3    H134515   3.319   1.298  18.456 -1.2810  0.2763 -1.7892
 3440TIP3    H234516   3.448   1.367  18.495  0.7647 -3.6866 -0.9456
 3441TIP3   OH234517   7.291   0.773  17.462 -0.0587  0.0507  0.5297
 3441TIP3    H134518   7.202   0.740  17.449 -0.1782  0.2012  0.9429
 3441TIP3    H234519   7.304   0.769  17.557  0.0882  0.7655  0.5469
 3442TIP3   OH234520   4.181   2.640  19.301  0.0959  0.2816 -0.3838
 3442TIP3    H134521   4.110   2.647  19.237 -0.5977 -0.4195  0.2880
 3442TIP3    H234522   4.160   2.707  19.367  1.0082  1.2588 -1.0522
 3443TIP3   OH234523   3.355   3.931  18.921  0.6442  0.6140  0.1150
 3443TIP3    H134524   3.359   3.959  19.012 -0.4899  1.0754  0.0486
 3443TIP3    H234525   3.445   3.909  18.897  1.0930  1.4167  1.0523
 3444TIP3   OH234526   4.723   3.264  16.495 -0.4635  0.2333  0.0790
 3444TIP3    H134527   4.697   3.190  16.550  0.2842  0.4006  0.6707
 3444TIP3    H234528   4.813   3.245  16.469 -1.3053 -0.6788 -2.5377
 3445TIP3   OH234529   2.912   1.929  19.033 -0.6367 -0.0633  0.0388
 3445TIP3    H134530   2.818   1.912  19.020 -0.6879  0.5689 -0.4983
 3445TIP3    H234531   2.915   1.993  19.103 -0.5151 -1.2026  1.1065
 3446TIP3   OH234532   6.938   0.465  17.659  0.2054  0.5236  0.3408
 3446TIP3    H134533   6.858   0.413  17.667  1.5599 -1.3501  3.6732
 3446TIP3    H234534   6.911   0.555  17.677 -1.2478  0.0376  0.7151
 3447TIP3   OH234535   1.030   1.817  16.635 -0.3409  0.5118 -0.2706
 3447TIP3    H134536   1.018   1.912  16.642 -1.7749  0.2841  1.0321
 3447TIP3    H234537   0.967   1.781  16.698  0.6582 -1.2828 -0.2513
 3448TIP3   OH234538   3.778   2.591  18.128  0.4839  0.4755 -0.2577
 3448TIP3    H134539   3.762   2.528  18.058  0.3390  0.7409 -0.4621
 3448TIP3    H234540   3.721   2.563  18.199  1.8875 -0.8388  0.4160
 3449TIP3   OH234541   7.263   2.967  18.890  0.3905  0.2688  0.9997
 3449TIP3    H134542   7.344   2.960  18.840  0.3383  0.0554  0.9436
 3449TIP3    H234543   7.235   2.876  18.904  0.6526  0.3063  1.8239
 3450TIP3   OH234544   1.323   3.741  17.811 -0.1786 -0.1931  0.5383
 3450TIP3    H134545   1.335   3.829  17.776 -0.2248  0.1129  1.2826
 3450TIP3    H234546   1.347   3.683  17.738  0.4471  0.4285  0.2368
 3451TIP3   OH234547   1.467   2.148  18.073  0.3576  0.5660  0.3676
 3451TIP3    H134548   1.552   2.106  18.066  0.5405  1.1211 -0.9348
 3451TIP3    H234549   1.435   2.154  17.983 -1.2715 -0.0340  0.8573
 3452TIP3   OH234550   0.647   6.197  18.325 -0.0383  0.1631  0.0134
 3452TIP3    H134551   0.690   6.248  18.392 -2.5805  2.3909  0.0986
 3452TIP3    H234552   0.666   6.243  18.243 -0.3598 -0.1396 -0.2374
 3453TIP3   OH234553   6.101   1.573  17.630 -0.3645 -0.1341  0.0381
 3453TIP3    H134554   6.116   1.641  17.565  0.9217  1.2964  1.7391
 3453TIP3    H234555   6.037   1.611  17.691 -1.6852 -1.5090 -0.4125
 3454TIP3   OH234556   1.097   1.544  19.261 -0.3970 -0.2747  0.3240
 3454TIP3    H134557   1.180   1.506  19.289  1.2599  2.2307 -0.8688
 3454TIP3    H234558   1.108   1.638  19.271 -2.5233  0.2415 -1.3381
 3455TIP3   OH234559   5.973   4.418  19.771 -0.6345 -0.5535 -0.0015
 3455TIP3    H134560   6.017   4.487  19.722 -0.5267 -0.9794 -0.5163
 3455TIP3    H234561   6.043   4.358  19.796 -0.4224  0.5088  2.1609
 3456TIP3   OH234562   4.300   0.171  18.519  0.6413  0.2311  0.8242
 3456TIP3    H134563   4.297   0.255  18.473 -2.4886 -0.9511 -1.4172
 3456TIP3    H234564   4.377   0.127  18.482  0.7531  1.0566  0.0322
 3457TIP3   OH234565   2.560   6.064  17.704  0.7081  0.0889  0.7162
 3457TIP3    H134566   2.517   6.126  17.762 -0.1340 -1.0029  1.3121
 3457TIP3    H234567   2.548   5.979  17.747 -0.4334 -0.8412 -1.2991
 3458TIP3   OH234568   2.270   0.415  18.399  0.0896  0.0419 -0.6808
 3458TIP3    H134569   2.231   0.399  18.485 -3.4493  3.9698 -1.2087
 3458TIP3    H234570   2.357   0.450  18.418 -0.6701  0.9624  1.3673
 3459TIP3   OH234571   1.031   4.302  16.327 -0.1918  0.6317  0.1471
 3459TIP3    H134572   1.013   4.221  16.375  2.6593  0.0722  0.4804
 3459TIP3    H234573   1.043   4.274  16.236  1.5532  0.4719  0.3844
 3460TIP3   OH234574   1.098   5.076  16.441  0.5500  0.4525  0.1363
 3460TIP3    H134575   1.140   5.159  16.464  0.7947  0.2015  0.6093
 3460TIP3    H234576   1.143   5.048  16.361  1.2776  0.1998  0.6223
 3461TIP3   OH234577   5.788   3.695  19.465  0.4393  0.3505  0.0076
 3461TIP3    H134578   5.715   3.753  19.444  0.8827  1.6693  1.8029
 3461TIP3    H234579   5.837   3.687  19.383  1.5565  4.3706  0.0372
 3462TIP3   OH234580   0.667   6.392  19.005  0.2373  0.8069 -0.1436
 3462TIP3    H134581   0.760   6.405  19.019  0.3687  0.6451 -0.8105
 3462TIP3    H234582   0.639   6.472  18.960  0.2381  0.4796 -0.7329
 3463TIP3   OH234583   7.143   5.845  18.917 -0.0133 -0.1096 -0.6477
 3463TIP3    H134584   7.207   5.910  18.892 -0.3870  0.3506 -0.4266
 3463TIP3    H234585   7.192   5.762  18.919  0.6455  0.2816 -0.1602
 3464TIP3   OH234586   7.203   5.956  17.879  0.1581 -0.8040  0.2404
 3464TIP3    H134587   7.220   5.872  17.836 -1.1586 -0.8356 -0.2663
 3464TIP3    H234588   7.134   5.996  17.827  0.0478  0.1405  1.0817
 3465TIP3   OH234589   3.882   0.730  16.603  0.0107  0.1647  0.5181
 3465TIP3    H134590   3.797   0.696  16.576  0.1796 -1.1890  1.5947
 3465TIP3    H234591   3.915   0.667  16.667  0.6223  2.0326  2.1576
 3466TIP3   OH234592   3.320   6.443  16.976  0.0291  0.3579  0.6905
 3466TIP3    H134593   3.225   6.430  16.979  0.1515 -0.6449  0.7647
 3466TIP3    H234594   3.352   6.407  17.059  0.4832  0.6529  0.6507
 3467TIP3   OH234595   7.193   6.146  17.224 -0.6077  0.4044 -0.2075
 3467TIP3    H134596   7.232   6.125  17.140  0.2643 -2.1502  0.7283
 3467TIP3    H234597   7.267   6.173  17.279 -0.5381 -1.5300  0.7245
 3468TIP3   OH234598   3.820   3.968  19.625  0.0917  0.1532 -0.4127
 3468TIP3    H134599   3.741   3.926  19.660  0.2877  0.5439  0.5468
 3468TIP3    H234600   3.856   3.904  19.563 -0.5729 -0.3384 -0.3062
 3469TIP3   OH234601   4.124   2.689  16.990 -0.3995 -0.8324  0.3060
 3469TIP3    H134602   4.190   2.751  16.958  1.3375 -2.6361  0.1811
 3469TIP3    H234603   4.073   2.739  17.054  1.1729  0.6216  0.5113
 3470TIP3   OH234604   1.863   1.892  16.916  0.5697 -0.2417  0.5232
 3470TIP3    H134605   1.852   1.979  16.952  0.6431  0.1467 -0.3631
 3470TIP3    H234606   1.843   1.833  16.989  1.1234  0.5063  1.3061
 3471TIP3   OH234607   1.394   4.106  19.071  0.5869  0.3473 -0.0430
 3471TIP3    H134608   1.306   4.095  19.107  1.0488 -0.0145  1.0262
 3471TIP3    H234609   1.381   4.122  18.978 -0.5303 -1.7302 -0.3058
 3472TIP3   OH234610   3.190   0.322  18.786 -0.5818  0.2967  0.4106
 3472TIP3    H134611   3.098   0.341  18.806 -1.1861 -1.3840 -0.5747
 3472TIP3    H234612   3.224   0.405  18.752 -2.1774  0.5669 -0.6435
 3473TIP3   OH234613   2.894   6.159  17.448 -0.2362 -0.4379  0.4189
 3473TIP3    H134614   2.928   6.140  17.535 -0.8627 -1.3964  0.4759
 3473TIP3    H234615   2.916   6.081  17.396  1.3982  0.6869 -0.6958
 3474TIP3   OH234616   6.409   5.434  19.560  0.5163  0.2962  0.3031
 3474TIP3    H134617   6.460   5.370  19.610 -0.5278  0.2868  1.4077
 3474TIP3    H234618   6.318   5.405  19.569  0.1153  1.3969  0.0206
 3475TIP3   OH234619   1.340   2.910  17.726  0.0279  0.6127  0.1569
 3475TIP3    H134620   1.333   2.839  17.661  0.0447  1.0639 -0.3450
 3475TIP3    H234621   1.253   2.951  17.725  0.2184  1.0113 -0.0312
 3476TIP3   OH234622   5.407   6.662  18.487  0.6379  0.1963 -0.2275
 3476TIP3    H134623   5.450   6.591  18.534  1.5176  1.3045  0.7032
 3476TIP3    H234624   5.431   6.648  18.396 -2.0477 -2.6698 -0.6736
 3477TIP3   OH234625   4.460   3.783  18.257  0.1528 -0.2186 -0.0136
 3477TIP3    H134626   4.452   3.708  18.316 -2.9455 -0.2593 -0.3594
 3477TIP3    H234627   4.387   3.839  18.279  1.0023  1.5375 -1.4418
 3478TIP3   OH234628   5.512   6.315  18.231 -0.1699  0.8943  0.0902
 3478TIP3    H134629   5.581   6.319  18.165  0.3457 -0.6583  0.4765
 3478TIP3    H234630   5.511   6.402  18.271  1.0804  1.1516 -0.3998
 3479TIP3   OH234631   5.732   0.739  19.393  0.2901 -0.4769  0.9063
 3479TIP3    H134632   5.689   0.814  19.435  0.4089 -0.0279  0.2441
 3479TIP3    H234633   5.771   0.690  19.466 -1.5223 -1.0421  1.5603
 3480TIP3   OH234634   5.319   3.711  18.847 -0.6754 -0.1591  0.1306
 3480TIP3    H134635   5.256   3.777  18.820 -1.0161 -0.2666  0.6498
 3480TIP3    H234636   5.381   3.705  18.774 -1.8703 -0.8468 -0.8614
 3481TIP3   OH234637   0.429   0.978  17.326 -0.4687  0.5663  0.0527
 3481TIP3    H134638   0.513   1.023  17.316  0.0906  0.6016  3.5101
 3481TIP3    H234639   0.386   0.988  17.242  1.4472  3.7776 -0.7217
 3482TIP3   OH234640   2.375   5.427  18.905 -0.6912 -0.5318 -0.1194
 3482TIP3    H134641   2.411   5.503  18.859 -0.9441  0.6093  1.4846
 3482TIP3    H234642   2.449   5.367  18.914  0.0238  0.3748  0.2529
 3483TIP3   OH234643   0.663   5.584  19.420 -0.0761  0.6499  0.2000
 3483TIP3    H134644   0.739   5.532  19.392  0.3002  1.8553 -1.1473
 3483TIP3    H234645   0.702   5.661  19.463 -0.5452  1.1352 -0.2447
 3484TIP3   OH234646   1.134   4.471  18.941  0.3249 -0.3205 -0.5555
 3484TIP3    H134647   1.224   4.506  18.939  0.5329 -0.8480 -2.0235
 3484TIP3    H234648   1.106   4.481  19.032  1.6090  0.5203 -0.2221
 3485TIP3   OH234649   4.298   5.778  19.437 -0.6435  0.2444 -0.3752
 3485TIP3    H134650   4.327   5.692  19.467  0.2948  0.7104  0.1021
 3485TIP3    H234651   4.208   5.765  19.408  0.4976 -1.6622 -3.5425
 3486TIP3   OH234652   7.347   7.210  18.095 -0.2360 -0.9113  0.3614
 3486TIP3    H134653   7.286   7.278  18.068  0.5223 -1.1532 -2.2383
 3486TIP3    H234654   7.340   7.208  18.190 -2.5197  0.6554  0.3025
 3487TIP3   OH234655   4.708   3.799  18.718  0.0255 -0.2889  0.3515
 3487TIP3    H134656   4.776   3.765  18.777  1.3665 -0.6233 -1.3310
 3487TIP3    H234657   4.721   3.894  18.719 -1.1123 -0.1036  1.9071
 3488TIP3   OH234658   2.798   0.975  18.282 -0.4876 -0.4527 -0.6499
 3488TIP3    H134659   2.753   1.042  18.230  0.6463 -0.0312 -1.1355
 3488TIP3    H234660   2.802   1.013  18.370  0.8830  0.5394 -1.0985
 3489TIP3   OH234661   0.006   6.843  19.519  0.0571 -1.0872 -0.5394
 3489TIP3    H134662   0.067   6.811  19.585  1.1344  2.2154  0.2319
 3489TIP3    H234663   0.052   6.832  19.436  1.4979  0.6619 -0.0359
 3490TIP3   OH234664   3.678   2.366  17.181 -0.2587 -0.1308 -0.4382
 3490TIP3    H134665   3.609   2.371  17.247  1.6421  1.2054  1.5767
 3490TIP3    H234666   3.694   2.272  17.170 -1.6197 -0.4197 -0.1176
 3491TIP3   OH234667   3.804   3.848  19.115 -0.5171 -0.0638 -0.6166
 3491TIP3    H134668   3.774   3.859  19.206  1.2276  2.1721 -0.2005
 3491TIP3    H234669   3.725   3.858  19.062 -1.4233 -0.4887  0.6098
 3492TIP3   OH234670   6.233   6.808  17.932 -0.6210 -0.2365  0.0542
 3492TIP3    H134671   6.272   6.722  17.952  1.5269 -0.3171 -3.5142
 3492TIP3    H234672   6.293   6.871  17.972  1.3007 -0.4332 -2.2917
 3493TIP3   OH234673   4.364   3.053  18.159  0.1438 -0.3999 -0.1764
 3493TIP3    H134674   4.358   3.033  18.066 -1.8673  0.2968 -0.2482
 3493TIP3    H234675   4.424   3.128  18.164  1.7333 -1.5805 -0.6704
 3494TIP3   OH234676   5.217   5.189  18.671 -0.2273 -0.3459  0.1410
 3494TIP3    H134677   5.201   5.095  18.680 -1.6094 -0.1720 -0.1925
 3494TIP3    H234678   5.144   5.230  18.717  1.0927  0.6084  1.4882
 3495TIP3   OH234679   3.646   5.874  19.386 -0.7161 -0.3383 -0.0137
 3495TIP3    H134680   3.715   5.885  19.320  1.2560 -2.2394  1.5832
 3495TIP3    H234681   3.693   5.869  19.469 -2.9283 -0.4167  1.2967
 3496TIP3   OH234682   3.272   7.026  18.137  0.1169  0.0635 -0.0370
 3496TIP3    H134683   3.266   6.931  18.130 -0.1788  0.1041 -0.4178
 3496TIP3    H234684   3.255   7.057  18.048  2.0225  0.3966 -0.3247
 3497TIP3   OH234685   4.764   5.628  19.480 -0.1156 -0.5370  0.4446
 3497TIP3    H134686   4.698   5.596  19.542 -1.4297  1.2210  0.0339
 3497TIP3    H234687   4.726   5.612  19.394 -0.3496  1.1183  0.2153
 3498TIP3   OH234688   3.043   3.619  19.152 -0.1892 -0.1723  0.4037
 3498TIP3    H134689   3.038   3.526  19.177 -1.8133 -0.6971 -1.5477
 3498TIP3    H234690   3.069   3.617  19.060 -4.0624  0.9869 -0.9034
 3499TIP3   OH234691   1.644   0.929  19.237  0.0473 -0.3428  0.4149
 3499TIP3    H134692   1.692   0.848  19.220 -0.6145 -0.9603  1.3802
 3499TIP3    H234693   1.552   0.904  19.235 -0.2288  0.6694 -0.6350
 3500TIP3   OH234694   5.573   3.453  19.340  0.1332  0.1699  0.2683
 3500TIP3    H134695   5.584   3.365  19.374 -0.2691 -0.0970 -0.2777
 3500TIP3    H234696   5.545   3.505  19.415  0.9183 -0.0423  0.7152
 3501TIP3   OH234697   6.949   2.306  19.206 -0.0391  0.2237 -0.8736
 3501TIP3    H134698   7.009   2.370  19.168 -0.7147  0.8295 -0.9496
 3501TIP3    H234699   6.997   2.223  19.203  0.1032  0.3295 -2.6522
 3502TIP3   OH234700   3.176   2.177  16.945  0.0656  0.3336  0.2273
 3502TIP3    H134701   3.263   2.145  16.969 -1.6472 -3.0305  2.9461
 3502TIP3    H234702   3.159   2.139  16.859  0.9908  0.4276 -0.0056
 3503TIP3   OH234703   4.214   4.707  18.194  0.2972  0.1580  0.4686
 3503TIP3    H134704   4.309   4.709  18.191  0.3153 -0.5577  0.5757
 3503TIP3    H234705   4.192   4.714  18.287  0.2350  0.5860  0.4249
 3504TIP3   OH234706   0.319   1.425  17.103  0.1456  0.0660 -0.5416
 3504TIP3    H134707   0.295   1.517  17.113 -2.0558 -0.4996  0.0848
 3504TIP3    H234708   0.275   1.397  17.023  0.3513 -0.5711 -0.4394
 3505TIP3   OH234709   2.530   6.351  19.298 -0.6722  0.2480  0.1939
 3505TIP3    H134710   2.503   6.433  19.257 -0.5005 -0.0458 -0.5443
 3505TIP3    H234711   2.620   6.337  19.266  0.1255  0.8665  2.0505
 3506TIP3   OH234712   5.707   4.446  18.876  0.6157 -0.8960  0.1433
 3506TIP3    H134713   5.645   4.516  18.897  1.2653 -0.6496  1.3373
 3506TIP3    H234714   5.769   4.487  18.815  1.1863 -0.2977  1.0960
 3507TIP3   OH234715   4.238   5.722  18.729  0.4466  0.2728 -0.3221
 3507TIP3    H134716   4.278   5.796  18.684 -0.6290  2.0500  1.4772
 3507TIP3    H234717   4.164   5.760  18.776 -0.8438 -2.1662 -0.2106
 3508TIP3   OH234718   2.846   6.577  17.320 -0.5524 -0.0668 -0.2235
 3508TIP3    H134719   2.856   6.672  17.328  0.9344 -0.2263  0.1990
 3508TIP3    H234720   2.936   6.545  17.309 -0.5375 -1.7427  3.3344
 3509TIP3   OH234721   7.053   6.430  17.750 -0.1972 -0.2770  0.5689
 3509TIP3    H134722   7.015   6.409  17.836 -1.1982  0.1967  0.2515
 3509TIP3    H234723   7.146   6.406  17.759 -0.2368 -0.0348  1.8531
 3510TIP3   OH234724   4.844   1.360  17.784 -0.3922  0.1752 -0.1351
 3510TIP3    H134725   4.925   1.375  17.832 -1.0097 -2.5169  1.9770
 3510TIP3    H234726   4.775   1.393  17.841 -0.9611 -0.3417 -0.5068
 3511TIP3   OH234727   1.902   4.963  17.843  0.3425  0.2896 -0.4915
 3511TIP3    H134728   1.876   4.929  17.928 -0.5815  0.1856 -0.8103
 3511TIP3    H234729   1.890   5.058  17.850  0.6313  0.3193 -0.3834
 3512TIP3   OH234730   3.908   4.386  17.958 -0.6354  0.4367  0.1533
 3512TIP3    H134731   3.939   4.365  17.870  1.2268 -0.2541  0.9128
 3512TIP3    H234732   3.959   4.462  17.984 -1.2308  0.6851  0.6051
 3513TIP3   OH234733   1.422   3.991  17.672 -0.0927  0.4349 -0.1270
 3513TIP3    H134734   1.378   4.061  17.625 -0.3914 -0.3884 -1.1086
 3513TIP3    H234735   1.486   3.956  17.609 -0.3160 -0.5117  0.1544
 3514TIP3   OH234736   4.898   4.166  17.981 -0.1574  0.3619  0.4813
 3514TIP3    H134737   4.990   4.171  17.956 -0.2547  0.8756  0.2070
 3514TIP3    H234738   4.870   4.078  17.954  0.1584  0.3359  0.2424
 3515TIP3   OH234739   2.295   7.085  18.520  0.1103 -0.2541  0.5705
 3515TIP3    H134740   2.256   7.028  18.585  1.6559 -1.8182  0.1870
 3515TIP3    H234741   2.363   7.133  18.567 -0.6179  0.6727  0.6998
 3516TIP3   OH234742   0.261   0.060  18.737  0.0157 -0.5597 -0.0232
 3516TIP3    H134743   0.207   0.125  18.781  1.4363 -0.6552  1.9914
 3516TIP3    H234744   0.333   0.110  18.699  0.6510 -0.8299  0.7928
 3517TIP3   OH234745   2.122   4.136  17.238 -0.2363 -0.5984  0.1509
 3517TIP3    H134746   2.144   4.230  17.236 -2.0731 -0.1160 -2.1554
 3517TIP3    H234747   2.105   4.117  17.330 -1.1365  1.6962  0.5346
 3518TIP3   OH234748   5.625   4.910  19.421 -0.2543  0.2159  0.0325
 3518TIP3    H134749   5.600   4.993  19.380  0.9552  0.1437 -0.9301
 3518TIP3    H234750   5.631   4.849  19.347  1.7505  0.0152  0.3040
 3519TIP3   OH234751   4.089   7.285  17.517 -0.0910 -0.4351 -0.7676
 3519TIP3    H134752   4.031   7.331  17.456 -0.1547 -0.0835 -0.4492
 3519TIP3    H234753   4.156   7.246  17.461 -0.4387 -0.5528 -1.1064
 3520TIP3   OH234754   0.614   0.082  17.555 -0.4198 -0.1206 -0.6275
 3520TIP3    H134755   0.538   0.130  17.587 -0.7585 -0.7862 -0.4312
 3520TIP3    H234756   0.687   0.144  17.565 -0.8342  0.3149 -0.2804
 3521TIP3   OH234757   3.331   4.474  18.240  0.1245 -0.4734  0.7436
 3521TIP3    H134758   3.416   4.436  18.260  1.0391 -0.2981 -2.3602
 3521TIP3    H234759   3.351   4.561  18.205 -1.4505  0.0866  1.1432
 3522TIP3   OH234760   3.934   1.096  18.709 -0.0340  0.6019  0.8142
 3522TIP3    H134761   3.975   1.025  18.757  0.3528 -0.3447 -0.8453
 3522TIP3    H234762   4.000   1.125  18.646 -1.3382  0.0555 -0.8880
 3523TIP3   OH234763   2.962   1.209  16.648  0.0484 -0.5148  0.4697
 3523TIP3    H134764   3.045   1.167  16.669  1.6161  0.8986 -2.3665
 3523TIP3    H234765   2.986   1.283  16.592 -2.9719  1.2664  1.3155
 3524TIP3   OH234766   0.618   1.264  19.390 -0.5317 -0.2657  0.2106
 3524TIP3    H134767   0.606   1.242  19.298  0.0298 -0.5038  0.1938
 3524TIP3    H234768   0.713   1.272  19.401 -0.6582  2.1253  0.2046
 3525TIP3   OH234769   0.569   0.105  18.716  0.1166  0.4105  0.0102
 3525TIP3    H134770   0.637   0.043  18.690 -0.6444 -0.2936 -0.3134
 3525TIP3    H234771   0.605   0.148  18.794  1.1022  0.3404 -0.3879
 3526TIP3   OH234772   3.733   1.224  17.780  0.3478  0.2766 -0.4453
 3526TIP3    H134773   3.643   1.245  17.758  0.6219  0.8300 -1.0890
 3526TIP3    H234774   3.778   1.308  17.781  0.4651  0.2338  1.8526
 3527TIP3   OH234775   6.535   7.637  18.882 -0.6950  0.1455  0.4974
 3527TIP3    H134776   6.513   7.561  18.937  1.8450 -0.7219  0.4762
 3527TIP3    H234777   6.586   7.694  18.940  1.1794 -0.3132 -0.5941
 3528TIP3   OH234778   1.234   4.588  17.889  0.0571 -0.3736 -0.0638
 3528TIP3    H134779   1.203   4.673  17.920 -1.2714 -1.2270  1.0586
 3528TIP3    H234780   1.169   4.561  17.823 -1.4790 -1.9713  1.9751
 3529TIP3   OH234781   6.429   5.309  17.289 -0.1685 -0.3402  0.0884
 3529TIP3    H134782   6.333   5.302  17.296 -0.1406 -0.3709  0.4397
 3529TIP3    H234783   6.457   5.220  17.267 -0.2409 -0.2740 -0.2905
 3530TIP3   OH234784   7.376   1.958  17.541 -0.1851 -0.1007 -0.0685
 3530TIP3    H134785   7.382   2.052  17.556 -0.5310  0.3515 -2.3151
 3530TIP3    H234786   7.345   1.922  17.624 -0.1522  1.7783  0.8098
 3531TIP3   OH234787   2.090   1.592  18.529  0.2414 -0.3247  0.1869
 3531TIP3    H134788   2.183   1.570  18.539  0.3753 -0.4994 -1.2226
 3531TIP3    H234789   2.051   1.568  18.613  1.6878  0.9957  1.3081
 3532TIP3   OH234790   4.092   6.217  18.296  0.1220  0.3693 -0.0600
 3532TIP3    H134791   4.019   6.278  18.282  0.6885  0.6007 -2.4505
 3532TIP3    H234792   4.071   6.141  18.241  0.5686 -0.5984  1.0609
 3533TIP3   OH234793   5.805   6.589  17.536 -0.1092  0.0227  0.0249
 3533TIP3    H134794   5.759   6.659  17.581  2.2497  1.2265  0.6878
 3533TIP3    H234795   5.861   6.550  17.602  0.9020 -0.4350 -1.0682
 3534TIP3   OH234796   7.131   2.882  17.007 -0.0907  0.3139  0.0603
 3534TIP3    H134797   7.048   2.881  17.054  0.5886 -2.5405  1.4430
 3534TIP3    H234798   7.115   2.828  16.929  0.8850 -1.9172  1.3314
 3535TIP3   OH234799   5.618   6.443  17.353  0.1589  0.0379  0.2535
 3535TIP3    H134800   5.675   6.476  17.423  2.0689  0.2270 -1.3047
 3535TIP3    H234801   5.614   6.515  17.290  0.8042 -1.0997 -1.1398
 3536TIP3   OH234802   4.497   3.742  17.980 -0.4800 -0.0008  0.6931
 3536TIP3    H134803   4.454   3.817  17.938  0.4759 -0.0100 -0.3399
 3536TIP3    H234804   4.512   3.771  18.070 -3.6534 -0.4127  1.4905
 3537TIP3   OH234805   5.138   2.769  17.808  0.1053  0.2039  0.7387
 3537TIP3    H134806   5.092   2.816  17.739  0.4731 -0.9538 -0.3458
 3537TIP3    H234807   5.099   2.800  17.889 -1.4697  0.4162 -0.0662
 3538TIP3   OH234808   7.193   4.389  16.763 -0.1339 -0.2669 -0.0294
 3538TIP3    H134809   7.103   4.408  16.740 -0.2390 -0.3933  0.2673
 3538TIP3    H234810   7.203   4.295  16.746 -0.3091 -0.4314  0.7309
 3539TIP3   OH234811   1.952   5.742  18.278 -0.1637 -0.4932  0.1992
 3539TIP3    H134812   1.949   5.838  18.269  0.0135 -0.5706 -0.8193
 3539TIP3    H234813   1.963   5.727  18.372  2.0820  0.5403  0.1639
 3540TIP3   OH234814   1.679   2.894  17.892  0.2982 -0.0168  0.1750
 3540TIP3    H134815   1.690   2.833  17.966 -5.3166 -2.1932 -0.2836
 3540TIP3    H234816   1.635   2.969  17.930  0.0845  0.2001 -0.4918
 3541TIP3   OH234817   7.038   6.916  16.867 -0.4068  0.2595  0.2536
 3541TIP3    H134818   7.063   6.995  16.916  1.2744 -0.1843  0.1772
 3541TIP3    H234819   7.113   6.898  16.811 -0.4536 -1.7847  0.7611
 3542TIP3   OH234820   1.043   5.459  17.228  0.1472  0.2284 -0.2477
 3542TIP3    H134821   1.048   5.555  17.222  0.1520  0.2165 -0.4430
 3542TIP3    H234822   1.069   5.429  17.140 -1.3946  0.0942 -0.6794
 3543TIP3   OH234823   5.233   0.219  16.863  0.9533  0.1909  0.0294
 3543TIP3    H134824   5.269   0.257  16.944  2.0134  0.6689 -0.6429
 3543TIP3    H234825   5.172   0.151  16.893 -0.4113  1.8592  1.2796
 3544TIP3   OH234826   7.361   2.586  19.104  0.0620 -0.1178  0.0986
 3544TIP3    H134827   7.358   2.645  19.028  0.4039 -0.4672 -0.1912
 3544TIP3    H234828   7.441   2.610  19.150  0.6526 -0.9051 -0.4830
 3545TIP3   OH234829   4.562   6.622  17.453 -0.0585  0.5365  0.0202
 3545TIP3    H134830   4.549   6.552  17.517  1.6065 -2.3218 -2.5505
 3545TIP3    H234831   4.475   6.662  17.444 -1.1151 -1.2705  1.4409
 3546TIP3   OH234832   2.643   6.053  18.081 -0.0672  0.2892  0.2106
 3546TIP3    H134833   2.556   6.082  18.052 -0.3665  0.4946  1.2710
 3546TIP3    H234834   2.626   5.979  18.138  0.5885 -0.8354 -1.0014
 3547TIP3   OH234835   5.101   6.083  19.276  0.4968  0.4995 -0.2872
 3547TIP3    H134836   5.089   6.044  19.190  1.7921  0.7673 -0.6009
 3547TIP3    H234837   5.168   6.029  19.318  0.0815  0.5414  0.4528
 3548TIP3   OH234838   0.902   1.915  18.543  0.1453 -0.0064 -0.1199
 3548TIP3    H134839   0.949   1.980  18.490 -0.8397  1.0337  0.2517
 3548TIP3    H234840   0.827   1.891  18.490 -1.1802  1.4879  0.9866
 3549TIP3   OH234841   6.590   7.317  18.107 -0.5187  0.0376  0.0520
 3549TIP3    H134842   6.585   7.229  18.069 -0.5358  0.3785 -0.7589
 3549TIP3    H234843   6.682   7.329  18.127 -0.5219 -0.1788  0.2035
 3550TIP3   OH234844   5.194   2.443  17.574 -0.0258  0.4493 -0.2312
 3550TIP3    H134845   5.113   2.411  17.614  0.1989  1.1638  0.8353
 3550TIP3    H234846   5.257   2.373  17.589 -0.2051  0.2855 -0.2322
 3551TIP3   OH234847   3.605   1.305  19.279 -0.6504 -0.1439  0.2953
 3551TIP3    H134848   3.603   1.274  19.188 -1.3711 -2.0513  0.9097
 3551TIP3    H234849   3.625   1.226  19.330  0.5093  1.0417  1.7444
 3552TIP3   OH234850   7.314   2.210  17.707 -0.0259 -0.4271  0.2828
 3552TIP3    H134851   7.245   2.265  17.744 -0.1256 -0.6588  0.4451
 3552TIP3    H234852   7.335   2.149  17.777  0.0956 -0.5855  0.1092
 3553TIP3   OH234853   5.749   3.000  18.011  0.4585 -0.0478 -0.4859
 3553TIP3    H134854   5.718   2.914  18.040  0.5873 -0.0102 -0.2305
 3553TIP3    H234855   5.670   3.053  18.003  0.5488  0.4565  1.4906
 3554TIP3   OH234856   0.615   7.192  17.745  0.1051 -0.0832 -0.4067
 3554TIP3    H134857   0.540   7.225  17.694  0.1528 -0.2656 -0.5973
 3554TIP3    H234858   0.582   7.114  17.789 -0.4313  0.9751  1.1764
 3555TIP3   OH234859   0.568   2.541  18.693 -0.3283  0.1574  0.5892
 3555TIP3    H134860   0.542   2.519  18.604  0.2313  1.9012 -0.0367
 3555TIP3    H234861   0.505   2.494  18.749 -0.8152 -0.7802 -0.7028
 3556TIP3   OH234862   5.799   6.715  19.336 -0.1643  0.1401  0.5761
 3556TIP3    H134863   5.742   6.714  19.259 -0.3635  2.2020  0.6319
 3556TIP3    H234864   5.819   6.623  19.353 -0.2554 -0.3835 -1.8263
 3557TIP3   OH234865   5.688   6.641  19.051 -0.0145  0.3487  0.4449
 3557TIP3    H134866   5.777   6.678  19.055  0.2348 -0.2467  0.5729
 3557TIP3    H234867   5.665   6.644  18.958  0.0464  0.7309  0.4425
 3558TIP3   OH234868   4.452   1.129  18.552  0.1694  0.0301 -0.0045
 3558TIP3    H134869   4.448   1.086  18.467 -1.7754  2.0334 -0.9997
 3558TIP3    H234870   4.413   1.065  18.612  1.5870 -1.4105 -0.5352
 3559TIP3   OH234871   6.079   5.847  17.462 -0.2418  0.2556 -0.3771
 3559TIP3    H134872   6.092   5.857  17.367  1.6600 -4.1703 -0.8616
 3559TIP3    H234873   5.989   5.818  17.471 -0.2119 -0.0397 -0.9525
 3560TIP3   OH234874   4.797   0.706  18.113 -0.1023 -0.5469 -0.8334
 3560TIP3    H134875   4.767   0.676  18.198  1.9565  0.0223  0.1579
 3560TIP3    H234876   4.868   0.768  18.132 -0.4685  0.6225 -2.9309
 3561TIP3   OH234877   3.698   0.723  19.156 -0.2461  0.5564 -0.6096
 3561TIP3    H134878   3.663   0.764  19.078  1.8517 -0.4234 -2.1808
 3561TIP3    H234879   3.777   0.678  19.126  0.0842 -0.7299  1.8862
 3562TIP3   OH234880   1.053   2.391  16.371  0.5090  0.7532 -0.1394
 3562TIP3    H134881   1.107   2.423  16.443  0.5252 -1.0519  0.7151
 3562TIP3    H234882   1.065   2.455  16.301  2.4915  1.2522  0.5890
 3563TIP3   OH234883   1.992   1.550  17.329 -0.3749  0.0212  0.1955
 3563TIP3    H134884   2.003   1.492  17.405 -0.1557 -0.8886 -0.5153
 3563TIP3    H234885   2.033   1.503  17.257  0.4592  1.3906 -0.2719
 3564TIP3   OH234886   7.669   7.562  19.431  0.3006 -0.1244  0.0579
 3564TIP3    H134887   7.622   7.631  19.384  0.2212  0.4410  0.9584
 3564TIP3    H234888   7.605   7.527  19.493  0.8736  0.2183  0.8539
 3565TIP3   OH234889   6.182   7.254  18.656  0.3437  0.0052  0.5413
 3565TIP3    H134890   6.119   7.251  18.584  0.2656  0.5541  0.5795
 3565TIP3    H234891   6.143   7.200  18.724  0.4492 -0.5749  0.1480
 3566TIP3   OH234892   4.554   1.479  18.664 -0.2434 -0.1331  0.0230
 3566TIP3    H134893   4.614   1.461  18.592 -0.8040 -0.1483 -0.4493
 3566TIP3    H234894   4.596   1.549  18.714  0.6012 -0.7795  0.2385
 3567TIP3   OH234895   1.611   5.448  18.299 -0.7755  0.2314 -0.3187
 3567TIP3    H134896   1.608   5.388  18.374 -0.1297  0.7398  0.1171
 3567TIP3    H234897   1.595   5.534  18.337 -0.4019  0.4986 -0.7694
 3568TIP3   OH234898   2.660   7.153  17.823 -0.0087  0.0554  0.0427
 3568TIP3    H134899   2.688   7.173  17.913 -0.4077 -0.1622  0.2210
 3568TIP3    H234900   2.680   7.232  17.774 -1.1441  0.7300  0.6391
 3569TIP3   OH234901   6.257   7.391  18.969  0.6291 -0.2115 -0.4830
 3569TIP3    H134902   6.215   7.321  19.017 -1.7534  1.1780 -0.4106
 3569TIP3    H234903   6.185   7.443  18.934  2.3030  1.8063 -1.1261
 3570TIP3   OH234904   4.589   4.131  18.463 -0.3063  0.1558 -0.3104
 3570TIP3    H134905   4.620   4.200  18.522  1.0215 -0.4604 -0.2532
 3570TIP3    H234906   4.647   4.137  18.387 -0.3286 -0.7347 -0.4056
 3571TIP3   OH234907   3.652   6.036  17.574  0.5084 -0.0784  0.0209
 3571TIP3    H134908   3.631   5.946  17.599  2.0169 -0.4375  0.0882
 3571TIP3    H234909   3.736   6.029  17.530  0.5722  1.2981 -0.1108
 3572TIP3   OH234910   7.305   4.488  18.237  0.1862 -0.2235  0.2044
 3572TIP3    H134911   7.308   4.582  18.252  0.0533 -0.0977 -0.5292
 3572TIP3    H234912   7.365   4.473  18.164  1.7847 -0.9870  1.6077
 3573TIP3   OH234913   3.952   4.600  18.764  0.3009  0.2922 -0.2506
 3573TIP3    H134914   3.940   4.638  18.851 -1.4563  0.1258 -0.3866
 3573TIP3    H234915   4.030   4.644  18.730 -0.1188  1.8058  0.6371
 3574TIP3   OH234916   3.638   3.603  17.086 -0.3103  0.2427  0.1981
 3574TIP3    H134917   3.568   3.668  17.082 -0.7264 -0.1965  0.2873
 3574TIP3    H234918   3.638   3.562  16.999  0.6517  1.0771 -0.2168
 3575TIP3   OH234919   2.218   1.172  17.990 -0.4050 -0.3270 -0.4453
 3575TIP3    H134920   2.273   1.147  17.916  1.2304 -1.3693  1.0553
 3575TIP3    H234921   2.192   1.089  18.030 -0.0637  0.2278  0.9849
 3576TIP3   OH234922   3.680   4.395  18.127  0.6401 -0.1438 -1.1504
 3576TIP3    H134923   3.753   4.399  18.065  0.1649  2.3447 -1.6493
 3576TIP3    H234924   3.607   4.360  18.076  0.9657 -0.7712 -1.1956
 3577TIP3   OH234925   6.284   4.095  18.616  0.4088 -0.3064  0.1407
 3577TIP3    H134926   6.225   4.160  18.577  0.2739  0.0635  0.9336
 3577TIP3    H234927   6.240   4.011  18.602  1.9719 -0.7087 -3.6116
 3578TIP3   OH234928   0.878   4.966  17.405  0.3381  0.2113 -0.3021
 3578TIP3    H134929   0.878   5.040  17.466  1.2874 -0.4998  0.5993
 3578TIP3    H234930   0.803   4.983  17.347 -0.3992  1.0779  0.8527
 3579TIP3   OH234931   6.826   1.056  19.073  0.7303  0.1753 -0.7769
 3579TIP3    H134932   6.813   1.117  19.146  0.7627 -1.0700  0.3001
 3579TIP3    H234933   6.743   1.056  19.026  0.3734  0.2241 -0.1502
 3580TIP3   OH234934   5.867   3.985  18.496  0.5347  0.0618 -0.1400
 3580TIP3    H134935   5.934   3.921  18.472  0.4406  0.0865 -0.4852
 3580TIP3    H234936   5.808   3.937  18.554  0.2449 -0.2899 -0.7095
 3581TIP3   OH234937   3.405   1.882  19.122  0.1151 -0.0684 -0.0616
 3581TIP3    H134938   3.464   1.852  19.192  1.5523  1.5951 -0.4740
 3581TIP3    H234939   3.443   1.966  19.094 -1.5160  0.2233 -1.5389
 3582TIP3   OH234940   2.860   2.068  19.253 -0.0439  0.1992  0.0458
 3582TIP3    H134941   2.940   2.105  19.290  0.0664  0.3063 -0.2976
 3582TIP3    H234942   2.789   2.116  19.297  0.1027  2.5180 -2.0688
 3583TIP3   OH234943   6.573   3.710  18.894 -0.0129 -0.3077 -0.0329
 3583TIP3    H134944   6.557   3.663  18.813 -2.2179  0.7192 -0.2749
 3583TIP3    H234945   6.485   3.724  18.932  0.7815  1.0386  1.4591
 3584TIP3   OH234946   0.424   2.916  18.849  0.0279 -0.3942 -0.5259
 3584TIP3    H134947   0.391   3.005  18.833  0.1088  0.0523  1.4191
 3584TIP3    H234948   0.361   2.859  18.807 -2.0085  0.5143  1.0947
 3585TIP3   OH234949   3.014   0.696  18.848 -0.2377  0.0813  0.3433
 3585TIP3    H134950   3.103   0.732  18.840 -0.0265 -0.5225 -0.0786
 3585TIP3    H234951   2.975   0.709  18.762 -1.3687  2.3678  1.1062
 3586TIP3   OH234952   3.002   5.553  18.619 -0.5872  0.6727 -0.4621
 3586TIP3    H134953   2.908   5.568  18.610 -0.4191  1.4443 -0.9519
 3586TIP3    H234954   3.009   5.464  18.656 -1.5516  1.2313  1.1705
 3587TIP3   OH234955   4.309   0.428  16.969 -0.3873 -0.6839 -0.0247
 3587TIP3    H134956   4.389   0.394  17.008  0.6149  1.4778 -0.0415
 3587TIP3    H234957   4.330   0.519  16.947 -2.9131  0.0008  0.1223
 3588TIP3   OH234958   3.388   5.125  16.904  0.3467 -0.2550 -0.4899
 3588TIP3    H134959   3.309   5.159  16.861  1.0010  1.5513 -0.3522
 3588TIP3    H234960   3.457   5.187  16.881  1.3099 -0.7061  0.9900
 3589TIP3   OH234961   2.192   2.924  18.252 -0.5520  0.4237 -0.2926
 3589TIP3    H134962   2.139   2.879  18.186  0.8423 -1.9779  0.0985
 3589TIP3    H234963   2.131   2.939  18.325 -1.4650  0.7718 -1.0976
 3590TIP3   OH234964   5.828   5.387  18.404  0.2330 -0.1455  0.1901
 3590TIP3    H134965   5.825   5.482  18.390  2.0933  0.0507  0.7579
 3590TIP3    H234966   5.766   5.351  18.341  0.3811  1.3751 -0.8855
 3591TIP3   OH234967   6.159   2.297  18.720 -0.6403 -0.0690  0.0415
 3591TIP3    H134968   6.134   2.349  18.644  0.0239 -1.3362 -1.0921
 3591TIP3    H234969   6.104   2.330  18.791 -1.7034  0.7612 -1.1216
 3592TIP3   OH234970   2.259   5.515  17.000  0.2165 -0.2163  0.0525
 3592TIP3    H134971   2.165   5.499  17.010 -0.1614  2.5849  1.9969
 3592TIP3    H234972   2.269   5.541  16.908 -0.9980  0.0154 -0.0322
 3593TIP3   OH234973   0.558   6.758  18.436  0.1981  0.4494  0.1633
 3593TIP3    H134974   0.535   6.671  18.402 -0.5048  1.0811 -1.0917
 3593TIP3    H234975   0.590   6.742  18.524  0.3045 -1.1085 -0.1223
 3594TIP3   OH234976   0.895   3.111  16.444  0.6104 -0.5957 -0.3735
 3594TIP3    H134977   0.834   3.179  16.417  0.3582 -1.4531 -2.1146
 3594TIP3    H234978   0.928   3.141  16.529 -1.5849  0.2838  0.2326
 3595TIP3   OH234979   5.160   7.313  19.331  0.3881  0.0928  0.6639
 3595TIP3    H134980   5.077   7.266  19.317  0.4469  0.5839 -1.8938
 3595TIP3    H234981   5.213   7.253  19.383 -0.3030 -1.8132 -0.7097
 3596TIP3   OH234982   6.946   6.911  17.615  0.1450 -0.5066  0.4451
 3596TIP3    H134983   6.940   6.908  17.520  0.7283 -1.4725  0.4261
 3596TIP3    H234984   6.966   6.821  17.641  1.1518 -0.0319  1.3972
 3597TIP3   OH234985   5.500   3.710  18.096 -0.5803 -0.2840 -0.2321
 3597TIP3    H134986   5.518   3.778  18.031 -0.4029 -1.1908 -1.1570
 3597TIP3    H234987   5.568   3.644  18.083 -0.6095 -0.5455  0.8066
 3598TIP3   OH234988   5.138   5.175  17.796 -0.1982 -0.9499 -0.0584
 3598TIP3    H134989   5.218   5.124  17.801  0.3242 -0.0703  0.8763
 3598TIP3    H234990   5.102   5.172  17.885  0.6396  1.4872  0.4500
 3599TIP3   OH234991   2.103   5.308  18.175 -0.3004  0.3730  0.0599
 3599TIP3    H134992   2.031   5.371  18.183  0.4768  1.3304 -0.2213
 3599TIP3    H234993   2.155   5.320  18.254 -1.6313 -1.9011  1.3400
 3600TIP3   OH234994   7.408   3.955  18.027  0.7664  0.4363  0.0847
 3600TIP3    H134995   7.389   3.925  17.938  1.6996  1.3982 -0.4716
 3600TIP3    H234996   7.503   3.969  18.028  1.1687 -1.8275  1.9897
 3601TIP3   OH234997   6.941   7.064  19.268 -0.2153 -0.2967 -0.2689
 3601TIP3    H134998   6.985   7.068  19.184 -0.5392 -0.6420 -0.4602
 3601TIP3    H234999   6.992   7.122  19.325 -0.6214  0.8177 -0.9909
 3602TIP3   OH235000   6.812   0.554  17.209  0.5792 -0.6093 -0.0782
 3602TIP3    H135001   6.831   0.631  17.262  1.7240 -0.8947 -0.0484
 3602TIP3    H235002   6.881   0.492  17.230 -0.1902 -1.5643 -0.2813
 3603TIP3   OH235003   5.058   2.102  17.441  0.1815 -0.2209  0.0300
 3603TIP3    H135004   5.050   2.052  17.522 -1.4785 -0.3269 -0.1561
 3603TIP3    H235005   5.030   2.041  17.372  1.1434  0.0032 -0.5760
 3604TIP3   OH235006   7.366   6.426  17.223 -0.0673  0.3124 -0.7049
 3604TIP3    H135007   7.344   6.496  17.161  2.1266 -1.6070 -3.9481
 3604TIP3    H235008   7.458   6.442  17.244  0.1166 -0.8994 -0.5568
 3605TIP3   OH235009   5.012   1.130  16.674  0.5779 -0.1084 -0.5061
 3605TIP3    H135010   5.003   1.054  16.617  0.9347 -0.8146  0.3602
 3605TIP3    H235011   4.941   1.120  16.738  1.9236 -0.8749  0.9034
 3606TIP3   OH235012   5.738   2.881  17.073 -0.1717  0.3770 -0.0472
 3606TIP3    H135013   5.780   2.809  17.025 -1.3728  0.2339 -0.9383
 3606TIP3    H235014   5.648   2.852  17.085 -0.2578  1.0522  1.0366
 3607TIP3   OH235015   1.549   4.016  18.517 -0.0271 -0.0989  0.5174
 3607TIP3    H135016   1.631   4.056  18.546  0.9385 -2.5743  1.4785
 3607TIP3    H235017   1.485   4.039  18.584  0.2685  0.5884  0.5630
 3608TIP3   OH235018   6.115   1.294  17.669 -0.2532 -0.2643 -0.1658
 3608TIP3    H135019   6.093   1.386  17.652 -0.0512 -0.1090  0.4033
 3608TIP3    H235020   6.188   1.276  17.610 -0.8202 -0.3070 -0.8785
 3609TIP3   OH235021   5.922   3.120  17.837  0.0549 -0.2583  0.4522
 3609TIP3    H135022   5.869   3.079  17.905  0.0038  2.3091  2.0961
 3609TIP3    H235023   5.858   3.146  17.770 -0.0166 -1.9253 -0.1716
 3610TIP3   OH235024   2.736   5.552  18.541 -0.4772 -0.4186 -0.2745
 3610TIP3    H135025   2.748   5.590  18.454  1.8775 -3.5890 -1.5135
 3610TIP3    H235026   2.676   5.479  18.527 -1.9850  0.4410  1.3065
 3611TIP3   OH235027   1.901   4.993  17.565  0.0925  0.3875  0.2358
 3611TIP3    H135028   1.823   5.049  17.560 -0.4918 -0.5176 -1.2725
 3611TIP3    H235029   1.876   4.924  17.626 -1.3800 -1.4287 -2.2382
 3612TIP3   OH235030   0.914   6.650  17.442 -0.1385  0.2415  0.2159
 3612TIP3    H135031   0.827   6.611  17.451 -0.1861  0.0803 -0.7701
 3612TIP3    H235032   0.942   6.668  17.531 -0.9720 -0.1764  0.5735
 3613TIP3   OH235033   1.247   0.876  17.058 -0.2425 -0.8316  0.0969
 3613TIP3    H135034   1.312   0.873  16.988 -0.1132  0.5168  0.1429
 3613TIP3    H235035   1.193   0.799  17.043  0.8777 -1.5480 -0.4146
 3614TIP3   OH235036   1.313   5.896  17.923  0.2788  0.2683  0.3140
 3614TIP3    H135037   1.333   5.873  18.014  1.6327 -1.8447 -0.4358
 3614TIP3    H235038   1.217   5.901  17.920  0.0841 -1.6718  1.4666
 3615TIP3   OH235039   5.055   5.204  17.536 -0.1788 -0.5117 -0.3648
 3615TIP3    H135040   5.063   5.183  17.629  1.8873 -0.7053 -0.5449
 3615TIP3    H235041   5.055   5.120  17.491  1.8674 -0.3807 -0.6921
 3616TIP3   OH235042   0.489   0.714  19.417  0.4338  0.2891 -0.0478
 3616TIP3    H135043   0.559   0.673  19.468  0.5827  0.6246  0.0213
 3616TIP3    H235044   0.514   0.807  19.413  0.2741  0.3125 -0.4910
 3617TIP3   OH235045   4.723   4.927  18.592 -0.1319 -0.4648  0.6781
 3617TIP3    H135046   4.691   4.848  18.548  0.2087 -0.0523 -0.3211
 3617TIP3    H235047   4.643   4.973  18.620 -0.4504  0.2710 -1.3004
 3618TIP3   OH235048   5.631   0.067  19.389 -0.2882 -0.2604 -0.3702
 3618TIP3    H135049   5.686   0.002  19.432 -0.3811  1.7311  3.0715
 3618TIP3    H235050   5.543   0.049  19.419 -0.5001  0.6781 -0.4101
 3619TIP3   OH235051   7.369   1.725  18.454 -0.1775 -0.0384 -0.4829
 3619TIP3    H135052   7.396   1.634  18.441 -0.2477 -0.5687  2.3947
 3619TIP3    H235053   7.422   1.775  18.392  1.5201 -1.8390 -0.5783
 3620TIP3   OH235054   4.888   6.878  18.510  0.3969  0.6010  0.1013
 3620TIP3    H135055   4.917   6.795  18.474 -1.2598  0.1872 -0.3759
 3620TIP3    H235056   4.938   6.888  18.591 -0.1276 -1.4015  0.7214
 3621TIP3   OH235057   0.739   6.067  17.897 -0.6164  0.7307  0.4902
 3621TIP3    H135058   0.707   6.005  17.963 -1.4740  0.8130  0.1731
 3621TIP3    H235059   0.719   6.026  17.813 -0.8208  1.2433  0.2774
 3622TIP3   OH235060   2.291   4.472  17.226 -0.0737 -0.4053  0.2620
 3622TIP3    H135061   2.335   4.556  17.240  0.6599 -0.7184 -0.0971
 3622TIP3    H235062   2.227   4.490  17.157  0.7083 -0.3314 -0.4742
 3623TIP3   OH235063   5.926   1.233  18.469 -0.4781  0.6054  0.3471
 3623TIP3    H135064   5.879   1.174  18.410  0.6482  0.9089 -0.9105
 3623TIP3    H235065   5.961   1.301  18.411 -0.6206  1.7630  1.5868
 3624TIP3   OH235066   6.465   4.221  19.308  0.1810 -0.0079 -0.1685
 3624TIP3    H135067   6.536   4.277  19.340  2.0544 -2.2699 -0.0823
 3624TIP3    H235068   6.475   4.223  19.212  0.4786 -0.4291 -0.1503
 3625TIP3   OH235069   2.999   7.371  18.450  0.0184  0.2414 -0.1588
 3625TIP3    H135070   3.040   7.339  18.370  0.0822  1.0171 -0.4376
 3625TIP3    H235071   2.912   7.329  18.450  0.4092 -0.5957 -0.0821
 3626TIP3   OH235072   1.913   1.352  19.124 -0.1806  0.5684  0.0340
 3626TIP3    H135073   1.965   1.275  19.146 -0.7768  0.5301  1.3565
 3626TIP3    H235074   1.889   1.339  19.032  1.5184  0.2454 -0.3979
 3627TIP3   OH235075   6.882   2.861  18.755  0.5834 -0.0270 -0.2290
 3627TIP3    H135076   6.823   2.787  18.763  1.3982 -0.8787 -1.6580
 3627TIP3    H235077   6.911   2.859  18.664  3.8971 -0.5331  0.7093
 3628TIP3   OH235078   6.503   6.389  17.888 -0.0335  0.7518 -0.0180
 3628TIP3    H135079   6.515   6.296  17.872 -1.4516 -0.0247  2.8640
 3628TIP3    H235080   6.577   6.431  17.842  1.5739 -1.8961 -0.0215
 3629TIP3   OH235081   6.603   7.088  17.510  0.9585  0.2627 -0.2366
 3629TIP3    H135082   6.542   7.014  17.515  2.7657 -1.3334 -0.6312
 3629TIP3    H235083   6.630   7.090  17.418  1.9543  0.5440  0.0564
 3630TIP3   OH235084   5.420   5.557  17.344 -0.3493  0.6908  0.5680
 3630TIP3    H135085   5.473   5.507  17.282 -0.2001  1.4741  0.0462
 3630TIP3    H235086   5.393   5.635  17.295 -1.4140  0.6449  1.0343
 3631TIP3   OH235087   0.488   3.625  17.189  0.4896 -0.1346  0.0270
 3631TIP3    H135088   0.412   3.570  17.168 -0.7519  0.9575  1.4366
 3631TIP3    H235089   0.474   3.705  17.138 -0.3408  0.8252  1.6809
 3632TIP3   OH235090   1.568   2.653  17.981  0.4677 -0.0105 -0.7567
 3632TIP3    H135091   1.528   2.736  17.954 -1.5358 -0.9133 -0.7713
 3632TIP3    H235092   1.494   2.592  17.986  2.0983 -2.2686 -2.4549
 3633TIP3   OH235093   5.296   2.817  18.441  0.6205  0.2991 -0.1513
 3633TIP3    H135094   5.389   2.840  18.440  0.1353  2.6370  0.8485
 3633TIP3    H235095   5.272   2.820  18.534 -0.4399 -0.3507 -0.3925
 3634TIP3   OH235096   6.315   5.081  19.251  0.1173 -0.4387 -0.0633
 3634TIP3    H135097   6.247   5.015  19.234  1.2983 -1.1052 -2.9580
 3634TIP3    H235098   6.395   5.041  19.216  1.1539  1.9633 -0.6356
 3635TIP3   OH235099   2.721   7.555  17.877  0.8198 -0.7794 -0.0486
 3635TIP3    H135100   2.636   7.512  17.865  0.2404  0.5885 -1.1265
 3635TIP3    H235101   2.743   7.538  17.968 -1.6964  0.6304  0.9475
 3636TIP3   OH235102   0.905   0.029  18.742  0.0873 -0.2778  0.3113
 3636TIP3    H135103   0.938  -0.053  18.706 -0.6863 -0.5260  0.1567
 3636TIP3    H235104   0.957   0.097  18.699 -0.5252 -0.5853 -0.9905
 3637TIP3   OH235105   2.715   3.004  18.099 -0.3399 -0.5824 -0.0711
 3637TIP3    H135106   2.797   3.027  18.143 -0.4141 -0.9688  0.2795
 3637TIP3    H235107   2.696   3.078  18.042 -0.3868  0.0608  0.7634
 3638TIP3   OH235108   4.595   0.014  17.617 -0.2681  1.2385  0.0485
 3638TIP3    H135109   4.684   0.024  17.584 -0.9365 -1.1505 -2.9024
 3638TIP3    H235110   4.539   0.048  17.547 -1.7105 -0.8788  0.0583
 3639TIP3   OH235111   2.164   5.999  17.894  0.7839  0.0482  0.6505
 3639TIP3    H135112   2.164   5.912  17.933  0.3109  0.6969  2.1950
 3639TIP3    H235113   2.161   5.983  17.800 -2.9511 -1.6582  0.8562
 3640TIP3   OH235114   0.419   2.664  17.303 -1.1834 -0.1168  0.5513
 3640TIP3    H135115   0.325   2.658  17.317 -1.2136 -2.4705 -0.1926
 3640TIP3    H235116   0.455   2.588  17.349  0.3602  0.7048  0.7778
 3641TIP3   OH235117   6.723   0.182  18.991  0.1858  0.3079 -0.1692
 3641TIP3    H135118   6.792   0.145  19.046  0.4035  2.7448  1.3309
 3641TIP3    H235119   6.768   0.244  18.934  0.0210 -2.3739 -3.5562
 3642TIP3   OH235120   6.955   4.066  18.585 -0.0536  0.1875  0.3008
 3642TIP3    H135121   6.950   4.023  18.499 -0.7529 -0.1805  0.5176
 3642TIP3    H235122   6.977   3.995  18.645  0.2641  0.4153  0.4573
 3643TIP3   OH235123   1.223   6.339  18.194  0.1881 -0.0595 -0.5524
 3643TIP3    H135124   1.285   6.266  18.199 -3.3474 -3.3814 -1.1698
 3643TIP3    H235125   1.191   6.350  18.283  0.2162  0.3433 -0.5870
 3644TIP3   OH235126   3.274   5.372  17.931  0.2280  0.6653 -0.4436
 3644TIP3    H135127   3.303   5.351  18.020  2.7119  1.3617 -0.9939
 3644TIP3    H235128   3.188   5.331  17.923  0.0925  0.2935  2.1435
 3645TIP3   OH235129   4.309   5.159  18.263 -0.1639  0.2845  0.3280
 3645TIP3    H135130   4.342   5.109  18.337 -0.9651 -1.8730 -0.6636
 3645TIP3    H235131   4.214   5.151  18.269 -0.2354 -1.0398 -1.5603
 3646TIP3   OH235132   0.679   4.908  17.050  0.3389 -0.3323  0.5177
 3646TIP3    H135133   0.721   4.978  17.100  1.9947 -0.7624 -0.1972
 3646TIP3    H235134   0.650   4.845  17.116  1.0056 -0.1152  1.0295
 3647TIP3   OH235135   2.926   7.159  18.648  0.2632  0.6333 -1.1142
 3647TIP3    H135136   2.969   7.109  18.717 -1.2466 -0.8684 -1.1956
 3647TIP3    H235137   2.991   7.166  18.578  1.6386  1.7577  0.2206
 3648TIP3   OH235138   7.541   0.094  16.934 -0.1781 -0.1366  0.1236
 3648TIP3    H135139   7.591   0.113  16.854 -1.4835 -0.2850 -0.7683
 3648TIP3    H235140   7.477   0.166  16.939  0.5296  0.4340  1.6202
 3649TIP3   OH235141   4.223   5.149  19.430 -0.3762 -0.1668 -0.2318
 3649TIP3    H135142   4.290   5.082  19.418 -0.8390 -1.4557  3.0927
 3649TIP3    H235143   4.257   5.203  19.502 -1.3789  1.2883 -0.8190
 3650TIP3   OH235144   3.629   1.571  19.345  0.0264  0.1465  0.0207
 3650TIP3    H135145   3.611   1.477  19.337  0.7549 -0.0493  0.5883
 3650TIP3    H235146   3.640   1.600  19.254  2.6989 -0.9261 -0.0871
 3651TIP3   OH235147   0.332   0.828  16.812 -0.2754  0.0408 -0.3531
 3651TIP3    H135148   0.414   0.877  16.824 -0.2685 -0.3358  1.2219
 3651TIP3    H235149   0.361   0.740  16.785 -0.2577  0.4992 -1.9653
 3652TIP3   OH235150   6.510   0.774  19.259 -0.0204  0.0348 -0.1644
 3652TIP3    H135151   6.461   0.849  19.294  0.7473  0.9859 -1.0654
 3652TIP3    H235152   6.598   0.784  19.294 -0.2890 -1.3685  1.0057
 3653TIP3   OH235153   3.878   3.211  18.136 -0.1626 -0.3527 -0.6617
 3653TIP3    H135154   3.859   3.189  18.045  0.9185 -0.2633 -0.9264
 3653TIP3    H235155   3.934   3.140  18.167  0.2506  0.0901 -0.3641
 3654TIP3   OH235156   6.961   0.944  18.866  0.4965  0.1320  0.2309
 3654TIP3    H135157   6.934   0.854  18.885  0.3163  0.5065  1.9131
 3654TIP3    H235158   6.913   0.997  18.930  0.8808  1.3947 -0.4952
 3655TIP3   OH235159   3.209   4.300  19.293  0.5757  0.1498 -0.4760
 3655TIP3    H135160   3.279   4.336  19.346 -0.0649  2.4693 -1.0955
 3655TIP3    H235161   3.129   4.320  19.341  0.0354  1.6517 -1.9065
 3656TIP3   OH235162   5.944   3.824  17.140 -0.6941  0.3453 -0.1362
 3656TIP3    H135163   6.039   3.828  17.156 -0.8135 -1.5595  1.5737
 3656TIP3    H235164   5.936   3.806  17.046  0.8219 -2.0469  0.0878
 3657TIP3   OH235165   0.195   3.720  18.968 -0.3924  0.2557  0.2411
 3657TIP3    H135166   0.112   3.674  18.956 -0.3795  0.4623 -0.6994
 3657TIP3    H235167   0.202   3.731  19.063 -1.4074  0.1764  0.3413
 3658TIP3   OH235168   1.763   5.060  18.819  0.0041 -0.3348 -0.5214
 3658TIP3    H135169   1.748   5.086  18.910 -0.3239  0.0637 -0.6889
 3658TIP3    H235170   1.847   5.014  18.821  0.6461  0.8206 -0.2415
 3659TIP3   OH235171   2.529   6.884  18.628 -0.0570 -0.7472 -0.1958
 3659TIP3    H135172   2.589   6.853  18.696  0.8361  1.0795 -0.0811
 3659TIP3    H235173   2.535   6.979  18.634 -1.9558 -0.5364 -1.1145
 3660TIP3   OH235174   2.428   7.119  17.661  0.2993  0.3955 -0.3806
 3660TIP3    H135175   2.488   7.090  17.593  0.0705 -0.2306 -0.3260
 3660TIP3    H235176   2.484   7.149  17.732  0.5656 -1.2114  0.1062
 3661TIP3   OH235177   4.500   1.133  17.996  0.3230  0.1420  0.3104
 3661TIP3    H135178   4.434   1.173  17.941  0.7258 -0.3618 -0.5588
 3661TIP3    H235179   4.522   1.051  17.952 -0.4066 -1.0186  1.9704
 3662TIP3   OH235180   4.134   5.155  18.815  0.1231 -0.5689 -0.0018
 3662TIP3    H135181   4.127   5.247  18.841  3.0674 -0.2214 -0.0914
 3662TIP3    H235182   4.080   5.108  18.878 -2.9618  1.2969 -1.0505
 3663TIP3   OH235183   5.179   1.659  18.719  0.2462 -0.0940  0.3540
 3663TIP3    H135184   5.195   1.566  18.733  0.7410  0.1121  1.2368
 3663TIP3    H235185   5.147   1.691  18.803  1.0693  0.7334  0.3717
 3664TIP3   OH235186   3.337   6.745  16.908  0.1078  0.0183 -0.3378
 3664TIP3    H135187   3.391   6.762  16.985 -0.8040  0.7086  0.1681
 3664TIP3    H235188   3.336   6.650  16.900  2.9144 -0.0014 -1.4785
 3665TIP3   OH235189   4.974   2.906  19.008 -0.1818 -0.2046  0.2874
 3665TIP3    H135190   4.897   2.962  18.997 -1.3302 -1.4690  1.4272
 3665TIP3    H235191   4.948   2.844  19.076  1.2753 -1.6760 -0.4422
 3666TIP3   OH235192   7.057   7.393  18.546 -0.2909 -0.1979  0.4718
 3666TIP3    H135193   7.127   7.343  18.587  1.4854  1.3403 -0.5139
 3666TIP3    H235194   7.053   7.474  18.597  0.1171  0.6091 -0.7395
 3667TIP3   OH235195   0.673   5.694  18.682  0.3917 -0.1214  0.7182
 3667TIP3    H135196   0.622   5.755  18.629 -0.7086 -0.9692  0.7655
 3667TIP3    H235197   0.763   5.726  18.676 -0.2638  2.0051  1.4391
 3668TIP3   OH235198   1.500   3.328  17.684 -0.1644 -0.1058  0.3209
 3668TIP3    H135199   1.433   3.300  17.746 -3.9806  0.4775 -3.1188
 3668TIP3    H235200   1.527   3.247  17.640 -0.6831 -0.0719 -0.0796
 3669TIP3   OH235201   7.672   0.890  18.234 -0.2339 -0.2418  0.1106
 3669TIP3    H135202   7.742   0.880  18.169  0.2967 -0.7522  0.7388
 3669TIP3    H235203   7.705   0.844  18.311 -0.3303  1.3679  1.1563
 3670TIP3   OH235204   4.562   0.061  19.527  0.4594  0.0327 -0.7351
 3670TIP3    H135205   4.561   0.052  19.431  0.2194  1.2101 -0.8546
 3670TIP3    H235206   4.501   0.132  19.545  0.0398 -0.5867  0.3513
 3671TIP3   OH235207   2.174   4.938  19.165  0.5235 -0.5589 -0.2406
 3671TIP3    H135208   2.216   4.854  19.180  1.8088 -0.6103 -3.2522
 3671TIP3    H235209   2.101   4.918  19.106  0.7903  0.3808 -0.9254
 3672TIP3   OH235210   3.659   0.142  19.005  0.4822  0.3286  0.6772
 3672TIP3    H135211   3.701   0.063  18.970  2.1732  1.3422  0.2665
 3672TIP3    H235212   3.598   0.169  18.936 -0.7635 -1.0488  1.1829
 3673TIP3   OH235213   4.350   3.251  19.243  0.1074  0.1135 -0.9168
 3673TIP3    H135214   4.311   3.334  19.215  1.8201  0.8658 -1.1869
 3673TIP3    H235215   4.281   3.186  19.228 -1.4119  1.5201 -0.3404
 3674TIP3   OH235216   2.617   2.855  18.972  0.9066  0.4104  0.3132
 3674TIP3    H135217   2.616   2.768  19.012  5.0857  0.2625  0.4855
 3674TIP3    H235218   2.597   2.915  19.044 -2.1337 -0.2679  0.1678
 3675TIP3   OH235219   3.261   3.095  18.777 -0.1812 -0.1608 -0.0679
 3675TIP3    H135220   3.195   3.164  18.772 -0.1490 -0.2023 -1.4007
 3675TIP3    H235221   3.219   3.019  18.736  0.8018 -0.0866 -1.2807
 3676TIP3   OH235222   1.884   2.748  16.913  0.2749  0.5724  0.1124
 3676TIP3    H135223   1.933   2.829  16.924 -1.8001  2.3450 -2.6507
 3676TIP3    H235224   1.794   2.770  16.935 -0.4588 -0.7663 -1.3161
 3677TIP3   OH235225   6.117   7.200  19.122  0.4569 -0.7012 -0.0081
 3677TIP3    H135226   6.197   7.171  19.167  0.8058 -0.6970 -0.6163
 3677TIP3    H235227   6.078   7.264  19.182  0.3018 -1.5372  0.8096
 3678TIP3   OH235228   6.451   1.431  17.562 -0.1859 -0.6553 -0.8512
 3678TIP3    H135229   6.495   1.514  17.576 -1.2012 -0.1869 -0.2917
 3678TIP3    H235230   6.485   1.373  17.630  0.3537 -0.6274 -1.0976
 3679TIP3   OH235231   4.779   5.066  19.490 -0.1813  0.4947  0.3880
 3679TIP3    H135232   4.856   5.115  19.516 -0.0341  1.3904 -1.5495
 3679TIP3    H235233   4.799   4.975  19.513  1.5786  0.6607 -0.3319
 3680TIP3   OH235234   2.495   3.580  18.648 -0.2228 -0.5773  0.2699
 3680TIP3    H135235   2.406   3.598  18.678 -0.1294  0.4838 -0.0429
 3680TIP3    H235236   2.550   3.592  18.725 -0.0701  1.3887 -0.0950
 3681TIP3   OH235237   5.958   2.308  17.374  0.0318 -0.0264  0.2477
 3681TIP3    H135238   5.908   2.328  17.453  1.5250  1.5121  0.8809
 3681TIP3    H235239   5.927   2.222  17.347 -2.6226  0.6676  0.7984
 3682TIP3   OH235240   3.182   3.992  17.449  0.3326  0.0627 -0.4231
 3682TIP3    H135241   3.153   4.060  17.388  3.4372  0.7788 -1.2718
 3682TIP3    H235242   3.175   3.911  17.400 -1.1766  0.0295 -0.2053
 3683TIP3   OH235243   4.181   3.661  17.330  0.1766  0.2873  0.2820
 3683TIP3    H135244   4.100   3.660  17.380  0.6437  0.8083  1.0733
 3683TIP3    H235245   4.177   3.741  17.279  0.0288  0.1301  0.0476
 3684TIP3   OH235246   2.528   3.831  18.073  0.0203 -0.0895 -0.9542
 3684TIP3    H135247   2.440   3.863  18.095  0.4751  1.6348 -1.4884
 3684TIP3    H235248   2.584   3.909  18.077  1.5181 -1.1357 -0.7309
 3685TIP3   OH235249   2.484   3.749  17.309  0.7565 -0.2705  0.1226
 3685TIP3    H135250   2.575   3.721  17.310  0.1585 -2.4365  0.9651
 3685TIP3    H235251   2.471   3.794  17.393  1.1635  0.5360 -0.2381
 3686TIP3   OH235252   2.396   6.866  17.778 -0.5447  0.6121  0.3345
 3686TIP3    H135253   2.449   6.904  17.848 -0.0780 -0.7917  0.7696
 3686TIP3    H235254   2.369   6.941  17.725 -0.3045  1.6263  1.5977
 3687TIP3   OH235255   4.814   1.177  18.829  0.7945  0.8872  0.1484
 3687TIP3    H135256   4.794   1.192  18.921 -0.3792 -3.8817  0.9236
 3687TIP3    H235257   4.731   1.153  18.789  1.3894  2.2013 -2.0978
 3688TIP3   OH235258   4.459   4.985  19.420 -0.3334 -0.1266  1.0549
 3688TIP3    H135259   4.539   5.033  19.395  0.0431 -0.9194  0.7105
 3688TIP3    H235260   4.491   4.907  19.465 -0.8640 -0.9828  0.0018
 3689TIP3   OH235261   7.050   2.018  20.387  0.3416 -0.0598  0.1444
 3689TIP3    H135262   7.116   2.043  20.452  0.8671 -0.0344 -0.3981
 3689TIP3    H235263   6.997   1.952  20.432  0.1810  0.5635  0.8963
 3690TIP3   OH235264   3.910   6.158  19.269 -0.1827  0.2505 -0.0045
 3690TIP3    H135265   3.936   6.113  19.350  1.2517  1.1722  0.0743
 3690TIP3    H235266   3.909   6.251  19.293  0.0325  0.5112 -0.9921
 3691TIP3   OH235267   4.918   3.229  17.154  0.4194  0.2477  0.3566
 3691TIP3    H135268   4.826   3.213  17.136  0.6757 -1.1077  0.1454
 3691TIP3    H235269   4.923   3.322  17.177 -1.2500 -0.0285  2.0206
 3692TIP3   OH235270   6.566   1.745  18.428 -0.2532 -0.4030 -0.1390
 3692TIP3    H135271   6.532   1.742  18.338 -1.2039 -0.7684  0.2183
 3692TIP3    H235272   6.508   1.688  18.478 -0.7813  1.0721  1.0433
 3693TIP3   OH235273   5.595   3.224  19.049  0.2210 -0.1111 -0.2713
 3693TIP3    H135274   5.567   3.150  18.995 -0.5540  1.0463 -1.5238
 3693TIP3    H235275   5.618   3.185  19.133  0.6638 -1.8793 -1.1567
 3694TIP3   OH235276   2.327   4.853  18.147  0.3248  0.5706 -0.3241
 3694TIP3    H135277   2.395   4.901  18.100  1.1503  1.2179  1.4274
 3694TIP3    H235278   2.249   4.908  18.141  0.0606  0.0750 -1.8926
 3695TIP3   OH235279   0.233   6.211  16.730  0.4720 -0.1800  0.4052
 3695TIP3    H135280   0.296   6.171  16.670  0.7112 -0.5688  0.9172
 3695TIP3    H235281   0.274   6.205  16.816 -1.0051 -2.0515  1.0327
 3696TIP3   OH235282   0.441   6.849  19.074  0.2213 -0.6171 -0.1466
 3696TIP3    H135283   0.516   6.888  19.030  0.1058 -0.1717  0.0408
 3696TIP3    H235284   0.369   6.911  19.059 -0.6496 -1.9792 -2.0434
 3697TIP3   OH235285   5.170   1.863  17.633 -0.3261 -0.5023 -0.2032
 3697TIP3    H135286   5.107   1.823  17.573 -0.9668  0.2917 -0.0731
 3697TIP3    H235287   5.150   1.823  17.718 -2.8002  1.9615  0.5131
 3698TIP3   OH235288   7.009   2.915  19.027  0.6335  0.2967  0.6332
 3698TIP3    H135289   6.987   2.873  18.943  1.1134  0.5429  0.3779
 3698TIP3    H235290   7.090   2.962  19.009  0.3780  0.9121  1.0567
 3699TIP3   OH235291   1.132   2.867  18.991  0.7378  0.1008 -0.4322
 3699TIP3    H135292   1.181   2.826  19.062  0.2383  0.2880  0.0259
 3699TIP3    H235293   1.183   2.847  18.912  0.4704 -1.4712 -0.2354
 3700TIP3   OH235294   5.042   2.903  18.360 -0.4396 -0.3363  0.0947
 3700TIP3    H135295   4.989   2.826  18.381 -1.8388  0.8531  1.1965
 3700TIP3    H235296   5.130   2.881  18.391 -1.0654 -1.0909  1.4402
 3701TIP3   OH235297   4.405   3.474  18.905  0.3125  0.2185 -0.4741
 3701TIP3    H135298   4.408   3.541  18.973  0.3038  0.9162 -1.1349
 3701TIP3    H235299   4.372   3.396  18.948  2.1007  0.0902  0.7648
 3702TIP3   OH235300   3.428   1.358  17.458  0.1828 -0.0717  0.2489
 3702TIP3    H135301   3.417   1.403  17.542 -1.4363 -0.9342  0.5348
 3702TIP3    H235302   3.341   1.321  17.439  0.4760  0.1803 -1.8495
 3703TIP3   OH235303   4.851   2.050  17.697  0.2202  0.2214  0.2973
 3703TIP3    H135304   4.894   1.977  17.742  0.3654  0.1050 -0.0249
 3703TIP3    H235305   4.771   2.011  17.660  0.5493  0.1018 -0.3027
 3704TIP3   OH235306   2.984   6.919  18.315  0.4226  0.1443  0.4313
 3704TIP3    H135307   3.064   6.971  18.305 -0.2203  1.1652  0.4761
 3704TIP3    H235308   3.013   6.839  18.359  1.2988  0.8538  1.1952
 3705TIP3   OH235309   3.667   1.764  16.512 -0.3435 -0.0135 -0.0486
 3705TIP3    H135310   3.705   1.685  16.550 -0.7171  0.1996  0.7922
 3705TIP3    H235311   3.576   1.763  16.543 -0.5646  0.3356 -0.6830
 3706TIP3   OH235312   7.261   3.450  18.056  0.4452 -0.3972 -0.2732
 3706TIP3    H135313   7.193   3.398  18.099 -1.1001  1.6389 -0.0782
 3706TIP3    H235314   7.263   3.532  18.107  2.1776  0.0755 -1.0511
 3707TIP3   OH235315   3.628   5.828  17.123 -0.0651  0.2118 -0.1706
 3707TIP3    H135316   3.573   5.907  17.115  1.0590  1.1108  0.6397
 3707TIP3    H235317   3.717   5.862  17.126  0.5164 -1.1897 -0.8676
 3708TIP3   OH235318   1.291   5.625  18.138 -0.0640  0.4242  0.0933
 3708TIP3    H135319   1.293   5.531  18.121  2.2306  0.2807  0.7568
 3708TIP3    H235320   1.378   5.655  18.112  0.0386  1.9403  2.0000
 3709TIP3   OH235321   4.582   7.260  17.267  0.7194 -0.7900 -1.2109
 3709TIP3    H135322   4.498   7.272  17.221 -1.1174 -2.8936  1.2608
 3709TIP3    H235323   4.624   7.188  17.220 -0.4997 -2.0089 -0.5163
 3710TIP3   OH235324   3.609   2.034  17.335 -0.7194 -0.0261 -0.4689
 3710TIP3    H135325   3.593   2.059  17.244 -1.5512  0.3106 -0.2421
 3710TIP3    H235326   3.561   1.952  17.346  0.4734 -0.7893 -0.6882
 3711TIP3   OH235327   6.534   3.559  17.982 -0.0938 -0.1660 -0.6737
 3711TIP3    H135328   6.446   3.593  17.965  0.5294  1.1375 -1.4623
 3711TIP3    H235329   6.544   3.487  17.920 -0.1094  0.5881 -1.5719
 3712TIP3   OH235330   7.553   4.922  18.331 -0.0497  0.4278  0.5060
 3712TIP3    H135331   7.515   4.998  18.375  0.8824  0.7141  0.8634
 3712TIP3    H235332   7.567   4.858  18.402 -1.3843 -0.3233  0.1104
 3713TIP3   OH235333   4.159   2.353  18.372 -0.0978 -0.3605  0.3609
 3713TIP3    H135334   4.213   2.333  18.296 -0.9115 -2.5153  0.2906
 3713TIP3    H235335   4.213   2.411  18.426  1.8354 -1.5382 -0.2303
 3714TIP3   OH235336   2.415   0.233  18.876  0.4480 -0.2109 -0.4082
 3714TIP3    H135337   2.407   0.140  18.897 -0.1757  0.1480  1.1315
 3714TIP3    H235338   2.411   0.237  18.781 -0.3308 -1.6903 -0.4704
 3715TIP3   OH235339   4.753   2.805  17.745 -0.3909  0.2717  0.1104
 3715TIP3    H135340   4.799   2.884  17.775 -0.3599  0.5586 -0.6682
 3715TIP3    H235341   4.695   2.836  17.675  0.8775 -0.6300 -1.4133
 3716TIP3   OH235342   0.151   1.673  17.097 -0.5218 -0.1695  0.5108
 3716TIP3    H135343   0.149   1.692  17.003  0.9723  1.5623  0.7693
 3716TIP3    H235344   0.068   1.629  17.114 -1.5750  0.9665 -1.3157
 3717TIP3   OH235345   0.528   2.524  17.792 -0.4370  0.3655  0.5833
 3717TIP3    H135346   0.590   2.534  17.720 -0.4431 -0.8553  0.3989
 3717TIP3    H235347   0.582   2.499  17.867 -0.7257 -1.1359  0.3209
 3718TIP3   OH235348   4.572   0.392  17.027  0.4345 -0.2392  0.3818
 3718TIP3    H135349   4.646   0.425  17.079  0.4153  1.5553 -0.6295
 3718TIP3    H235350   4.600   0.305  16.998  1.5740 -0.1481  1.1412
 3719TIP3   OH235351   6.031   2.448  18.963 -0.0675  0.0095 -0.1341
 3719TIP3    H135352   5.959   2.429  19.025 -0.0529  0.0795 -0.0949
 3719TIP3    H235353   5.994   2.515  18.905  0.4226  1.0868  0.7445
 3720TIP3   OH235354   0.058   3.526  17.095  0.2786 -0.3519  0.0615
 3720TIP3    H135355   0.126   3.459  17.103 -0.7896 -1.5352 -0.4542
 3720TIP3    H235356   0.090   3.585  17.027  1.2281 -0.3223  0.5164
 3721TIP3   OH235357   6.249   1.869  19.378 -0.0128 -0.3157 -0.0892
 3721TIP3    H135358   6.195   1.859  19.300 -0.1275  1.0478 -0.1964
 3721TIP3    H235359   6.221   1.798  19.436 -1.4529 -0.0258 -0.4100
 3722TIP3   OH235360   7.321   1.407  17.439 -0.2169 -0.5826  0.3003
 3722TIP3    H135361   7.370   1.452  17.507 -1.5963  0.1874  0.8345
 3722TIP3    H235362   7.296   1.476  17.378  1.1727 -1.2964 -1.1290
 3723TIP3   OH235363   1.174   0.566  18.907  0.0379 -0.0475  0.1479
 3723TIP3    H135364   1.145   0.603  18.991  0.7201  1.2972 -0.1854
 3723TIP3    H235365   1.103   0.585  18.846  0.1531  0.2282  0.1006
 3724TIP3   OH235366   4.259   1.496  18.552 -0.2324  0.1300 -0.2043
 3724TIP3    H135367   4.209   1.502  18.470 -1.4779  2.1310  0.6142
 3724TIP3    H235368   4.295   1.584  18.563 -1.3728  0.3784  2.1287
 3725TIP3   OH235369   7.263   6.951  17.436  0.3349  0.0070  0.0902
 3725TIP3    H135370   7.316   6.996  17.502 -0.4987  1.0165  0.1057
 3725TIP3    H235371   7.291   6.860  17.441  0.9437  0.2276  1.1930
 3726TIP3   OH235372   1.393   2.147  17.793  0.3571  0.1806 -0.0436
 3726TIP3    H135373   1.460   2.084  17.768  0.2650 -1.0319  2.4178
 3726TIP3    H235374   1.323   2.136  17.728  1.1169 -0.9662 -0.6837
 3727TIP3   OH235375   3.643   5.605  19.330 -0.3018  0.2673 -0.5024
 3727TIP3    H135376   3.636   5.700  19.343 -3.2369  0.2206 -1.1624
 3727TIP3    H235377   3.722   5.580  19.378 -1.0221  2.6216  2.1291
 3728TIP3   OH235378   3.401   3.684  19.539  0.0435 -0.2466 -0.1594
 3728TIP3    H135379   3.316   3.727  19.533  0.4783  0.4855 -1.2642
 3728TIP3    H235380   3.412   3.642  19.453  0.7991 -0.3244 -0.0260
 3729TIP3   OH235381   6.634   2.665  17.525  0.1059 -0.2185 -0.2495
 3729TIP3    H135382   6.607   2.717  17.601 -0.1021 -0.3747 -0.2148
 3729TIP3    H235383   6.581   2.585  17.531 -0.0870 -0.1233 -0.6935
 3730TIP3   OH235384   0.706   1.358  17.977 -0.0448 -0.4806 -0.5969
 3730TIP3    H135385   0.681   1.431  17.921 -0.0965  0.1924  0.2844
 3730TIP3    H235386   0.668   1.378  18.063 -1.1662 -2.1798 -0.6396
 3731TIP3   OH235387   4.478   0.780  18.533 -0.9885  0.2989 -0.3006
 3731TIP3    H135388   4.544   0.762  18.466 -0.5481  1.3759 -0.1745
 3731TIP3    H235389   4.399   0.803  18.484 -1.1545 -0.5255 -0.4475
 3732TIP3   OH235390   1.072   3.033  17.046  0.3469  0.2949 -0.2417
 3732TIP3    H135391   1.142   3.052  17.108  0.9367  1.0143 -1.1007
 3732TIP3    H235392   1.108   3.057  16.961 -0.1765 -1.3963 -0.9759
 3733TIP3   OH235393   7.023   5.216  17.354 -0.4390 -0.1731  0.5980
 3733TIP3    H135394   7.037   5.121  17.363 -0.7177 -0.2780 -0.0340
 3733TIP3    H235395   6.949   5.235  17.412 -0.0672 -0.2498  1.1102
 3734TIP3   OH235396   0.592   4.802  19.648 -0.6828  0.1486  0.6252
 3734TIP3    H135397   0.674   4.839  19.683 -0.1272 -0.8154  0.3700
 3734TIP3    H235398   0.597   4.709  19.670 -1.8022  0.1150  0.7554
 3735TIP3   OH235399   0.119   3.041  17.818  0.1856 -0.7186 -0.1764
 3735TIP3    H135400   0.154   2.954  17.837  0.2846 -0.4111  1.1765
 3735TIP3    H235401   0.025   3.026  17.805  0.3337 -1.1338 -0.8541
 3736TIP3   OH235402   2.390   4.474  17.833  0.0623 -0.2005  0.0298
 3736TIP3    H135403   2.310   4.422  17.841 -1.1240  1.5067 -0.1622
 3736TIP3    H235404   2.445   4.445  17.906 -0.8459 -1.2153  0.3266
 3737TIP3   OH235405   1.224   2.442  18.903 -0.0158 -0.7292  0.2210
 3737TIP3    H135406   1.165   2.373  18.933 -1.2053 -0.2739 -0.9742
 3737TIP3    H235407   1.304   2.430  18.955 -0.6791 -2.1681  0.9571
 3738TIP3   OH235408   2.460   6.554  17.027  0.1833  0.0832  0.3183
 3738TIP3    H135409   2.462   6.551  16.931  0.0353  1.2024  0.2714
 3738TIP3    H235410   2.545   6.590  17.052 -0.1561  0.7420  0.5519
 3739TIP3   OH235411   6.109   3.844  18.434  0.7356 -0.1501  0.2350
 3739TIP3    H135412   6.138   3.773  18.377  1.6094  0.4019 -0.0412
 3739TIP3    H235413   6.122   3.924  18.382 -0.4216  0.2062  0.4634
 3740TIP3   OH235414   4.245   3.500  18.695 -0.1074 -0.5178  0.3505
 3740TIP3    H135415   4.238   3.592  18.669 -1.5755 -0.0478  2.1562
 3740TIP3    H235416   4.317   3.498  18.758  0.1416 -0.6749  0.0626
 3741TIP3   OH235417   4.689   6.468  18.336  0.1515 -0.0826  0.7851
 3741TIP3    H135418   4.752   6.454  18.406  1.5303  2.0454  0.0515
 3741TIP3    H235419   4.671   6.562  18.337 -1.0727 -0.2556 -0.6533
 3742TIP3   OH235420   2.292   6.210  18.179  0.0832 -0.2230  0.2442
 3742TIP3    H135421   2.334   6.188  18.096 -1.9260 -0.3468 -0.7942
 3742TIP3    H235422   2.303   6.131  18.233  1.9544  0.0850  0.3777
 3743TIP3   OH235423   1.317   0.928  18.119 -0.1573 -0.2881 -0.0480
 3743TIP3    H135424   1.325   0.881  18.036  1.6298  0.1615 -0.1792
 3743TIP3    H235425   1.368   0.875  18.181  2.8910  1.8910 -0.4434
 3744TIP3   OH235426   1.093   2.779  17.371 -0.0227  0.0392  0.4467
 3744TIP3    H135427   1.004   2.766  17.337  0.5225 -2.2436 -0.2694
 3744TIP3    H235428   1.087   2.860  17.422 -2.2333  0.5386 -0.4847
 3745TIP3   OH235429   1.857   0.851  17.461 -0.1818 -0.1934 -0.1691
 3745TIP3    H135430   1.897   0.938  17.461 -0.5150 -0.0357  0.0610
 3745TIP3    H235431   1.930   0.791  17.470  0.2117 -0.0334 -1.9719
 3746TIP3   OH235432   6.729   6.217  18.497  0.2895  0.6681  0.2256
 3746TIP3    H135433   6.808   6.258  18.462  1.0514 -0.8677  0.0855
 3746TIP3    H235434   6.755   6.128  18.517 -1.2616  0.3087  0.7652
 3747TIP3   OH235435   1.949   0.890  17.196  0.0584 -0.2788 -0.0027
 3747TIP3    H135436   1.885   0.863  17.262 -0.8321 -1.2428 -1.1979
 3747TIP3    H235437   1.915   0.852  17.114  0.2510  2.2216 -1.3144
 3748TIP3   OH235438   6.328   1.200  17.495  0.3875  0.3825  0.2906
 3748TIP3    H135439   6.362   1.165  17.412  0.8515 -2.1426  1.4562
 3748TIP3    H235440   6.385   1.274  17.515  3.5002 -1.9256  0.7124
 3749TIP3   OH235441   6.429   4.375  18.383  0.4459  0.3736 -0.1399
 3749TIP3    H135442   6.480   4.351  18.306  0.2358  1.6068 -0.7019
 3749TIP3    H235443   6.494   4.399  18.448  0.6431 -1.2284  0.2951
 3750TIP3   OH235444   7.559   0.159  18.743  0.1981 -0.0655 -0.5178
 3750TIP3    H135445   7.641   0.187  18.783 -0.9488  1.1513  1.1176
 3750TIP3    H235446   7.530   0.234  18.692 -1.0280  0.4368  0.8422
 3751TIP3   OH235447   7.541   2.731  16.933 -0.0202 -0.3156 -0.6098
 3751TIP3    H135448   7.596   2.731  16.854  1.3035 -1.3254  0.2803
 3751TIP3    H235449   7.461   2.686  16.905  0.5390 -0.9074 -1.3072
 3752TIP3   OH235450   3.056   4.579  17.491  0.1128  0.3036 -0.2935
 3752TIP3    H135451   3.110   4.501  17.487  0.2051  0.2900  0.9027
 3752TIP3    H235452   3.029   4.585  17.582 -0.1037  1.5273 -0.4205
 3753TIP3   OH235453   2.718   4.932  18.450  0.5344  0.0219 -0.2660
 3753TIP3    H135454   2.769   4.891  18.381 -1.1005 -0.4255 -1.2672
 3753TIP3    H235455   2.698   4.862  18.511 -0.4085 -0.2355 -0.8428
 3754TIP3   OH235456   4.976   1.964  17.221 -0.7331 -0.2369 -0.3915
 3754TIP3    H135457   5.020   2.029  17.167  2.3165  0.9926  3.1041
 3754TIP3    H235458   5.005   1.880  17.185  1.5106  0.5230 -0.5376
 3755TIP3   OH235459   3.899   6.176  18.736  0.0555 -0.4011  0.2423
 3755TIP3    H135460   3.881   6.270  18.739  1.1593 -0.0386 -2.0416
 3755TIP3    H235461   3.972   6.163  18.796  0.0989  0.2532  0.3339
 3756TIP3   OH235462   0.819   6.039  19.077  0.7077  0.5361 -0.2978
 3756TIP3    H135463   0.775   6.007  18.998 -0.1891  2.0022 -0.4293
 3756TIP3    H235464   0.907   6.062  19.048  0.5717  0.5131 -0.7340
 3757TIP3   OH235465   4.886   2.577  17.018  0.0493  0.4578 -0.2973
 3757TIP3    H135466   4.974   2.609  16.997 -0.2213  1.4791  0.0682
 3757TIP3    H235467   4.899   2.515  17.090  0.4260  0.8871  0.0047
 3758TIP3   OH235468   5.478   0.594  19.039  0.1559 -0.5825  0.7599
 3758TIP3    H135469   5.461   0.501  19.053  0.4081 -0.4422  2.0825
 3758TIP3    H235470   5.480   0.632  19.127  1.0087  0.5067  0.2875
 3759TIP3   OH235471   4.138   7.658  18.634 -0.1961  0.0597  0.8409
 3759TIP3    H135472   4.186   7.736  18.605  0.8116 -0.1370  1.9237
 3759TIP3    H235473   4.131   7.668  18.729  2.0854 -2.2849  1.3671
 3760TIP3   OH235474   0.483   0.227  19.266  0.2688 -0.4227  0.0235
 3760TIP3    H135475   0.536   0.306  19.268 -0.5060  0.0892  1.2301
 3760TIP3    H235476   0.522   0.174  19.197  0.8420  0.9726 -0.7633
 3761TIP3   OH235477   3.819   3.169  17.322 -0.1360  0.5631 -0.4973
 3761TIP3    H135478   3.829   3.244  17.263 -0.0129  0.2061 -0.9425
 3761TIP3    H235479   3.880   3.186  17.393  2.1886 -0.5514 -2.1124
 3762TIP3   OH235480   0.144   6.981  16.995  0.2273 -0.3057 -0.2624
 3762TIP3    H135481   0.199   6.904  16.988 -0.2550 -0.5226 -2.3993
 3762TIP3    H235482   0.057   6.951  16.968  0.0098  0.9212 -1.0533
 3763TIP3   OH235483   1.501   0.815  17.711  0.4602  0.2732  1.0156
 3763TIP3    H135484   1.445   0.890  17.731  1.1475  1.0303  0.1863
 3763TIP3    H235485   1.478   0.750  17.777  1.0785  1.8305  2.8733
 3764TIP3   OH235486   0.377   1.804  17.168  0.0852  0.5382  0.5273
 3764TIP3    H135487   0.295   1.769  17.132 -0.0991  0.1941  1.2616
 3764TIP3    H235488   0.349   1.880  17.220  0.6591  3.0605 -2.5987
 3765TIP3   OH235489   5.100   3.226  17.862 -0.0205  0.2065 -0.1871
 3765TIP3    H135490   5.021   3.185  17.826  0.9871 -2.0947  0.0677
 3765TIP3    H235491   5.143   3.266  17.787 -0.0693 -0.8851 -0.8119
 3766TIP3   OH235492   0.841   6.297  17.415  0.1832 -0.7200 -0.3129
 3766TIP3    H135493   0.835   6.271  17.507  0.4085 -0.7059 -0.2911
 3766TIP3    H235494   0.779   6.369  17.406  0.1028 -0.7733 -0.1898
 3767TIP3   OH235495   1.969   2.053  18.370  0.4226 -0.1486 -0.3142
 3767TIP3    H135496   1.877   2.076  18.356  1.3218  2.3416 -3.6433
 3767TIP3    H235497   1.995   2.102  18.448 -1.1359 -1.3755  1.0430
 3768TIP3   OH235498   0.423   0.939  19.098 -0.1151  0.5102  0.4742
 3768TIP3    H135499   0.476   0.999  19.151 -1.2727  0.5052  1.6995
 3768TIP3    H235500   0.337   0.941  19.139 -0.6689 -0.6122 -0.5695
 3769TIP3   OH235501   4.145   2.219  18.940  0.3747 -0.0473  0.0548
 3769TIP3    H135502   4.224   2.167  18.925  0.2045 -0.8099  1.6195
 3769TIP3    H235503   4.166   2.275  19.015  0.0340  1.0885 -0.6687
 3770TIP3   OH235504   4.365   3.351  17.470 -0.2914 -0.3973  0.0030
 3770TIP3    H135505   4.358   3.437  17.430 -0.5465 -0.4103  0.0201
 3770TIP3    H235506   4.457   3.326  17.457 -0.4663 -0.5924 -0.9612
 3771TIP3   OH235507   2.751   7.000  18.147 -0.3050  0.3449  0.2634
 3771TIP3    H135508   2.833   6.970  18.185  0.1485  0.6179 -0.4748
 3771TIP3    H235509   2.769   7.090  18.119 -1.1282  0.7206  0.9100
 3772TIP3   OH235510   2.561   2.715  17.581 -0.1365  0.1987 -0.1435
 3772TIP3    H135511   2.655   2.726  17.565 -0.3541 -0.2460 -1.9689
 3772TIP3    H235512   2.529   2.805  17.596  0.4581  0.4239 -0.1898
 3773TIP3   OH235513   4.633   1.889  18.540 -0.3493 -0.2271 -0.5304
 3773TIP3    H135514   4.690   1.949  18.493 -1.7924  1.1980 -0.5464
 3773TIP3    H235515   4.578   1.850  18.472 -0.1796 -0.7381 -0.3851
 3774TIP3   OH235516   2.022   2.623  19.639  0.2051 -0.0636 -0.2351
 3774TIP3    H135517   1.977   2.548  19.600 -0.1890  0.3328 -0.5509
 3774TIP3    H235518   1.954   2.689  19.649  0.8521  0.8168 -1.4137
 3775TIP3   OH235519   2.748   2.548  19.320 -0.5263 -0.0077 -0.3231
 3775TIP3    H135520   2.758   2.602  19.398  1.2563 -0.9581  0.1702
 3775TIP3    H235521   2.833   2.554  19.276 -0.6564 -1.5069 -0.8285
 3776TIP3   OH235522   0.091   4.412  16.896 -0.4389 -0.0238 -0.1645
 3776TIP3    H135523   0.008   4.458  16.882 -0.5522 -0.4920 -1.1139
 3776TIP3    H235524   0.121   4.389  16.808 -0.0999 -1.2596  0.2531
 3777TIP3   OH235525   5.012   1.519  17.931  0.4554  0.2746 -0.5117
 3777TIP3    H135526   5.104   1.502  17.912  0.1881 -0.6148 -1.0818
 3777TIP3    H235527   5.010   1.543  18.023  1.1331 -0.8317 -0.1917
 3778TIP3   OH235528   5.079   2.494  17.848 -0.2481 -0.4206 -0.1743
 3778TIP3    H135529   5.106   2.584  17.866  0.0583 -0.3845 -0.7977
 3778TIP3    H235530   4.984   2.499  17.836 -0.3305 -0.2986  0.4923
 3779TIP3   OH235531   5.571   2.816  18.526 -0.1726  0.1599 -0.3595
 3779TIP3    H135532   5.509   2.866  18.580  0.4459  1.1486 -0.5447
 3779TIP3    H235533   5.587   2.736  18.576 -0.9251  0.2874  0.1009
 3780TIP3   OH235534   4.982   6.778  19.048 -0.0243 -1.0803  0.4538
 3780TIP3    H135535   5.039   6.734  18.985 -1.0261 -0.1901 -1.1434
 3780TIP3    H235536   4.894   6.749  19.025 -0.3228 -2.1946  2.6812
 3781TIP3   OH235537   7.350   4.400  18.942 -0.4528 -0.1810  0.2966
 3781TIP3    H135538   7.434   4.392  18.897 -0.2866  1.9210  0.1322
 3781TIP3    H235539   7.301   4.463  18.890 -1.7654 -0.6118  0.9622
 3782TIP3   OH235540   2.537   5.720  19.028  0.7984 -0.1697 -0.0258
 3782TIP3    H135541   2.617   5.667  19.023  0.9729  0.0828  0.0938
 3782TIP3    H235542   2.528   5.757  18.940  0.6476 -0.4374 -0.1234
 3783TIP3   OH235543   4.652   3.959  17.316 -0.9524 -0.5793  0.3993
 3783TIP3    H135544   4.698   3.883  17.352 -1.3461 -0.9190  0.1915
 3783TIP3    H235545   4.653   3.946  17.221 -0.6763 -0.1237  0.3380
 3784TIP3   OH235546   6.312   6.118  17.839 -0.2557 -0.1989  0.3901
 3784TIP3    H135547   6.343   6.119  17.929  2.0483  0.3555 -0.3379
 3784TIP3    H235548   6.311   6.026  17.815 -3.3216 -0.6189  1.6597
 3785TIP3   OH235549   0.585   7.460  19.178  0.5308  0.3635 -0.6083
 3785TIP3    H135550   0.537   7.536  19.145  0.7699  0.3889 -0.8995
 3785TIP3    H235551   0.517   7.405  19.217  0.4372  1.0531  0.2461
 3786TIP3   OH235552   6.253   1.403  18.721 -0.2478  0.7752  0.2735
 3786TIP3    H135553   6.171   1.440  18.689 -0.7832  0.7189  1.5266
 3786TIP3    H235554   6.226   1.342  18.791  0.8052  0.1876  0.1873
 3787TIP3   OH235555   2.437   6.937  19.400 -0.0918 -0.5803  0.5320
 3787TIP3    H135556   2.512   6.971  19.448 -0.0779 -1.9901  1.6009
 3787TIP3    H235557   2.468   6.855  19.362  0.1071  0.8367 -2.6066
 3788TIP3   OH235558   5.071   7.548  19.184  0.3857  0.2426 -0.5510
 3788TIP3    H135559   5.065   7.514  19.095 -0.8377 -1.1987  0.0333
 3788TIP3    H235560   5.103   7.474  19.236  1.0977  1.0632  0.2135
 3789TIP3   OH235561   0.916   0.795  16.898 -0.3809 -0.0869  0.5587
 3789TIP3    H135562   0.990   0.766  16.951  1.9512  3.6864 -0.1756
 3789TIP3    H235563   0.847   0.815  16.961 -0.2289 -2.0819  1.4265
 3790TIP3   OH235564   2.839   4.116  16.526 -0.0251  0.3150  0.1119
 3790TIP3    H135565   2.748   4.147  16.524  0.2714  1.2044  0.2810
 3790TIP3    H235566   2.891   4.194  16.543  0.7633 -0.2258  0.2277
 3791TIP3   OH235567   5.997   7.438  18.177  0.2792 -0.5364 -0.1479
 3791TIP3    H135568   5.956   7.351  18.175 -1.6019  0.2926 -2.5522
 3791TIP3    H235569   5.934   7.494  18.222  0.1021  0.1465 -1.2076
 3792TIP3   OH235570   1.634   2.448  17.647  0.1575 -0.0244 -0.9509
 3792TIP3    H135571   1.698   2.381  17.671 -1.0944 -1.1261 -0.5358
 3792TIP3    H235572   1.625   2.502  17.726  0.8981  0.4113 -1.1628
 3793TIP3   OH235573   7.675   3.576  18.934  0.2071  0.1436 -0.2620
 3793TIP3    H135574   7.650   3.484  18.922  3.3775 -0.7254 -1.3239
 3793TIP3    H235575   7.594   3.625  18.920 -0.6960 -2.1288 -5.9480
 3794TIP3   OH235576   0.610   2.797  17.121 -0.1502 -0.0292 -0.8959
 3794TIP3    H135577   0.535   2.741  17.140 -0.7314  0.0285 -2.8057
 3794TIP3    H235578   0.574   2.886  17.122  0.0397  0.0521 -1.1666
 3795TIP3   OH235579   6.087   0.178  17.998 -0.2589  0.5707 -0.1904
 3795TIP3    H135580   6.074   0.257  18.050  3.0574  3.0211 -2.6347
 3795TIP3    H235581   6.117   0.112  18.061  1.7166  2.8090  1.3927
 3796TIP3   OH235582   0.843   4.193  18.746 -0.1742 -0.6358  0.1742
 3796TIP3    H135583   0.864   4.126  18.811 -0.2523 -0.0271  0.8313
 3796TIP3    H235584   0.751   4.214  18.762  0.7191  2.2110  2.4170
 3797TIP3   OH235585   6.455   7.112  18.604 -0.1170 -0.4970 -0.1508
 3797TIP3    H135586   6.526   7.138  18.545 -0.6841  0.5605 -0.3951
 3797TIP3    H235587   6.455   7.179  18.672 -1.9474  0.5164 -1.0711
 3798TIP3   OH235588   5.728   3.210  17.656  0.2514  0.0151 -0.5835
 3798TIP3    H135589   5.659   3.163  17.610 -1.8605  1.3655  1.0142
 3798TIP3    H235590   5.757   3.277  17.594  0.0254 -0.4733 -1.2219
 3799TIP3   OH235591   0.930   1.915  18.093 -0.2483 -0.3731 -0.2163
 3799TIP3    H135592   0.897   1.849  18.032  1.3071 -1.0194 -0.3897
 3799TIP3    H235593   0.941   1.994  18.039 -1.3890 -0.1494 -0.1655
 3800TIP3   OH235594   2.956   5.947  17.304  0.6866 -0.0771  0.5871
 3800TIP3    H135595   2.865   5.921  17.290 -0.3285  3.5315 -0.7976
 3800TIP3    H235596   3.003   5.913  17.229 -0.2052  0.5712 -0.2877
 3801TIP3   OH235597   1.078   3.865  19.111 -0.0696  0.1069 -0.0029
 3801TIP3    H135598   0.993   3.823  19.101  0.1785  0.1598 -3.2421
 3801TIP3    H235599   1.058   3.955  19.136 -1.2502  0.9575 -3.4860
 3802TIP3   OH235600   1.890   2.630  19.110 -0.2358  0.2373  0.1849
 3802TIP3    H135601   1.983   2.612  19.123 -0.3203  0.3251  0.9860
 3802TIP3    H235602   1.878   2.627  19.015  0.4837 -0.2704  0.0985
 3803TIP3   OH235603   1.227   4.045  16.758 -0.5123 -0.3359  0.2345
 3803TIP3    H135604   1.154   4.087  16.713 -0.3884 -0.4281 -0.0583
 3803TIP3    H235605   1.274   3.998  16.688 -0.6515 -0.9570  0.5578
 3804TIP3   OH235606   1.155   3.085  16.797  0.0373  0.1394 -0.3078
 3804TIP3    H135607   1.084   3.128  16.751  0.8011  0.2350 -1.4343
 3804TIP3    H235608   1.228   3.085  16.735  0.8435 -0.4767  0.6012
 3805TIP3   OH235609   5.194   5.694  18.769 -0.1187  0.5066  0.2719
 3805TIP3    H135610   5.201   5.622  18.705 -0.8375 -0.1230  0.8883
 3805TIP3    H235611   5.119   5.671  18.823  0.0947  1.3597  0.9502
 3806TIP3   OH235612   3.742   6.035  18.939  0.2321 -0.6301 -0.0454
 3806TIP3    H135613   3.786   6.102  18.887  1.0759 -0.6675  0.6047
 3806TIP3    H235614   3.668   6.080  18.979 -0.6519 -0.6870 -1.5394
 3807TIP3   OH235615   1.480   1.736  18.603  0.0045 -0.1493  0.5377
 3807TIP3    H135616   1.566   1.774  18.585 -0.0025 -0.2887  0.1992
 3807TIP3    H235617   1.445   1.787  18.676  0.4571 -0.2210  0.8032
 3808TIP3   OH235618   3.124   1.660  18.384 -0.1378  0.3903  0.2467
 3808TIP3    H135619   3.192   1.703  18.331  0.4941 -0.0802  0.6641
 3808TIP3    H235620   3.157   1.665  18.474  0.0744 -1.1782  0.2806
 3809TIP3   OH235621   5.515   1.787  17.988  0.0114  0.4114 -0.3166
 3809TIP3    H135622   5.492   1.856  18.049 -1.2694  1.2622 -1.6748
 3809TIP3    H235623   5.580   1.734  18.033 -0.5386  1.2763  1.5601
 3810TIP3   OH235624   7.286   1.121  18.153  0.3966  0.0855  0.5989
 3810TIP3    H135625   7.335   1.039  18.151 -0.1143 -0.2212  0.4221
 3810TIP3    H235626   7.278   1.146  18.061 -0.6610 -0.4104  0.5388
 3811TIP3   OH235627   0.918   4.823  19.523  0.0838 -0.3289 -0.3014
 3811TIP3    H135628   0.995   4.848  19.574 -1.4262 -0.0490  1.9963
 3811TIP3    H235629   0.899   4.900  19.470  1.0680 -0.2027 -0.4958
 3812TIP3   OH235630   4.312   5.612  17.306 -0.3217 -0.5486  0.5941
 3812TIP3    H135631   4.315   5.519  17.282 -1.3218 -0.4187 -0.1033
 3812TIP3    H235632   4.374   5.654  17.246 -0.9141 -0.5832 -0.0582
 3813TIP3   OH235633   5.801   5.763  18.167 -0.2608 -0.1986  0.0069
 3813TIP3    H135634   5.758   5.842  18.132  0.0189  0.0855  0.2969
 3813TIP3    H235635   5.863   5.737  18.099  1.2403  1.1207  0.7899
 3814TIP3   OH235636   0.165   5.248  17.735  0.7358  0.2892 -0.3112
 3814TIP3    H135637   0.188   5.157  17.749  0.6747  0.2212 -0.6267
 3814TIP3    H235638   0.184   5.292  17.818  3.0590  0.4567 -0.8700
 3815TIP3   OH235639   5.683   1.272  17.643 -0.7328 -0.4324 -0.5891
 3815TIP3    H135640   5.712   1.357  17.608 -0.3369  0.4208  1.6426
 3815TIP3    H235641   5.605   1.294  17.695 -0.2196 -1.3094  0.5813
 3816TIP3   OH235642   2.089   5.683  16.523  0.2961 -0.2805 -0.1948
 3816TIP3    H135643   2.116   5.759  16.575 -0.1543 -0.9589  1.0826
 3816TIP3    H235644   2.121   5.701  16.435  2.2321  0.3379  0.5820
 3817TIP3   OH235645   7.164   7.609  18.160  0.0279  0.1860  0.1505
 3817TIP3    H135646   7.224   7.570  18.224 -0.5916  0.0531  0.6605
 3817TIP3    H235647   7.077   7.597  18.199 -0.3607  0.0558 -0.7462
 3818TIP3   OH235648   1.953   4.772  19.019 -0.2482  0.3131 -0.1573
 3818TIP3    H135649   1.876   4.800  19.069 -1.1312  1.1904 -1.9338
 3818TIP3    H235650   1.920   4.703  18.961  0.3304  0.5831 -0.8202
 3819TIP3   OH235651   7.551   6.276  18.552  0.2640 -0.3044  0.4941
 3819TIP3    H135652   7.534   6.321  18.634  0.3861  0.9477 -0.1505
 3819TIP3    H235653   7.591   6.193  18.578  1.7934  0.7441  1.6341
 3820TIP3   OH235654   3.550   2.192  17.646 -0.0001  0.7002 -0.0528
 3820TIP3    H135655   3.548   2.184  17.742 -0.2046 -0.3781 -0.1298
 3820TIP3    H235656   3.499   2.118  17.615 -1.1163  1.8271 -0.9902
 3821TIP3   OH235657   3.046   6.564  18.918 -0.1810  0.8282  0.5617
 3821TIP3    H135658   3.064   6.525  19.004 -0.7103  3.0728  1.7914
 3821TIP3    H235659   3.007   6.493  18.867  0.2372 -0.6087  2.1356
 3822TIP3   OH235660   2.784   3.680  19.231  0.0817  0.2169 -0.5463
 3822TIP3    H135661   2.864   3.628  19.234  0.2451  0.5285  1.4852
 3822TIP3    H235662   2.749   3.663  19.143  0.9248 -2.0840 -0.5220
 3823TIP3   OH235663   2.250   4.576  16.424  0.4145  0.0874  0.3259
 3823TIP3    H135664   2.238   4.645  16.489  0.9454 -0.2381  0.7761
 3823TIP3    H235665   2.169   4.577  16.372 -0.2642 -0.0486  1.3630
 3824TIP3   OH235666   2.826   4.072  19.134  0.0230  0.1145 -0.1473
 3824TIP3    H135667   2.890   4.002  19.116  0.0479 -0.0832  0.6999
 3824TIP3    H235668   2.741   4.030  19.121  0.0079 -0.3931  1.4174
 3825TIP3   OH235669   5.084   1.260  19.232  0.4914 -0.1348  0.0317
 3825TIP3    H135670   5.102   1.317  19.158 -0.4284 -0.2094 -0.2557
 3825TIP3    H235671   5.039   1.316  19.296  0.4749 -0.2927  0.1603
 3826TIP3   OH235672   5.886   4.397  17.535  0.0349  0.4901 -0.0357
 3826TIP3    H135673   5.905   4.310  17.571  0.6346  0.2459 -0.9156
 3826TIP3    H235674   5.900   4.457  17.609  0.0077 -0.1184  0.4699
 3827TIP3   OH235675   5.854   2.060  17.382 -0.4322 -0.2536  0.4743
 3827TIP3    H135676   5.872   2.006  17.459 -0.4599  0.8566  1.2840
 3827TIP3    H235677   5.843   1.997  17.310 -2.1608 -1.4485  1.7050
 3828TIP3   OH235678   4.673   1.517  17.621  0.4336  0.0746  0.4776
 3828TIP3    H135679   4.752   1.524  17.674  0.7750 -0.0670 -0.0121
 3828TIP3    H235680   4.661   1.605  17.583  0.1674  0.1867  0.8103
 3829TIP3   OH235681   4.667   5.881  19.253  0.5952 -0.0547 -0.6186
 3829TIP3    H135682   4.695   5.962  19.210  0.7888  0.0656 -0.2707
 3829TIP3    H235683   4.717   5.878  19.334 -0.5004  0.2316  0.0918
 3830TIP3   OH235684   5.605   4.460  19.743  0.1321  0.1047 -0.0281
 3830TIP3    H135685   5.674   4.416  19.693  0.7593  0.3075  0.6389
 3830TIP3    H235686   5.652   4.517  19.803 -0.6486  2.9603 -1.9301
 3831TIP3   OH235687   2.095   5.860  17.065 -0.0785  0.2273 -0.5752
 3831TIP3    H135688   2.011   5.820  17.087  0.7139 -0.9616  0.4008
 3831TIP3    H235689   2.084   5.952  17.088 -0.3879 -0.3345  1.8807
 3832TIP3   OH235690   0.226   5.355  17.997  0.2390  0.0233  0.2841
 3832TIP3    H135691   0.303   5.321  18.042 -1.4196 -2.3533  1.5182
 3832TIP3    H235692   0.224   5.448  18.021  0.4821 -0.7014  3.7763
 3833TIP3   OH235693   1.761   0.370  17.688  0.3745  0.3302 -0.7238
 3833TIP3    H135694   1.699   0.399  17.755 -0.5089 -0.7362 -1.0654
 3833TIP3    H235695   1.788   0.282  17.716  1.8691  0.8167 -0.5033
 3834TIP3   OH235696   4.159   1.057  19.021 -0.2512 -0.6883  0.2795
 3834TIP3    H135697   4.088   1.114  19.048 -0.2992 -0.3571 -0.5070
 3834TIP3    H235698   4.238   1.110  19.032 -0.3254 -0.3393 -0.7538
 3835TIP3   OH235699   7.213   1.151  19.053  0.1678  0.2252  0.0760
 3835TIP3    H135700   7.198   1.118  19.142 -1.3094 -1.0453 -0.6024
 3835TIP3    H235701   7.182   1.242  19.057 -0.9295 -0.1536  0.5944
 3836TIP3   OH235702   0.814   1.167  17.743 -0.3984  0.0045  0.1076
 3836TIP3    H135703   0.752   1.108  17.700 -1.7919  0.8251  0.8890
 3836TIP3    H235704   0.758   1.228  17.792  1.0361  1.0044  0.5616
 3837TIP3   OH235705   4.574   2.648  18.215  0.1257 -0.1926  0.1894
 3837TIP3    H135706   4.479   2.653  18.202  0.1097  0.9427  0.6796
 3837TIP3    H235707   4.589   2.560  18.250 -0.8585 -0.0494  1.0080
 3838TIP3   OH235708   2.948   4.904  17.673  0.3865  0.0574  0.0767
 3838TIP3    H135709   2.873   4.963  17.673 -0.3443 -0.8242  1.1147
 3838TIP3    H235710   2.934   4.848  17.750  1.5843 -0.7888 -0.2954
 3839TIP3   OH235711   5.485   5.481  19.418  0.2291  0.0015  0.4846
 3839TIP3    H135712   5.498   5.527  19.336  1.5457 -0.3738  0.4621
 3839TIP3    H235713   5.568   5.491  19.465  1.2154 -3.5597 -0.1497
 3840TIP3   OH235714   5.276   4.607  18.518  0.4157 -0.4148  0.3257
 3840TIP3    H135715   5.370   4.627  18.515  0.9118 -2.5611 -1.2041
 3840TIP3    H235716   5.251   4.622  18.609  1.9632  1.2847  0.5269
 3841TIP3   OH235717   4.166   4.898  18.711  0.0051  0.6438  0.3464
 3841TIP3    H135718   4.213   4.843  18.774  1.0450  1.7003  0.5371
 3841TIP3    H235719   4.137   4.973  18.762 -0.2025  0.9275 -0.1850
 3842TIP3   OH235720   0.438   1.337  18.439 -0.3485  0.1944  0.2241
 3842TIP3    H135721   0.505   1.399  18.468 -0.1743 -0.4667  1.2810
 3842TIP3    H235722   0.388   1.386  18.374  1.9334  0.2742 -1.5871
 3843TIP3   OH235723   4.057   6.444  17.885 -0.6061 -0.6344  0.1518
 3843TIP3    H135724   4.104   6.445  17.968  1.4074  1.0653 -0.9356
 3843TIP3    H235725   4.006   6.525  17.885 -1.9953 -1.4674  0.4228
 3844TIP3   OH235726   3.568   1.947  18.390 -0.3853  0.0093  0.2998
 3844TIP3    H135727   3.615   1.904  18.318 -0.3939 -0.4842  0.5862
 3844TIP3    H235728   3.576   1.887  18.463 -2.5675 -0.7008  0.0061
 3845TIP3   OH235729   4.298   5.674  19.148 -0.1132  0.7208 -0.2838
 3845TIP3    H135730   4.202   5.669  19.150 -0.0719  0.0563  0.7071
 3845TIP3    H235731   4.318   5.761  19.181 -0.3892  1.1582 -1.2428
 3846TIP3   OH235732   5.336   2.803  19.168 -0.5101  0.3466  0.4529
 3846TIP3    H135733   5.333   2.735  19.235  0.2963  0.3245  0.4695
 3846TIP3    H235734   5.263   2.861  19.190 -0.2489  0.3492  1.3586
 3847TIP3   OH235735   6.970   5.556  17.216  0.2078 -0.1270  0.5815
 3847TIP3    H135736   6.999   5.560  17.307  1.1024  0.0071  0.2991
 3847TIP3    H235737   6.923   5.473  17.208  1.0334 -0.6339  0.9085
 3848TIP3   OH235738   4.876   0.607  19.028  0.2238  0.5671  0.0561
 3848TIP3    H135739   4.968   0.619  19.051  0.2888  1.1776 -0.4616
 3848TIP3    H235740   4.835   0.574  19.108  0.6254  1.6502  0.7344
 3849TIP3   OH235741   4.226   1.400  16.915  0.0357 -0.0495 -0.2018
 3849TIP3    H135742   4.244   1.490  16.886 -1.0956 -0.5141 -2.5383
 3849TIP3    H235743   4.132   1.396  16.927  0.0273 -1.0065 -0.4673
 3850TIP3   OH235744   2.147   2.882  18.966 -0.4023  0.0070  0.4201
 3850TIP3    H135745   2.209   2.862  19.037 -2.7885 -1.6195  2.2157
 3850TIP3    H235746   2.110   2.967  18.989  0.1365  0.3248  0.1182
 3851TIP3   OH235747   6.261   6.692  18.755 -0.4164  0.2945  0.3782
 3851TIP3    H135748   6.253   6.786  18.771  0.3527  0.4107  0.1139
 3851TIP3    H235749   6.300   6.658  18.836 -0.6894  0.2021  0.4722
 3852TIP3   OH235750   1.875   3.979  17.225 -0.1486  0.3133 -0.4012
 3852TIP3    H135751   1.925   3.899  17.241  0.7488  1.0505  0.7014
 3852TIP3    H235752   1.939   4.049  17.236 -0.8696  1.1908 -1.5364
 3853TIP3   OH235753   1.234   5.311  18.805 -0.0367 -0.0632  0.1172
 3853TIP3    H135754   1.154   5.264  18.827 -0.1064  0.3481  0.7885
 3853TIP3    H235755   1.300   5.243  18.796 -0.2345 -0.3325  0.6211
 3854TIP3   OH235756   5.482   4.604  18.915  0.6692  0.2169 -0.4684
 3854TIP3    H135757   5.400   4.598  18.964 -0.0340 -2.5988 -1.7952
 3854TIP3    H235758   5.518   4.689  18.940 -1.0436  0.1989  2.6413
 3855TIP3   OH235759   4.175   3.531  18.206  0.3218 -0.2828  0.2109
 3855TIP3    H135760   4.147   3.530  18.298  0.2144  1.5236  0.2333
 3855TIP3    H235761   4.265   3.499  18.209  0.3338 -0.2084  0.9488
 3856TIP3   OH235762   5.465   2.225  18.019  0.0454  0.4986  0.0139
 3856TIP3    H135763   5.479   2.286  18.092  0.8188 -0.2693  0.5242
 3856TIP3    H235764   5.371   2.229  18.002  0.1938  2.5570 -0.6018
 3857TIP3   OH235765   7.309   3.636  17.311 -0.5004  0.0973  0.2633
 3857TIP3    H135766   7.259   3.678  17.241  1.6350  1.0511 -0.7627
 3857TIP3    H235767   7.328   3.549  17.278 -0.3654  0.1908  0.0940
 3858TIP3   OH235768   7.063   3.067  17.633  0.2301  0.2836 -0.1235
 3858TIP3    H135769   7.134   3.112  17.587 -0.0099  0.4122 -0.3672
 3858TIP3    H235770   7.070   3.097  17.723 -0.1082  1.0261 -0.3425
 3859TIP3   OH235771   1.575   7.464  18.017 -0.0629  0.2278 -0.1779
 3859TIP3    H135772   1.639   7.394  18.014  0.4576  0.7182 -0.6989
 3859TIP3    H235773   1.580   7.498  18.106 -1.1038 -1.0937  0.4252
 3860TIP3   OH235774   2.482   4.783  16.431  0.2833  0.0169  0.0949
 3860TIP3    H135775   2.465   4.690  16.445 -0.1616  0.1195  0.2663
 3860TIP3    H235776   2.430   4.827  16.499  0.0033  0.4155 -0.3740
 3861TIP3   OH235777   7.156   7.553  17.720 -0.0626 -0.1260 -0.5218
 3861TIP3    H135778   7.227   7.491  17.738  1.8224  2.3057  1.0828
 3861TIP3    H235779   7.198   7.622  17.668 -1.0394  1.7286  1.0644
 3862TIP3   OH235780   6.943   0.616  18.846 -0.1634  0.3815  0.2061
 3862TIP3    H135781   6.907   0.672  18.915  0.3884 -0.6004  1.3028
 3862TIP3    H235782   6.900   0.532  18.858  0.5593 -0.0400 -0.1157
 3863TIP3   OH235783   1.792   7.485  18.258  0.4048  0.3175 -0.4209
 3863TIP3    H135784   1.742   7.510  18.336  0.5679 -0.1225 -0.1719
 3863TIP3    H235785   1.883   7.500  18.282  0.4970 -0.3977 -0.3079
 3864TIP3   OH235786   7.623   4.033  17.169  0.6253  0.1644 -0.0125
 3864TIP3    H135787   7.713   4.003  17.158  0.5693 -0.0633  0.1320
 3864TIP3    H235788   7.577   3.958  17.207  0.4922  0.4457  0.3988
 3865TIP3   OH235789   6.781   2.389  17.967 -0.2076  0.0150  0.3998
 3865TIP3    H135790   6.709   2.449  17.948  0.0465  0.5276  1.0170
 3865TIP3    H235791   6.758   2.309  17.920  0.1954  1.0622 -1.7195
 3866TIP3   OH235792   6.663   1.074  17.576 -0.2934  0.1565 -0.4729
 3866TIP3    H135793   6.606   0.997  17.581 -0.3013  0.1244 -0.9726
 3866TIP3    H235794   6.668   1.093  17.482 -2.9008  2.7035 -0.2613
 3867TIP3   OH235795   7.532   0.683  17.133 -0.2493  0.6498 -0.3995
 3867TIP3    H135796   7.565   0.606  17.085  0.6678  0.5588  0.3529
 3867TIP3    H235797   7.580   0.682  17.216 -1.4652  1.0854  0.3243
 3868TIP3   OH235798   6.682   0.967  18.598  0.3000  0.0996 -0.1160
 3868TIP3    H135799   6.627   1.010  18.533  2.5267  1.0537 -1.4845
 3868TIP3    H235800   6.742   1.036  18.629  1.1372 -1.0111  0.8622
 3869TIP3   OH235801   7.573   6.997  16.642  0.1506 -0.8705 -0.3867
 3869TIP3    H135802   7.631   7.073  16.640  0.2251 -0.9040  0.1859
 3869TIP3    H235803   7.620   6.929  16.593  0.7914 -1.0277  0.4227
 3870TIP3   OH235804   2.050   2.551  17.880  0.5232  0.0741 -0.2432
 3870TIP3    H135805   2.114   2.618  17.906  1.7547 -0.2716 -2.1333
 3870TIP3    H235806   1.996   2.595  17.814  1.2509 -0.7141 -1.3921
 3871TIP3   OH235807   3.119   5.515  18.357 -0.4164 -0.2892 -0.3314
 3871TIP3    H135808   3.068   5.532  18.437 -0.3996  0.6143 -0.4985
 3871TIP3    H235809   3.210   5.524  18.385 -0.2583 -2.8307  0.1804
 3872TIP3   OH235810   3.375   4.658  19.237  0.5966 -0.1830  0.2548
 3872TIP3    H135811   3.464   4.694  19.242  0.9441 -1.0747  0.7233
 3872TIP3    H235812   3.372   4.614  19.152  0.2526  0.7064 -0.2114
 3873TIP3   OH235813   3.057   7.120  19.191 -0.4129  0.0158 -0.3872
 3873TIP3    H135814   3.104   7.090  19.112 -1.0465 -0.4178 -0.6067
 3873TIP3    H235815   3.055   7.042  19.247 -1.2501 -0.0950 -0.5639
 3874TIP3   OH235816   1.037   5.767  17.905  0.3606 -0.3145 -0.3703
 3874TIP3    H135817   1.012   5.842  17.960  0.6904  0.9627 -1.8813
 3874TIP3    H235818   0.955   5.735  17.869  0.3415  0.2147 -0.8082
 3875TIP3   OH235819   0.427   5.606  18.117 -0.3966  0.4681  0.0132
 3875TIP3    H135820   0.332   5.607  18.104 -0.4499 -1.9235 -0.3196
 3875TIP3    H235821   0.442   5.534  18.179  1.2621  0.2147 -0.6224
 3876TIP3   OH235822   2.631   5.570  18.794  0.2250 -0.1818 -0.1724
 3876TIP3    H135823   2.699   5.608  18.848 -0.0611 -0.3325  0.3004
 3876TIP3    H235824   2.658   5.589  18.704  0.1430  1.0270  0.0448
 3877TIP3   OH235825   3.478   4.021  19.183 -0.3227  0.2534 -0.4103
 3877TIP3    H135826   3.546   3.973  19.229  0.3112  1.0015 -0.5366
 3877TIP3    H235827   3.428   4.065  19.252 -0.9739 -0.6544 -0.2895
 3878TIP3   OH235828   7.425   6.656  18.920 -0.0460  0.1187 -0.2081
 3878TIP3    H135829   7.343   6.640  18.966  0.4985  0.2754  0.8438
 3878TIP3    H235830   7.490   6.666  18.989  0.4600  2.3646 -0.9328
 3879TIP3   OH235831   7.262   0.047  19.182  0.5787 -0.3260  0.0500
 3879TIP3    H135832   7.167   0.053  19.189  0.6046 -0.1207  0.2354
 3879TIP3    H235833   7.282   0.090  19.099  0.3952 -1.5552 -0.6661
 3880TIP3   OH235834   1.970   2.597  17.603  0.0520 -0.1907  0.1417
 3880TIP3    H135835   1.985   2.682  17.562 -2.2536  0.1862 -0.0568
 3880TIP3    H235836   1.931   2.543  17.534  1.1880 -1.3300  0.3529
 3881TIP3   OH235837   2.312   6.780  17.124 -0.3128  0.4880  0.1358
 3881TIP3    H135838   2.358   6.710  17.078 -1.0184  0.3863 -0.4360
 3881TIP3    H235839   2.381   6.834  17.162  0.2736  0.2144 -0.5264
 3882TIP3   OH235840   4.029   2.623  17.445  0.1261  0.1807  0.0195
 3882TIP3    H135841   3.958   2.686  17.435 -1.1036 -1.1263  0.1400
 3882TIP3    H235842   4.042   2.586  17.358 -0.0725 -0.3243  0.1981
 3883TIP3   OH235843   0.160   4.340  18.627  0.3773 -0.3234 -0.0033
 3883TIP3    H135844   0.140   4.300  18.542  0.7215  0.3888 -0.4316
 3883TIP3    H235845   0.122   4.280  18.691 -1.5713  0.0834 -0.7145
 3884TIP3   OH235846   4.755   3.300  18.419  0.1048 -0.6104 -0.4816
 3884TIP3    H135847   4.735   3.213  18.453  0.5092 -0.7898 -0.6957
 3884TIP3    H235848   4.850   3.308  18.428  0.1216 -0.3643 -0.8651
 3885TIP3   OH235849   0.798   7.104  18.216  0.0170 -0.0973  0.2240
 3885TIP3    H135850   0.820   7.192  18.185  1.0143  0.3849  2.1355
 3885TIP3    H235851   0.746   7.119  18.295  1.2304 -1.1849  1.2737
 3886TIP3   OH235852   6.617   4.058  18.115 -0.2534  0.0255 -0.5399
 3886TIP3    H135853   6.689   4.072  18.053 -0.6110 -0.2417 -1.0129
 3886TIP3    H235854   6.612   3.963  18.125 -0.7997  0.0272 -0.8047
 3887TIP3   OH235855   7.436   1.249  19.377 -0.6350 -0.4732 -0.6311
 3887TIP3    H135856   7.492   1.275  19.451 -0.6147  0.0162 -0.8107
 3887TIP3    H235857   7.467   1.162  19.353 -0.2725 -0.4102 -0.4122
 3888TIP3   OH235858   0.542   3.062  17.214  0.0832 -0.1128 -0.3074
 3888TIP3    H135859   0.572   3.152  17.202  0.6353 -0.4782 -1.9760
 3888TIP3    H235860   0.532   3.053  17.309  1.7970  1.1477  0.0633
 3889TIP3   OH235861   0.430   4.744  18.712  0.4452  0.1785  0.3471
 3889TIP3    H135862   0.401   4.654  18.728 -2.0893  0.9761  0.7017
 3889TIP3    H235863   0.480   4.739  18.631 -1.2905 -1.3013 -0.7087
 3890TIP3   OH235864   2.359   1.445  18.105  0.7122  0.3934  0.4264
 3890TIP3    H135865   2.305   1.378  18.064  0.1769  0.3595  1.1776
 3890TIP3    H235866   2.332   1.446  18.196  1.4254  0.9307  0.6437
 3891TIP3   OH235867   6.613   3.541  17.092 -0.3659 -0.1023  1.0436
 3891TIP3    H135868   6.540   3.480  17.084 -1.0777  0.7995  0.4424
 3891TIP3    H235869   6.572   3.627  17.102  0.6025  0.4876  0.1519
 3892TIP3   OH235870   5.002   5.617  18.970  0.1556 -0.1024 -0.4994
 3892TIP3    H135871   4.908   5.626  18.988 -0.5349 -2.3363 -2.5345
 3892TIP3    H235872   5.042   5.606  19.056 -1.5533  0.0236  0.3589
 3893TIP3   OH235873   5.717   6.085  18.466 -0.0592 -0.2245  0.3290
 3893TIP3    H135874   5.753   6.173  18.461  1.2166 -0.7102  0.5992
 3893TIP3    H235875   5.793   6.027  18.459 -0.7738 -1.2911  1.0570
 3894TIP3   OH235876   1.627   5.947  16.952  0.3484 -0.0737  0.7663
 3894TIP3    H135877   1.551   5.957  16.894 -0.9743 -0.1054  2.4132
 3894TIP3    H235878   1.590   5.914  17.034  2.3898 -1.8528  1.0582
 3895TIP3   OH235879   4.067   4.362  19.020 -0.2547 -0.3173 -0.3659
 3895TIP3    H135880   4.014   4.292  19.057  1.6139 -1.7168 -0.1892
 3895TIP3    H235881   4.117   4.320  18.950  1.6270  0.5755  0.3675
 3896TIP3   OH235882   5.437   3.379  17.872  0.1050  0.1645  0.4101
 3896TIP3    H135883   5.364   3.416  17.922 -0.5276  0.8949 -0.9839
 3896TIP3    H235884   5.414   3.396  17.780  0.9752 -1.5747 -0.1743
 3897TIP3   OH235885   6.515   3.581  18.655  0.1511 -0.0643  0.0804
 3897TIP3    H135886   6.584   3.515  18.661  1.0849  0.8516 -0.2251
 3897TIP3    H235887   6.436   3.531  18.634  1.0162 -0.9944 -1.1331
 3898TIP3   OH235888   0.481   3.564  18.144 -0.3120 -0.1446  0.6067
 3898TIP3    H135889   0.535   3.642  18.136  0.5600 -0.8614 -1.0508
 3898TIP3    H235890   0.531   3.505  18.201 -0.5891  0.1711  1.1881
 3899TIP3   OH235891   0.153   6.065  17.349 -0.0263 -0.3059  0.2188
 3899TIP3    H135892   0.210   5.997  17.313  0.9502  0.4052  0.3643
 3899TIP3    H235893   0.074   6.061  17.296  0.5196 -0.7210 -0.5925
 3900TIP3   OH235894   2.377   6.675  17.991 -0.6427 -0.1607 -0.4934
 3900TIP3    H135895   2.390   6.735  17.919 -0.6242  1.8986  1.1244
 3900TIP3    H235896   2.309   6.615  17.961 -0.3394  0.3615 -2.3258
 3901TIP3   OH235897   6.916   7.377  17.250 -0.0446  0.3421  0.2772
 3901TIP3    H135898   6.916   7.317  17.325  0.1056 -0.3870 -0.3052
 3901TIP3    H235899   7.005   7.411  17.246  0.3078 -0.6462 -0.3877
 3902TIP3   OH235900   6.427   2.424  17.602 -0.2933  0.0129 -0.0292
 3902TIP3    H135901   6.450   2.332  17.614  0.9246  0.4313  1.0340
 3902TIP3    H235902   6.419   2.459  17.691 -1.0494  0.8716 -0.4157
 3903TIP3   OH235903   6.040   1.617  18.046 -0.5226  0.7335 -0.2784
 3903TIP3    H135904   6.113   1.659  18.000 -0.8034 -0.7261 -2.1979
 3903TIP3    H235905   6.083   1.558  18.108 -0.0473  0.3514 -0.9505
 3904TIP3   OH235906   5.344   4.894  17.661 -0.7554 -0.1848 -0.0710
 3904TIP3    H135907   5.397   4.814  17.655 -2.3557 -1.2502 -1.0752
 3904TIP3    H235908   5.363   4.930  17.747  1.1193 -0.8390 -0.1812
 3905TIP3   OH235909   2.168   0.375  19.102  0.2847  0.3749  0.1873
 3905TIP3    H135910   2.230   0.443  19.127  0.0884  0.4885  0.3637
 3905TIP3    H235911   2.214   0.293  19.122  0.5425  0.4512 -0.0797
 3906TIP3   OH235912   2.787   5.162  16.866  0.5815 -0.5322 -0.2114
 3906TIP3    H135913   2.777   5.093  16.931 -0.8178 -1.2418 -1.1259
 3906TIP3    H235914   2.837   5.122  16.795 -0.2276 -0.6390 -0.7415
 3907TIP3   OH235915   5.756   5.163  19.701  0.4460  0.5625 -0.7916
 3907TIP3    H135916   5.800   5.175  19.785 -2.5420  1.6934  0.7444
 3907TIP3    H235917   5.732   5.071  19.699  1.0325  0.4035 -0.7028
 3908TIP3   OH235918   0.189   7.175  19.207 -0.0011  0.1347 -0.0098
 3908TIP3    H135919   0.215   7.114  19.276  3.6810 -0.8740 -1.9612
 3908TIP3    H235920   0.193   7.261  19.248 -0.3012 -0.5759  1.5833
 3909TIP3   OH235921   3.048   4.870  17.044  0.3401  0.8393  0.3239
 3909TIP3    H135922   3.141   4.874  17.065  0.4707  0.8325 -0.2391
 3909TIP3    H235923   3.010   4.819  17.115  1.1249 -1.1668 -0.6201
 3910TIP3   OH235924   1.960   5.904  18.547 -0.1072  0.2936  0.1815
 3910TIP3    H135925   1.947   5.956  18.626 -0.6267  0.0935  0.2342
 3910TIP3    H235926   1.963   5.969  18.476  1.6472  0.5839  0.4743
 3911TIP3   OH235927   6.240   6.963  18.725 -0.1709  0.4178 -0.2898
 3911TIP3    H135928   6.285   7.032  18.676  1.9210  0.3055  1.3084
 3911TIP3    H235929   6.171   7.009  18.772 -0.5609  0.9409 -1.3286
 3912TIP3   OH235930   4.337   4.914  17.879 -0.2710  0.0635 -0.7165
 3912TIP3    H135931   4.286   4.968  17.940  1.3593 -0.3518  1.1060
 3912TIP3    H235932   4.399   4.975  17.840  0.2865 -0.1121 -0.1171
 3913TIP3   OH235933   7.584   4.900  17.782 -0.1762  0.0230  0.2964
 3913TIP3    H135934   7.592   4.805  17.794  0.5622  0.2530  1.8262
 3913TIP3    H235935   7.673   4.929  17.764 -0.2048  0.5585  0.9851
 3914TIP3   OH235936   0.042   7.524  18.197 -0.8000  0.8367 -0.8263
 3914TIP3    H135937   0.090   7.487  18.123 -0.9671 -1.2367  0.0241
 3914TIP3    H235938  -0.048   7.533  18.166 -1.6430 -3.1566 -0.0366
 3915TIP3   OH235939   1.750   2.495  17.116 -0.0475 -0.0735  0.3201
 3915TIP3    H135940   1.705   2.419  17.152 -1.1580  0.6922  0.5714
 3915TIP3    H235941   1.682   2.544  17.070  0.5423  1.0433  0.6082
 3916TIP3   OH235942   0.324   6.830  18.750 -0.5809 -0.3647  0.3209
 3916TIP3    H135943   0.266   6.885  18.698  0.5500  0.5391 -0.0491
 3916TIP3    H235944   0.283   6.744  18.749 -2.2548  0.3889  0.6717
 3917TIP3   OH235945   2.537   6.733  17.430  0.1325 -0.2068 -0.5740
 3917TIP3    H135946   2.630   6.745  17.450  0.3764 -0.8239 -1.2911
 3917TIP3    H235947   2.521   6.792  17.356 -0.2526  0.4822  0.0345
 3918TIP3   OH235948   7.304   1.351  17.812  0.6459  0.1985 -0.5728
 3918TIP3    H135949   7.240   1.422  17.817  0.1357 -0.3039  2.6664
 3918TIP3    H235950   7.360   1.374  17.738 -0.8273  2.7919 -1.0024
 3919TIP3   OH235951   5.359   2.376  19.545  0.4121 -0.6406 -0.4142
 3919TIP3    H135952   5.317   2.453  19.584  1.2168 -0.7512  0.7234
 3919TIP3    H235953   5.331   2.378  19.453  0.4833  1.0606 -0.4411
 3920TIP3   OH235954   7.479   1.034  19.105 -0.2350  0.6159  0.4061
 3920TIP3    H135955   7.473   0.974  19.180 -0.9076  0.7591  0.4786
 3920TIP3    H235956   7.416   1.103  19.125 -1.7226 -0.2309 -1.0874
 3921TIP3   OH235957   5.750   2.051  16.870  0.3386 -0.1245 -0.3066
 3921TIP3    H135958   5.791   2.092  16.946  3.5289 -0.9328 -1.4574
 3921TIP3    H235959   5.734   2.124  16.810 -0.3132  0.2404  0.2884
 3922TIP3   OH235960   3.549   3.044  18.800  0.6035 -0.0403  0.2182
 3922TIP3    H135961   3.454   3.053  18.791  0.5779 -0.5326 -0.0522
 3922TIP3    H235962   3.580   3.133  18.812 -0.0002  0.0202  1.4318
 3923TIP3   OH235963   6.854   0.725  17.656  0.2913 -0.1389 -0.0264
 3923TIP3    H135964   6.791   0.699  17.588  1.1061 -2.1962 -0.0493
 3923TIP3    H235965   6.829   0.815  17.677 -1.7283 -0.3828 -1.0744
 3924TIP3   OH235966   5.905   0.135  18.387  0.7752 -0.4708 -0.2635
 3924TIP3    H135967   5.968   0.066  18.408  1.7730  0.3068 -0.6356
 3924TIP3    H235968   5.852   0.144  18.466  1.9100 -0.3028  0.5041
 3925TIP3   OH235969   3.825   3.455  19.028 -0.2356 -0.4528 -0.5420
 3925TIP3    H135970   3.851   3.379  19.078  0.8276  0.0820 -0.2550
 3925TIP3    H235971   3.885   3.457  18.953  0.8893  1.0332  0.3467
 3926TIP3   OH235972   4.673   1.207  18.398 -0.8693  0.0049  0.5352
 3926TIP3    H135973   4.725   1.130  18.379 -0.3411  0.7273 -1.1172
 3926TIP3    H235974   4.605   1.176  18.458  0.1475 -1.4192  0.9912
 3927TIP3   OH235975   4.470   5.535  19.438  0.2348 -0.3510 -0.0896
 3927TIP3    H135976   4.528   5.547  19.363  0.4160 -0.6092  0.0065
 3927TIP3    H235977   4.487   5.445  19.468  0.7092 -0.0012  0.7212
 3928TIP3   OH235978   6.337   7.359  17.767 -0.1570  0.1239  0.0262
 3928TIP3    H135979   6.242   7.350  17.759 -0.1796  1.2167 -1.2890
 3928TIP3    H235980   6.370   7.269  17.769 -1.1457 -0.2591 -0.5919
 3929TIP3   OH235981   6.886   2.981  18.464  0.3373  0.1391 -0.4042
 3929TIP3    H135982   6.797   2.996  18.497  0.5209 -0.7883  0.5459
 3929TIP3    H235983   6.885   2.891  18.431  0.7235  0.3791 -1.0979
 3930TIP3   OH235984   3.077   5.007  19.318 -0.1733 -0.5990 -0.5889
 3930TIP3    H135985   3.098   4.916  19.297 -0.7569 -1.0376  0.6390
 3930TIP3    H235986   3.089   5.014  19.413 -0.9182  0.3835 -0.5407
 3931TIP3   OH235987   4.523   4.753  18.450  0.3360  0.3519  0.2301
 3931TIP3    H135988   4.522   4.663  18.484 -0.0534  0.5218  0.6794
 3931TIP3    H235989   4.509   4.743  18.356 -0.2853 -0.0240  0.3592
 3932TIP3   OH235990   4.455   6.525  19.493  0.7569  0.2831 -0.0822
 3932TIP3    H135991   4.540   6.482  19.505 -0.0876 -1.2418  0.7740
 3932TIP3    H235992   4.415   6.478  19.420 -0.4472 -0.9175  1.2857
 3933TIP3   OH235993   7.179   3.241  17.387  0.1128  0.7240  0.2712
 3933TIP3    H135994   7.242   3.215  17.454  0.2678 -0.9851 -0.4829
 3933TIP3    H235995   7.212   3.201  17.306 -2.0645 -0.5035 -0.0968
 3934TIP3   OH235996   7.438   1.716  17.380  0.0357  0.4666  0.0543
 3934TIP3    H135997   7.380   1.740  17.307 -1.8013 -0.9472  0.9742
 3934TIP3    H235998   7.415   1.778  17.449 -0.7227 -0.3664  0.5649
 3935TIP3   OH235999   4.864   1.815  18.640 -0.4198 -0.5421 -0.3686
 3935TIP3    H136000   4.780   1.821  18.594 -0.6924  0.3506  0.2283
 3935TIP3    H236001   4.852   1.743  18.702 -1.3761  0.7175  0.9557
 3936TIP3   OH236002   6.897   4.094  18.017  0.5861  0.8564 -0.0461
 3936TIP3    H136003   6.931   4.031  17.955 -1.1727 -0.0065 -0.2098
 3936TIP3    H236004   6.877   4.172  17.965  0.8135  0.7932 -0.2243
 3937TIP3   OH236005   1.189   4.727  18.698  0.5597  0.0872  0.2754
 3937TIP3    H136006   1.134   4.653  18.673 -0.7570  1.7942 -2.2639
 3937TIP3    H236007   1.278   4.691  18.702 -0.2171 -1.9116  0.6016
 3938TIP3   OH236008   0.744   0.715  19.479 -0.3606  0.0547  0.1972
 3938TIP3    H136009   0.742   0.753  19.391 -3.0729  0.4133  0.3318
 3938TIP3    H236010   0.837   0.707  19.500  0.4317  4.2422 -0.8646
 3939TIP3   OH236011   3.472   3.701  17.332 -0.6095 -0.0910 -0.6064
 3939TIP3    H136012   3.379   3.711  17.353 -0.4159  0.8753 -0.1532
 3939TIP3    H236013   3.480   3.734  17.243 -0.2085  2.7482  0.4084
 3940TIP3   OH236014   4.746   5.546  18.822  0.0692 -0.2383  0.0682
 3940TIP3    H136015   4.735   5.613  18.889  1.1637  0.2940 -0.2636
 3940TIP3    H236016   4.689   5.574  18.751 -0.9739 -0.7218  0.6869
 3941TIP3   OH236017   6.075   7.577  18.884 -0.2268 -0.4985  0.3765
 3941TIP3    H136018   6.102   7.668  18.890 -0.6859 -0.3448  0.1626
 3941TIP3    H236019   5.982   7.581  18.863 -0.8476 -0.9822  2.7427
 3942TIP3   OH236020   2.103   1.737  16.855 -0.4364 -0.3030 -0.7114
 3942TIP3    H136021   2.030   1.793  16.883 -1.2787 -0.9270 -1.5636
 3942TIP3    H236022   2.154   1.722  16.934 -0.9582  0.5524 -0.1912
 3943TIP3   OH236023   7.044   3.987  17.797  0.1590 -0.2884  0.0592
 3943TIP3    H136024   7.004   3.974  17.711  3.5341  0.7831 -1.8761
 3943TIP3    H236025   7.073   3.900  17.823  0.5075 -0.4022 -0.6788
 3944TIP3   OH236026   4.592   7.583  17.117 -0.0794 -0.3294  0.1242
 3944TIP3    H136027   4.644   7.524  17.063  0.2423  0.6020 -0.6121
 3944TIP3    H236028   4.630   7.670  17.101 -1.4304  0.2757  0.0753
 3945TIP3   OH236029   2.147   5.413  18.412  0.0567  0.2223 -0.0599
 3945TIP3    H136030   2.133   5.342  18.474  1.0110 -0.5077 -0.6568
 3945TIP3    H236031   2.061   5.429  18.373  0.0254 -1.3259 -0.6784
 3946TIP3   OH236032   1.977   3.477  19.010 -0.3578  0.2211  0.1596
 3946TIP3    H136033   1.940   3.403  19.058  0.8201 -0.4756  0.0465
 3946TIP3    H236034   1.981   3.548  19.074 -0.1454 -0.2588  0.6899
 3947TIP3   OH236035   5.093   6.705  17.253  0.3447  0.1772  0.5708
 3947TIP3    H136036   5.105   6.671  17.165 -1.6799  0.9359 -0.0646
 3947TIP3    H236037   5.032   6.644  17.295 -1.3366  1.5558  0.2624
 3948TIP3   OH236038   7.472   7.540  18.803 -0.3534 -0.3612  0.2542
 3948TIP3    H136039   7.546   7.557  18.861 -0.8913  1.4876  0.4676
 3948TIP3    H236040   7.442   7.627  18.776 -1.4431 -1.1118 -1.1167
 3949TIP3   OH236041   2.808   7.433  19.414 -0.4409  0.2771 -0.2249
 3949TIP3    H136042   2.898   7.404  19.399 -0.1613 -0.3401  2.1069
 3949TIP3    H236043   2.753   7.362  19.380  0.0591 -0.3260  0.1939
 3950TIP3   OH236044   0.856   7.088  16.498  0.2693 -0.0642  0.0749
 3950TIP3    H136045   0.797   7.163  16.503 -0.0320 -0.2791 -0.2061
 3950TIP3    H236046   0.798   7.012  16.500  0.4501 -0.2659 -1.2359
 3951TIP3   OH236047   5.832   6.362  18.575  0.3317 -0.0887  0.3500
 3951TIP3    H136048   5.898   6.390  18.511  1.1232  0.3942  1.3363
 3951TIP3    H236049   5.850   6.415  18.652 -1.7632  0.6585  0.3890
 3952TIP3   OH236050   6.274   3.576  17.895 -0.0594  0.0837 -0.3955
 3952TIP3    H136051   6.246   3.581  17.804  0.0560 -1.4629 -0.5349
 3952TIP3    H236052   6.192   3.572  17.945 -0.1184  0.7126 -0.4266
 3953TIP3   OH236053   2.533   0.530  18.380 -0.4096 -0.4396  0.1674
 3953TIP3    H136054   2.519   0.522  18.286  0.3734  1.5820 -0.1857
 3953TIP3    H236055   2.617   0.574  18.388 -0.9064  0.3218  1.7648
 3954TIP3   OH236056   6.233   1.031  16.848  0.0025 -0.0592 -0.2070
 3954TIP3    H136057   6.149   0.998  16.879 -0.4282  0.0106 -1.2492
 3954TIP3    H236058   6.243   1.115  16.892 -1.5115  0.9442 -1.6523
 3955TIP3   OH236059   2.082   7.625  19.364  0.0591  0.0484  0.1535
 3955TIP3    H136060   2.060   7.566  19.292 -0.3408 -3.1229  2.6654
 3955TIP3    H236061   1.997   7.655  19.397  0.1040 -0.7415  1.0053
 3956TIP3   OH236062   1.763   2.989  18.905 -0.4611 -0.1495  0.3794
 3956TIP3    H136063   1.749   2.979  18.999 -1.8819  0.4287  0.2472
 3956TIP3    H236064   1.719   3.071  18.882 -1.0393 -0.8014 -0.9661
 3957TIP3   OH236065   3.998   4.926  18.489  0.4612 -0.1719  0.5905
 3957TIP3    H136066   4.023   4.859  18.425  1.7625  1.1409 -0.3331
 3957TIP3    H236067   4.071   4.931  18.549  0.0767 -0.0365  1.0535
 3958TIP3   OH236068   3.690   1.072  18.619  0.1455  0.0402  0.2137
 3958TIP3    H136069   3.640   1.152  18.632  0.2192  0.1968 -0.4536
 3958TIP3    H236070   3.777   1.092  18.652  0.0645  0.1193  0.3787
 3959TIP3   OH236071   4.265   4.006  18.139  0.1857 -0.2946  0.0523
 3959TIP3    H136072   4.238   3.925  18.096  0.2243 -0.7687  0.8877
 3959TIP3    H236073   4.191   4.065  18.129  0.3523 -0.2405 -1.0160
 3960TIP3   OH236074   6.719   6.116  18.173  0.2890 -0.8587  0.8665
 3960TIP3    H136075   6.699   6.033  18.216  1.6750 -1.3949  0.5422
 3960TIP3    H236076   6.809   6.105  18.141  0.1561  0.4163 -0.0232
 3961TIP3   OH236077   5.169   2.327  19.007 -0.5362  0.0542 -0.1834
 3961TIP3    H136078   5.233   2.283  18.951 -1.2320 -0.4457 -0.5956
 3961TIP3    H236079   5.097   2.350  18.948 -1.0670 -0.0558  0.4113
 3962TIP3   OH236080   7.095   1.111  16.783 -0.0341 -0.3425  0.1119
 3962TIP3    H136081   7.101   1.197  16.824  0.7142  0.3924 -1.4553
 3962TIP3    H236082   7.010   1.110  16.740  0.4253  0.0806 -0.8282
 3963TIP3   OH236083   6.133   3.001  17.474 -0.0279  0.1310  0.1321
 3963TIP3    H136084   6.117   3.030  17.563 -1.9313 -2.9297  0.9758
 3963TIP3    H236085   6.228   2.990  17.468  0.1698  0.8595  1.5903
 3964TIP3   OH236086   0.529   2.649  19.497 -0.5810 -0.0125 -0.0599
 3964TIP3    H136087   0.545   2.671  19.405 -0.4062 -0.0952 -0.0525
 3964TIP3    H236088   0.603   2.688  19.544 -0.1397 -0.8003 -0.0741
 3965TIP3   OH236089   1.432   1.989  16.772 -0.2471  0.3396 -0.6083
 3965TIP3    H136090   1.380   1.909  16.781  1.8677 -0.9218  1.4612
 3965TIP3    H236091   1.521   1.958  16.751  0.3743  2.2365 -1.0383
 3966TIP3   OH236092   4.835   3.796  17.456 -0.8073  0.6949  0.6679
 3966TIP3    H136093   4.892   3.746  17.399 -1.3716  2.4937 -1.6207
 3966TIP3    H236094   4.785   3.729  17.505  0.7052 -0.8889  0.1329
 3967TIP3   OH236095   1.799   3.759  17.574  0.1240 -0.1667  0.2143
 3967TIP3    H136096   1.704   3.762  17.565  0.2643 -0.2105 -1.6643
 3967TIP3    H236097   1.823   3.848  17.602 -0.4312 -0.0915  0.4751
 3968TIP3   OH236098   6.772   4.316  17.874  0.2342 -0.0097 -0.2430
 3968TIP3    H136099   6.832   4.377  17.829  0.3233  0.4034  0.4238
 3968TIP3    H236100   6.703   4.300  17.809  1.3604 -0.9746 -1.2499
 3969TIP3   OH236101   2.580   1.443  17.756 -1.3195  0.3843  0.1104
 3969TIP3    H136102   2.610   1.482  17.674  0.9104 -1.6619 -0.1728
 3969TIP3    H236103   2.600   1.508  17.823 -0.0219  0.7689 -0.6060
 3970TIP3   OH236104   7.402   5.928  19.630  0.0711 -0.1896  0.0341
 3970TIP3    H136105   7.375   6.019  19.615  0.3101 -0.0703  0.3136
 3970TIP3    H236106   7.489   5.923  19.590 -0.8239 -0.8963 -1.9425
 3971TIP3   OH236107   2.962   4.684  17.247 -0.1164  0.2019  0.4581
 3971TIP3    H136108   2.918   4.615  17.197 -0.9250  0.4247  0.8490
 3971TIP3    H236109   2.981   4.644  17.332  0.7837 -0.0096  0.1673
 3972TIP3   OH236110   7.021   7.562  16.990 -0.0646  0.1450 -0.1640
 3972TIP3    H136111   7.040   7.550  17.082 -0.0303 -2.4616 -0.4359
 3972TIP3    H236112   6.937   7.518  16.977  0.0999  0.1628 -1.4499
 3973TIP3   OH236113   6.773   7.300  18.723 -0.0457  1.0579 -0.1927
 3973TIP3    H136114   6.780   7.359  18.647 -1.4296 -0.5051 -1.6129
 3973TIP3    H236115   6.697   7.332  18.771 -1.0892  0.1954 -1.2274
 3974TIP3   OH236116   7.674   1.220  18.730  0.2070  0.1220 -0.2441
 3974TIP3    H136117   7.585   1.186  18.720  0.3077 -0.1270 -0.3229
 3974TIP3    H236118   7.730   1.148  18.699  0.5587 -0.7601  2.1572
 3975TIP3   OH236119   2.522   0.044  18.218  0.5976  1.0348 -0.1769
 3975TIP3    H136120   2.559   0.129  18.197  0.3971  2.2902  3.7571
 3975TIP3    H236121   2.569   0.015  18.296 -0.7458 -1.5295 -0.1927
 3976TIP3   OH236122   1.261   4.184  17.513 -0.0611 -0.7994  0.5003
 3976TIP3    H136123   1.180   4.233  17.496  0.0324 -0.3711  1.2415
 3976TIP3    H236124   1.330   4.239  17.475 -0.2253 -1.9674 -1.6844
 3977TIP3   OH236125   6.908   6.327  17.465  0.0816  0.0604 -0.3008
 3977TIP3    H136126   6.928   6.420  17.453  0.1115 -0.0398 -1.0411
 3977TIP3    H236127   6.975   6.296  17.526  2.7356 -0.4250 -3.2178
 3978TIP3   OH236128   3.004   6.073  18.731 -0.0504  0.2135 -0.2677
 3978TIP3    H136129   3.066   6.051  18.801  0.9889  3.5352  0.0148
 3978TIP3    H236130   2.919   6.078  18.775 -0.2196 -2.0988 -0.2109
 3979TIP3   OH236131   3.641   5.645  16.917  0.4769  0.1389 -0.0021
 3979TIP3    H136132   3.552   5.666  16.889  0.3315  1.1077  1.1378
 3979TIP3    H236133   3.666   5.716  16.976  2.5408  0.6270 -1.3534
 3980TIP3   OH236134   0.132   4.095  18.735 -0.2463 -0.6754 -0.1478
 3980TIP3    H136135   0.052   4.043  18.745  0.0430 -0.8317  1.6328
 3980TIP3    H236136   0.192   4.037  18.688 -1.3574 -0.3077 -2.1321
 3981TIP3   OH236137   7.317   7.345  18.648 -0.6806 -0.0481  0.1512
 3981TIP3    H136138   7.335   7.263  18.695 -1.9580  0.4943  1.6827
 3981TIP3    H236139   7.383   7.406  18.681 -0.3235 -0.2002 -0.2760
 3982TIP3   OH236140   1.934   3.033  17.972  0.2780 -0.8797  0.4894
 3982TIP3    H136141   1.883   2.991  18.041 -0.7591  1.0297  0.9408
 3982TIP3    H236142   1.869   3.060  17.907  1.0322 -0.8768 -0.2846
 3983TIP3   OH236143   1.915   1.016  19.176 -0.3751  0.1207 -0.0113
 3983TIP3    H136144   1.821   1.010  19.196 -0.7128  2.4639 -0.5818
 3983TIP3    H236145   1.924   0.972  19.092 -0.7935 -0.8847  0.4551
 3984TIP3   OH236146   1.499   3.456  18.847 -0.6280  0.0755 -0.1988
 3984TIP3    H136147   1.572   3.509  18.814  0.4052 -0.8169  0.5613
 3984TIP3    H236148   1.515   3.451  18.941 -3.0281  1.8656  0.3917
 3985TIP3   OH236149   2.218   2.492  17.245  0.7284  0.6607  0.3860
 3985TIP3    H136150   2.267   2.410  17.255  0.3087  0.0202 -2.1814
 3985TIP3    H236151   2.245   2.526  17.160 -2.3210  0.9075 -0.5921
 3986TIP3   OH236152   0.926   4.652  17.493  0.0942 -0.8590 -0.2427
 3986TIP3    H136153   0.833   4.654  17.471 -0.2765 -2.5722  0.9322
 3986TIP3    H236154   0.941   4.735  17.539 -1.2576 -1.1859  0.8897
 3987TIP3   OH236155   3.772   2.186  19.545 -0.4037  0.3515  0.2587
 3987TIP3    H136156   3.762   2.143  19.630  0.3460 -0.7715 -0.1940
 3987TIP3    H236157   3.700   2.151  19.492  0.0973 -0.2239 -0.0534
 3988TIP3   OH236158   7.082   7.488  19.312 -0.2171  0.3608 -0.4579
 3988TIP3    H136159   7.144   7.525  19.375  2.6789 -0.2742 -2.6906
 3988TIP3    H236160   7.043   7.564  19.268  0.9755  0.8282 -0.7504
 3989TIP3   OH236161   4.031   5.683  17.181 -0.0160 -0.1997  0.0294
 3989TIP3    H136162   4.114   5.715  17.217  0.4260 -0.5150 -0.6967
 3989TIP3    H236163   3.978   5.763  17.171  1.0981  0.3567 -1.8110
 3990TIP3   OH236164   6.365   2.987  19.327 -0.6428  0.3721  0.1576
 3990TIP3    H136165   6.277   2.954  19.309 -0.6811  0.4569  0.1869
 3990TIP3    H236166   6.354   3.045  19.402 -0.4380 -0.1930  0.6249
 3991TIP3   OH236167   4.917   5.411  19.342  0.1278 -0.4305 -0.2004
 3991TIP3    H136168   4.848   5.453  19.392 -0.8244 -1.2505 -0.7895
 3991TIP3    H236169   4.994   5.416  19.398  0.0441  1.9899 -0.2183
 3992TIP3   OH236170   7.077   6.274  18.536  0.0138  0.3405  0.3960
 3992TIP3    H136171   7.030   6.330  18.599  2.5113  1.1772  1.6741
 3992TIP3    H236172   7.123   6.336  18.480 -0.5673 -0.4452 -0.9825
 3993TIP3   OH236173   5.819   1.314  18.079  0.4715  0.0325 -0.6835
 3993TIP3    H136174   5.804   1.229  18.121 -0.1088  0.0594 -0.8344
 3993TIP3    H236175   5.743   1.366  18.103  1.9413  1.3620  1.4873
 3994TIP3   OH236176   5.737   6.304  18.978 -0.7503 -0.0887 -0.0599
 3994TIP3    H136177   5.751   6.235  18.914  2.9175 -0.2414  0.6564
 3994TIP3    H236178   5.714   6.257  19.059 -0.6053 -0.3066 -0.1428
 3995TIP3   OH236179   4.449   2.884  18.362 -0.1332  0.4150 -0.7773
 3995TIP3    H136180   4.426   2.945  18.291  0.5728  1.4658 -0.1444
 3995TIP3    H236181   4.494   2.812  18.318 -1.3271  0.1252 -1.5915
 3996TIP3   OH236182   1.255   6.791  19.263 -0.4631 -0.6500  0.0230
 3996TIP3    H136183   1.279   6.884  19.262 -0.1719 -0.5382  3.5028
 3996TIP3    H236184   1.162   6.790  19.240 -0.5127  0.5591  0.0964
 3997TIP3   OH236185   2.765   6.553  18.082 -0.3138  0.2800 -0.0331
 3997TIP3    H136186   2.843   6.552  18.137 -1.1107 -1.3799  1.1563
 3997TIP3    H236187   2.719   6.472  18.104 -2.9456  1.7105  0.1656
 3998TIP3   OH236188   0.275   0.688  18.589 -0.3186  0.9175  0.1332
 3998TIP3    H136189   0.290   0.594  18.601  2.5903  1.0064 -1.6634
 3998TIP3    H236190   0.289   0.726  18.676  1.3422 -0.1001  0.3624
 3999TIP3   OH236191   6.484   2.173  19.376 -0.1938  0.0388  0.6020
 3999TIP3    H136192   6.489   2.264  19.350 -0.3235 -0.2719 -0.5427
 3999TIP3    H236193   6.568   2.155  19.419  1.1901 -0.1408 -2.0055
 4000TIP3   OH236194   1.002   7.079  17.820 -0.1867  0.0399  0.3817
 4000TIP3    H136195   0.953   7.003  17.852 -0.2422 -0.1284 -0.0968
 4000TIP3    H236196   1.039   7.051  17.736 -1.6590  1.1100 -0.6620
 4001TIP3   OH236197   4.116   0.708  17.845  0.2169  0.5463  0.1012
 4001TIP3    H136198   4.081   0.672  17.926  1.1780  0.0599  0.3141
 4001TIP3    H236199   4.135   0.799  17.866  2.4855 -0.0828  1.1342
 4002TIP3   OH236200   7.061   7.144  18.003 -0.2403 -0.0853 -0.4550
 4002TIP3    H136201   7.084   7.236  17.992 -2.1986  1.2363  4.2190
 4002TIP3    H236202   7.097   7.101  17.925  1.2627  4.4515 -2.6071
 4003TIP3   OH236203   1.493   3.657  19.239 -0.7733  0.4743 -0.4214
 4003TIP3    H136204   1.402   3.643  19.213 -1.2712 -2.3838  2.2609
 4003TIP3    H236205   1.488   3.686  19.330  0.9381 -1.1267  0.2534
 4004TIP3   OH236206   6.264   1.572  16.841  0.4439  0.3949  0.0367
 4004TIP3    H136207   6.306   1.553  16.756  0.3027 -0.4169  0.1406
 4004TIP3    H236208   6.255   1.668  16.842 -1.2145  0.3146 -1.6699
 4005TIP3   OH236209   5.728   3.679  18.343 -0.8270  0.1200 -0.0124
 4005TIP3    H136210   5.670   3.607  18.366 -0.1941 -0.8121 -1.1449
 4005TIP3    H236211   5.744   3.726  18.425 -0.4489 -1.6536  0.9814
 4006TIP3   OH236212   0.245   2.235  16.912 -0.6632  0.2718  0.6601
 4006TIP3    H136213   0.245   2.140  16.914 -0.1620  0.2478 -0.2372
 4006TIP3    H236214   0.264   2.258  16.821  0.0156  1.2276  1.0190
 4007TIP3   OH236215   1.569   3.412  19.109  0.3608  0.1269  0.4611
 4007TIP3    H136216   1.550   3.485  19.167  0.8516 -0.2071  1.0546
 4007TIP3    H236217   1.496   3.351  19.122  0.1885  0.3028  0.3124
 4008TIP3   OH236218   5.335   7.350  17.821  0.5602 -0.0789  0.7813
 4008TIP3    H136219   5.321   7.438  17.785  1.0141 -0.5942 -0.7060
 4008TIP3    H236220   5.338   7.293  17.744  2.0918 -1.1625  1.6137
 4009TIP3   OH236221   6.956   4.959  18.051  0.1845  0.3316  0.1486
 4009TIP3    H136222   6.881   4.898  18.056  0.1108  0.4866  1.2154
 4009TIP3    H236223   6.948   4.999  17.965  0.4483 -1.4380 -0.7492
 4010TIP3   OH236224   0.386   4.813  17.077 -0.6823 -0.1966  0.4594
 4010TIP3    H136225   0.319   4.800  17.010 -0.4958  2.8642 -0.5039
 4010TIP3    H236226   0.337   4.839  17.155 -0.7364  0.9620  0.0672
 4011TIP3   OH236227   1.947   5.212  19.066  0.0181  0.2630 -0.1184
 4011TIP3    H136228   1.896   5.146  19.113  0.3174 -0.3512 -0.6459
 4011TIP3    H236229   2.033   5.211  19.108  0.2722 -0.2550 -0.6454
 4012TIP3   OH236230   5.574   5.536  18.693 -0.8593  0.5691  0.1524
 4012TIP3    H136231   5.628   5.610  18.722  0.8371 -0.7257  0.5064
 4012TIP3    H236232   5.620   5.502  18.616 -0.8789 -0.8727  0.7553
 4013TIP3   OH236233   2.802   6.804  18.515  0.0160 -0.0523 -0.0227
 4013TIP3    H136234   2.867   6.869  18.487 -0.2286 -0.1128 -0.7639
 4013TIP3    H236235   2.718   6.843  18.492 -0.1750 -0.2907  0.2621
 4014TIP3   OH236236   4.598   0.534  18.853  0.2518  0.2368 -0.1906
 4014TIP3    H136237   4.661   0.585  18.903 -0.0219  1.1597 -0.7655
 4014TIP3    H236238   4.526   0.517  18.914  0.0702  1.0725 -0.1608
 4015TIP3   OH236239   6.530   4.882  18.488 -0.0252  0.3482 -0.0787
 4015TIP3    H136240   6.483   4.800  18.506  0.6618  0.0289  0.3300
 4015TIP3    H236241   6.615   4.870  18.531  0.4172  0.9216 -0.7623
 4016TIP3   OH236242   3.875   7.193  18.555 -0.5400  0.3279  0.1755
 4016TIP3    H136243   3.956   7.239  18.533 -0.6250  0.2825 -0.2406
 4016TIP3    H236244   3.806   7.244  18.512 -0.5901 -0.4324 -0.6680
 4017TIP3   OH236245   2.112   3.412  18.746  0.0831 -0.0564 -0.1655
 4017TIP3    H136246   2.058   3.429  18.823 -0.3858  0.3422 -0.5763
 4017TIP3    H236247   2.061   3.447  18.673 -0.3673 -2.1163 -0.9031
 4018TIP3   OH236248   0.158   1.240  18.018  0.2308  0.3242 -0.0180
 4018TIP3    H136249   0.188   1.235  18.109  1.6683  1.4988 -0.3978
 4018TIP3    H236250   0.071   1.282  18.024  0.7684  1.3828  0.7562
 4019TIP3   OH236251   3.373   3.132  19.135 -0.0637 -0.1110  0.3073
 4019TIP3    H136252   3.309   3.109  19.202  1.0933 -1.6950  0.9558
 4019TIP3    H236253   3.324   3.129  19.053 -2.0688  4.0555  1.0887
 4020TIP3   OH236254   0.628   7.316  18.784 -0.3681  0.8301  0.5697
 4020TIP3    H136255   0.557   7.264  18.822 -0.4468  0.2080 -0.3792
 4020TIP3    H236256   0.596   7.340  18.696  0.5141  0.6847  0.1969
 4021TIP3   OH236257   1.884   6.739  19.034  0.3881  0.6041 -0.5334
 4021TIP3    H136258   1.971   6.740  19.073  0.2525 -0.6347 -0.1556
 4021TIP3    H236259   1.897   6.771  18.945  1.1359  0.9865 -0.2905
 4022TIP3   OH236260   4.744   5.415  18.155  0.1690 -0.0952  0.1684
 4022TIP3    H136261   4.816   5.454  18.105  0.1703  1.9455  1.6154
 4022TIP3    H236262   4.787   5.366  18.225  0.1513 -0.7402 -0.2676
 4023TIP3   OH236263   6.868   6.584  18.009  0.5419 -0.5381  0.4555
 4023TIP3    H136264   6.935   6.643  18.046  1.1374 -1.0569  0.2168
 4023TIP3    H236265   6.889   6.498  18.046  0.0030 -0.7039  0.3732
 4024TIP3   OH236266   0.157   2.692  17.385  0.0382 -0.0261  0.1578
 4024TIP3    H136267   0.094   2.748  17.340 -2.5700 -1.6755  1.4822
 4024TIP3    H236268   0.123   2.687  17.475  2.8578  0.0568  1.3077
 4025TIP3   OH236269   3.185   6.851  17.316 -0.2184 -0.5472  0.1698
 4025TIP3    H136270   3.267   6.839  17.267 -1.0383 -1.1056 -1.1200
 4025TIP3    H236271   3.118   6.812  17.260 -1.5840  1.1502  0.5495
 4026TIP3   OH236272   6.698   5.758  18.967 -0.0270  0.0529 -0.3565
 4026TIP3    H136273   6.778   5.802  18.939 -0.1060 -0.2313 -1.0301
 4026TIP3    H236274   6.687   5.685  18.907  0.1404 -0.9584  0.7911
 4027TIP3   OH236275   5.974   2.340  18.346 -0.0152 -0.4643 -0.4421
 4027TIP3    H136276   6.051   2.334  18.290  0.2232 -0.2026 -0.1461
 4027TIP3    H236277   6.007   2.373  18.429 -0.4533 -0.3145 -0.3232
 4028TIP3   OH236278   2.049   4.627  17.528 -0.8115  0.0911 -0.0079
 4028TIP3    H136279   2.071   4.693  17.594  2.6066  0.1615 -0.9953
 4028TIP3    H236280   2.061   4.673  17.444  1.2085 -1.5453 -0.7127
 4029TIP3   OH236281   0.362   5.106  18.576  0.9771 -0.0742  0.3198
 4029TIP3    H136282   0.437   5.119  18.633  1.6952 -0.2144 -0.5664
 4029TIP3    H236283   0.322   5.025  18.607  2.6059 -1.3250 -0.6653
 4030TIP3   OH236284   5.054   3.913  17.827 -0.3660  0.0732 -0.2238
 4030TIP3    H136285   4.963   3.934  17.805 -0.7662 -0.2442  1.0540
 4030TIP3    H236286   5.048   3.848  17.897  0.8471  0.1208 -0.0522
 4031TIP3   OH236287   4.792   0.572  19.290 -0.3545 -0.4304  0.1091
 4031TIP3    H136288   4.843   0.522  19.353  0.6471 -0.1844 -0.4815
 4031TIP3    H236289   4.786   0.660  19.328 -0.1833 -0.4152  0.1016
 4032TIP3   OH236290   7.108   6.714  18.138  0.5591 -0.4035  0.0669
 4032TIP3    H136291   7.118   6.804  18.169  0.9940 -0.1281 -0.8443
 4032TIP3    H236292   7.146   6.715  18.051 -0.9276 -1.0713 -0.6221
 4033TIP3   OH236293   3.880   5.541  19.462 -0.1933 -0.5892 -0.0738
 4033TIP3    H136294   3.867   5.502  19.548  1.3789  0.5420  0.7154
 4033TIP3    H236295   3.968   5.514  19.436 -0.1920  0.0726 -0.7870
 4034TIP3   OH236296   5.104   1.855  18.200 -0.3619 -0.6150  0.5480
 4034TIP3    H136297   5.025   1.868  18.148 -0.7256 -1.8248  0.7715
 4034TIP3    H236298   5.121   1.940  18.240  0.6900  0.8264 -2.5581
 4035TIP3   OH236299   3.095   4.443  18.354 -0.0699  0.4610  0.0927
 4035TIP3    H136300   3.185   4.449  18.319  0.5908 -1.3624  1.3504
 4035TIP3    H236301   3.040   4.439  18.276  0.8099  2.5919 -0.7193
 4036TIP3   OH236302   2.182   7.469  18.176  0.2272  0.3754 -0.4044
 4036TIP3    H136303   2.170   7.429  18.262 -0.9126  0.0836 -0.6781
 4036TIP3    H236304   2.270   7.505  18.178 -0.8130  3.1682  2.0462
 4037TIP3   OH236305   6.196   1.770  18.909 -0.2607 -0.5793 -0.3210
 4037TIP3    H136306   6.194   1.692  18.854 -0.4237 -0.5228 -0.3943
 4037TIP3    H236307   6.195   1.843  18.847 -3.1102 -0.4391 -0.2682
 4038TIP3   OH236308   2.052   0.141  18.975 -0.2785 -0.7487 -0.1275
 4038TIP3    H136309   2.064   0.233  18.996 -1.8709 -0.2083 -1.4022
 4038TIP3    H236310   2.129   0.097  19.012 -0.8769  0.6497  3.0272
 4039TIP3   OH236311   2.098   5.865  17.359  0.4157 -0.2369  0.2331
 4039TIP3    H136312   2.165   5.820  17.308  0.3701  0.0657 -0.0996
 4039TIP3    H236313   2.040   5.795  17.389  0.6521 -0.4577  0.1845
 4040TIP3   OH236314   6.721   0.694  17.425 -0.4941 -0.1430  0.0158
 4040TIP3    H136315   6.678   0.778  17.410  1.2544  0.6759 -0.7368
 4040TIP3    H236316   6.654   0.629  17.405 -1.5016  1.0523 -0.6624
 4041TIP3   OH236317   5.112   1.592  18.206 -0.3568  0.0956 -0.2388
 4041TIP3    H136318   5.129   1.569  18.297  0.7559  0.4741 -0.3318
 4041TIP3    H236319   5.140   1.683  18.198 -0.2374  0.0033 -0.9986
 4042TIP3   OH236320   7.459   7.299  19.329  0.0731  0.1986  0.5688
 4042TIP3    H136321   7.530   7.236  19.327 -1.3027 -1.4324 -2.3765
 4042TIP3    H236322   7.477   7.359  19.257 -0.5717  0.9284  0.9908
 4043TIP3   OH236323   6.991   5.771  18.262 -0.5865 -0.4768  0.2135
 4043TIP3    H136324   7.016   5.859  18.291 -1.6371 -0.8295  2.4065
 4043TIP3    H236325   7.072   5.721  18.262 -0.2674  0.0272  0.8108
 4044TIP3   OH236326   0.814   2.264  19.273 -0.2905 -0.0313  0.5228
 4044TIP3    H136327   0.849   2.272  19.361 -2.5678 -0.8816  1.5932
 4044TIP3    H236328   0.818   2.170  19.254  1.5912  0.2843 -0.9720
 4045TIP3   OH236329   5.499   6.523  17.735 -0.2168 -0.0207 -0.3872
 4045TIP3    H136330   5.485   6.597  17.675  0.5539 -0.6766 -1.3845
 4045TIP3    H236331   5.464   6.447  17.688 -0.1907 -0.4397  0.2642
 4046TIP3   OH236332   2.010   1.581  19.235 -0.4016  0.1527 -0.1168
 4046TIP3    H136333   2.088   1.609  19.187 -1.5678  0.1433 -2.1176
 4046TIP3    H236334   1.995   1.491  19.206 -0.4594 -0.2980  1.2275
 4047TIP3   OH236335   7.455   4.855  18.564  0.1948 -0.2153 -0.3229
 4047TIP3    H136336   7.373   4.838  18.518  0.6830 -4.5711 -0.0028
 4047TIP3    H236337   7.444   4.816  18.650  2.2094  0.1250  0.1461
 4048TIP3   OH236338   7.063   4.446  19.408  0.8229 -0.1863 -0.0366
 4048TIP3    H136339   7.113   4.498  19.471  1.5240 -0.9680  0.0599
 4048TIP3    H236340   7.096   4.474  19.323 -2.4870  3.4351 -0.4033
 4049TIP3   OH236341   5.263   1.403  18.070  0.4570  0.3469  0.3964
 4049TIP3    H136342   5.213   1.466  18.122  0.3646  0.6800 -0.0910
 4049TIP3    H236343   5.354   1.418  18.096  0.3366 -0.1249  1.1373
 4050TIP3   OH236344   0.183   7.435  19.312 -0.2839  0.3984 -0.4223
 4050TIP3    H136345   0.218   7.523  19.294 -2.0301  1.1776 -0.2177
 4050TIP3    H236346   0.102   7.451  19.360  0.3260 -1.3985  1.3665
 4051TIP3   OH236347   4.848   0.932  17.485 -0.4831 -0.2010  0.0766
 4051TIP3    H136348   4.813   0.984  17.557 -0.5610  0.2244 -0.2658
 4051TIP3    H236349   4.873   0.849  17.525 -0.9795 -0.1460  0.5034
 4052TIP3   OH236350   0.758   5.155  17.182  0.1425 -0.4369 -0.2844
 4052TIP3    H136351   0.696   5.220  17.152 -0.3171 -0.3789  0.7444
 4052TIP3    H236352   0.833   5.163  17.123 -0.9148 -0.6905 -1.7029
 4053TIP3   OH236353   0.136   3.296  17.316 -0.5232  0.1215 -0.3148
 4053TIP3    H136354   0.150   3.202  17.325 -1.0608  0.0868  0.1976
 4053TIP3    H236355   0.153   3.332  17.403  2.1860  0.8514 -1.0294
 4054TIP3   OH236356   1.728   2.411  19.121  0.0043 -0.4042  0.2693
 4054TIP3    H136357   1.781   2.490  19.118 -1.9640  0.9770 -0.0017
 4054TIP3    H236358   1.745   2.374  19.208  2.0345 -0.5172 -0.1349
 4055TIP3   OH236359   6.731   6.504  17.763 -0.0544 -0.0254  0.1283
 4055TIP3    H136360   6.798   6.436  17.754  0.1453  0.0744  0.8165
 4055TIP3    H236361   6.763   6.560  17.834 -1.3173 -0.4844  1.0780
 4056TIP3   OH236362   0.019   7.136  17.817  0.2124 -0.3824 -0.3499
 4056TIP3    H136363  -0.001   7.145  17.724 -0.4669  1.5882 -0.0567
 4056TIP3    H236364  -0.012   7.217  17.857 -0.1907 -1.4741  1.7308
 4057TIP3   OH236365   0.768   3.202  18.598 -0.0175  0.1476  0.2554
 4057TIP3    H136366   0.845   3.251  18.624  0.2782 -0.0218 -0.2794
 4057TIP3    H236367   0.786   3.112  18.625  0.5652 -0.1517 -1.0573
 4058TIP3   OH236368   2.266   0.463  16.665 -0.0429 -0.5238  0.0438
 4058TIP3    H136369   2.285   0.381  16.710 -0.8754 -0.4200  0.6120
 4058TIP3    H236370   2.240   0.524  16.734 -0.5687 -0.1261 -0.4859
 4059TIP3   OH236371   0.732   2.741  16.470  0.3403  0.2867  0.6263
 4059TIP3    H136372   0.733   2.714  16.562 -0.8028  0.8571  0.8198
 4059TIP3    H236373   0.640   2.757  16.450  0.3456 -1.3471 -1.0808
 4060TIP3   OH236374   7.323   7.084  18.751  0.2259 -0.3482 -0.3583
 4060TIP3    H136375   7.280   7.006  18.787  2.2735 -1.3800  0.0387
 4060TIP3    H236376   7.294   7.087  18.660 -1.8631 -0.0569  0.2574
 4061TIP3   OH236377   1.471   6.240  18.612 -0.2354  0.2738 -0.0158
 4061TIP3    H136378   1.543   6.258  18.552  0.5904 -2.0167  0.1667
 4061TIP3    H236379   1.495   6.156  18.652 -2.4350  0.0544  0.9491
 4062TIP3   OH236380   1.815   3.490  17.196  0.1581  0.3902 -0.0990
 4062TIP3    H136381   1.882   3.456  17.255  0.3450  0.6039 -0.1862
 4062TIP3    H236382   1.864   3.538  17.129 -0.0591  0.2570 -0.3573
 4063TIP3   OH236383   3.570   1.756  17.437 -0.4256  0.4399  0.5524
 4063TIP3    H136384   3.518   1.746  17.358 -1.2488  1.0076  1.0000
 4063TIP3    H236385   3.651   1.707  17.420 -1.3801 -1.0368  0.1050
 4064TIP3   OH236386   0.180   4.929  18.766  0.4439  0.5659  0.5702
 4064TIP3    H136387   0.243   4.868  18.727 -0.2617  0.0047  0.2788
 4064TIP3    H236388   0.129   4.875  18.827 -0.9361  0.5801 -0.5174
 4065TIP3   OH236389   7.032   5.997  19.133  0.1708 -0.0004 -0.2860
 4065TIP3    H136390   7.092   6.059  19.174 -0.4823  0.3738  0.1085
 4065TIP3    H236391   7.078   5.969  19.053  0.6832  0.5971 -0.2053
 4066TIP3   OH236392   0.785   6.853  18.307  0.7006  0.4036 -0.5082
 4066TIP3    H136393   0.792   6.935  18.259 -0.1596  0.4173 -0.6208
 4066TIP3    H236394   0.691   6.836  18.313  0.7581  0.4336  1.2283
 4067TIP3   OH236395   3.121   1.068  18.043 -0.3273 -0.5451  0.0048
 4067TIP3    H136396   3.064   1.089  17.969  0.6255  2.2500 -0.0583
 4067TIP3    H236397   3.088   1.120  18.115  0.5334 -0.9722  0.7305
 4068TIP3   OH236398   0.069   4.836  19.052 -0.3872  0.4950 -0.2656
 4068TIP3    H136399   0.143   4.824  19.111 -1.1136 -2.3677  0.1926
 4068TIP3    H236400   0.003   4.882  19.105 -0.3373 -0.3708  0.5673
 4069TIP3   OH236401   3.961   1.448  18.036 -0.0108  0.2306  0.7347
 4069TIP3    H136402   3.906   1.479  17.965  0.3677 -1.2920 -0.2784
 4069TIP3    H236403   4.035   1.509  18.039  0.1256  0.1353 -0.4015
 4070TIP3   OH236404   7.224   4.520  19.193 -0.1106  0.1679 -0.1768
 4070TIP3    H136405   7.165   4.575  19.140 -0.4034  1.0584  1.0341
 4070TIP3    H236406   7.269   4.466  19.128 -1.2528  0.4369 -1.2559
 4071TIP3   OH236407   7.260   0.508  17.867 -0.3543 -0.5286  0.0298
 4071TIP3    H136408   7.246   0.416  17.845 -1.2908 -0.3215 -0.3310
 4071TIP3    H236409   7.171   0.543  17.878  0.0251 -0.2504  2.6986
 4072TIP3   OH236410   6.375   4.646  17.828 -0.0994 -0.5433 -0.0101
 4072TIP3    H136411   6.430   4.629  17.905  2.4730  2.8106 -0.8922
 4072TIP3    H236412   6.292   4.677  17.865  0.1313 -1.4405  1.3602
 4073TIP3   OH236413   2.625   7.510  17.313 -0.1463 -0.2537  0.1520
 4073TIP3    H136414   2.656   7.556  17.235 -3.1882  0.1550 -0.9585
 4073TIP3    H236415   2.530   7.526  17.314 -0.8759 -3.7587  1.5573
 4074TIP3   OH236416   5.557   0.001  18.778 -0.1301  0.0759 -0.5768
 4074TIP3    H136417   5.482  -0.059  18.781 -0.2237  0.1504 -1.2488
 4074TIP3    H236418   5.531   0.073  18.835  0.4223 -0.9896  1.0943
 4075TIP3   OH236419   1.561   6.779  18.442 -0.3175 -0.4353 -0.3139
 4075TIP3    H136420   1.474   6.747  18.416  0.1488  0.3964 -3.1924
 4075TIP3    H236421   1.617   6.702  18.435 -0.2122 -0.2401 -1.8497
 4076TIP3   OH236422   2.684   4.446  17.695  0.3018 -0.7220  0.5580
 4076TIP3    H136423   2.696   4.352  17.682  0.0552 -0.7542  0.5497
 4076TIP3    H236424   2.593   4.454  17.725 -0.2808 -0.3097 -1.2314
 4077TIP3   OH236425   4.086   0.115  19.178 -0.0210  0.9234  0.7364
 4077TIP3    H136426   4.006   0.167  19.170 -0.5563 -0.1685 -1.4902
 4077TIP3    H236427   4.086   0.057  19.103  1.2174 -1.4443  2.4170
 4078TIP3   OH236428   3.693   3.453  17.454  0.1848  0.5974  0.7347
 4078TIP3    H136429   3.679   3.544  17.426 -0.9997  0.1061 -0.3784
 4078TIP3    H236430   3.745   3.414  17.383 -0.5396  0.0410  0.4991
 4079TIP3   OH236431   4.109   0.277  16.908 -0.1606 -0.2073 -0.2114
 4079TIP3    H136432   4.191   0.324  16.922 -0.1148 -0.7694  1.6520
 4079TIP3    H236433   4.048   0.315  16.972 -0.5434 -1.6361  0.3150
 4080TIP3   OH236434   2.727   3.217  17.425  0.1781  0.4817  0.1960
 4080TIP3    H136435   2.649   3.219  17.369 -1.1345 -1.9586  1.7713
 4080TIP3    H236436   2.784   3.153  17.384 -0.0646 -0.0908  0.7395
 4081TIP3   OH236437   6.261   1.305  19.120 -0.8756  0.2977 -0.0912
 4081TIP3    H136438   6.227   1.279  19.035 -1.8757  1.2922 -0.0168
 4081TIP3    H236439   6.193   1.282  19.182 -0.1388 -0.4498  0.4641
 4082TIP3   OH236440   6.954   4.441  17.682  0.3472  0.6566  0.3414
 4082TIP3    H136441   6.997   4.527  17.679  1.1576  0.2469 -0.6307
 4082TIP3    H236442   6.913   4.433  17.596  2.0947 -0.7839 -0.4329
 4083TIP3   OH236443   5.344   2.703  17.586  0.2577  1.2218 -0.2458
 4083TIP3    H136444   5.313   2.756  17.660  2.0126 -0.2167  1.6047
 4083TIP3    H236445   5.292   2.623  17.590  0.9006  0.8137 -0.1102
 4084TIP3   OH236446   6.392   3.722  17.034 -0.2289  0.0628 -0.4998
 4084TIP3    H136447   6.455   3.738  16.964 -2.4093  1.2350 -2.2943
 4084TIP3    H236448   6.336   3.652  17.001 -1.2222  0.5572  0.0941
 4085TIP3   OH236449   0.960   0.992  18.958  0.2306  0.2148  0.5634
 4085TIP3    H136450   1.009   1.058  18.909  0.7144  0.1902  1.0063
 4085TIP3    H236451   0.923   0.935  18.891  0.5883  0.3869  0.2136
 4086TIP3   OH236452   3.394   6.378  17.227  0.4696 -0.1520 -0.0285
 4086TIP3    H136453   3.417   6.446  17.290  1.0798 -1.9836  1.8651
 4086TIP3    H236454   3.303   6.357  17.245 -0.1172  0.9678 -1.4745
 4087TIP3   OH236455   4.298   6.150  19.077 -0.0316 -0.1407  0.1194
 4087TIP3    H136456   4.373   6.177  19.024  0.7863 -0.5463  1.0554
 4087TIP3    H236457   4.327   6.070  19.121  0.2422  1.4962  3.1450
 4088TIP3   OH236458   6.982   5.390  17.762  0.6386  0.4024  0.3758
 4088TIP3    H136459   6.968   5.350  17.848 -2.5603  0.9812  0.2327
 4088TIP3    H236460   7.006   5.316  17.706  0.1126 -0.4418  1.2231
 4089TIP3   OH236461   6.020   2.787  18.626  0.1259  0.0659 -0.5403
 4089TIP3    H136462   6.023   2.835  18.544 -0.8712  1.2203  0.0552
 4089TIP3    H236463   6.103   2.806  18.669 -0.2914  1.4105 -0.2654
 4090TIP3   OH236464   4.752   6.448  19.188  0.3274  0.2457  0.0379
 4090TIP3    H136465   4.729   6.486  19.103  1.0679  2.6932  0.8534
 4090TIP3    H236466   4.830   6.397  19.172  0.8349  1.2163 -0.6727
 4091TIP3   OH236467   5.784   1.527  17.571 -0.2874  0.1880 -0.2894
 4091TIP3    H136468   5.752   1.557  17.657  1.5246  0.6881  0.2708
 4091TIP3    H236469   5.805   1.608  17.525  1.2259 -0.1116 -0.1683
 4092TIP3   OH236470   4.342   1.508  17.909  0.1639  0.1903 -0.3167
 4092TIP3    H136471   4.430   1.483  17.937 -0.0593  0.3755  0.5657
 4092TIP3    H236472   4.355   1.582  17.850  0.6098  0.0526 -0.3959
 4093TIP3   OH236473   0.660   6.857  17.586  0.3293 -0.3390 -0.3159
 4093TIP3    H136474   0.617   6.882  17.668 -0.9698  1.1888 -1.4203
 4093TIP3    H236475   0.729   6.922  17.574 -0.6820  0.5643 -1.3502
 4094TIP3   OH236476   1.083   6.409  19.265 -0.4745 -0.2241  0.1970
 4094TIP3    H136477   1.169   6.397  19.226 -0.1231  0.9097  0.5863
 4094TIP3    H236478   1.089   6.366  19.351 -0.2917 -0.1259  0.2333
 4095TIP3   OH236479   1.425   4.520  18.273 -0.1609 -0.6724 -0.3681
 4095TIP3    H136480   1.413   4.475  18.356  2.2212 -1.2221 -0.2412
 4095TIP3    H236481   1.378   4.466  18.209 -1.7797 -0.3915  0.5296
 4096TIP3   OH236482   0.425   7.148  18.882 -0.0010  0.0468  0.0209
 4096TIP3    H136483   0.389   7.234  18.904  1.6716  0.3532  1.8578
 4096TIP3    H236484   0.413   7.140  18.787 -2.3294  1.2482  0.1474
 4097TIP3   OH236485   0.189   4.736  16.905 -0.0772 -0.2263  1.0258
 4097TIP3    H136486   0.155   4.726  16.816  0.6211  0.6943  0.6333
 4097TIP3    H236487   0.121   4.699  16.961  1.0116 -4.3160 -0.0111
 4098TIP3   OH236488   3.622   1.481  16.682  0.5787  0.3450 -0.0966
 4098TIP3    H136489   3.687   1.412  16.668 -0.2065 -0.1976 -1.2305
 4098TIP3    H236490   3.546   1.436  16.719  0.4108  0.7709  0.0889
 4099TIP3   OH236491   2.004   7.057  18.197  0.0489 -0.2254  0.0752
 4099TIP3    H136492   1.946   7.124  18.161  0.5695 -0.1970 -0.7292
 4099TIP3    H236493   1.945   6.990  18.233 -0.4738  0.3426  0.3044
 4100TIP3   OH236494   0.479   1.477  19.275  0.3772  0.4495 -0.3042
 4100TIP3    H136495   0.483   1.434  19.190 -1.5209  0.2769 -0.3503
 4100TIP3    H236496   0.505   1.409  19.337  2.6564  0.8249 -0.7559
 4101TIP3   OH236497   0.544   1.374  19.018 -0.0884 -0.1724 -0.5155
 4101TIP3    H136498   0.595   1.446  18.980  2.0383 -2.5560 -2.5221
 4101TIP3    H236499   0.478   1.354  18.952 -0.0617 -0.6860 -0.3874
 4102TIP3   OH236500   7.115   5.964  19.726 -0.0503  0.1834 -0.1419
 4102TIP3    H136501   7.138   6.012  19.806  1.0764 -0.7742  0.1466
 4102TIP3    H236502   7.184   5.898  19.717 -1.5431 -1.4223 -0.4793
 4103TIP3   OH236503   4.176   7.583  18.179 -0.1679  0.2426 -0.5574
 4103TIP3    H136504   4.123   7.506  18.159 -1.0893  0.8165 -0.4415
 4103TIP3    H236505   4.111   7.653  18.190  0.6529  1.0774 -0.8818
 4104TIP3   OH236506   4.821   2.007  18.350  0.3547 -0.3659  0.4806
 4104TIP3    H136507   4.833   2.025  18.257  1.1208  1.5577  0.9132
 4104TIP3    H236508   4.826   2.092  18.392 -0.5853 -1.1267  2.2500
 4105TIP3   OH236509   1.999   5.469  19.456  0.2702  0.8957 -0.1038
 4105TIP3    H136510   2.067   5.518  19.503  0.9990  0.4540 -0.6684
 4105TIP3    H236511   1.982   5.521  19.377 -0.0128  0.9850  0.0169
 4106TIP3   OH236512   3.263   6.193  19.156  0.7782  0.3224  0.0588
 4106TIP3    H136513   3.213   6.143  19.220  0.5280  0.7329  0.1860
 4106TIP3    H236514   3.350   6.153  19.157  1.0220  0.8665  1.2668
 4107TIP3   OH236515   4.983   7.316  17.877 -0.2901  0.3637 -0.0242
 4107TIP3    H136516   5.011   7.341  17.965 -1.6947 -1.2091  0.9326
 4107TIP3    H236517   5.018   7.228  17.865 -1.6476 -0.1522 -0.2917
 4108TIP3   OH236518   4.629   2.382  19.546  0.3385  0.2639  0.0602
 4108TIP3    H136519   4.591   2.349  19.628 -0.0639  1.3598  0.3405
 4108TIP3    H236520   4.644   2.304  19.493  0.1998 -0.4285  1.0148
 4109TIP3   OH236521   5.627   6.217  17.804 -0.1932 -0.6045 -0.0784
 4109TIP3    H136522   5.691   6.187  17.740 -0.3058  1.2851 -1.1603
 4109TIP3    H236523   5.548   6.167  17.786 -0.1423 -0.2843 -1.2868
 4110TIP3   OH236524   4.011   4.869  18.106 -0.4420 -0.0169  0.0112
 4110TIP3    H136525   4.015   4.960  18.134 -1.5945 -0.8662  3.3030
 4110TIP3    H236526   4.103   4.841  18.103 -0.0017  1.3670 -1.8787
 4111TIP3   OH236527   7.097   4.523  17.270  0.6210  0.2367  0.7032
 4111TIP3    H136528   7.009   4.544  17.236  0.2062  2.0281  2.6741
 4111TIP3    H236529   7.138   4.473  17.199 -1.3092  0.9594 -1.0553
 4112TIP3   OH236530   7.009   1.250  18.443 -0.0638  0.6128  0.0393
 4112TIP3    H136531   7.005   1.179  18.507 -2.6814  1.4569  0.9252
 4112TIP3    H236532   6.935   1.235  18.385  0.9398  1.1588 -1.4432
 4113TIP3   OH236533   0.132   5.274  19.592  0.0016 -0.7204 -0.2310
 4113TIP3    H136534   0.119   5.354  19.542 -1.1868 -0.1981  0.8614
 4113TIP3    H236535   0.043   5.240  19.607  0.3687 -1.2583  0.8637
 4114TIP3   OH236536   3.879   1.670  19.433  0.1175 -0.1767 -0.2565
 4114TIP3    H136537   3.791   1.701  19.456  0.1285  0.3679 -0.9039
 4114TIP3    H236538   3.881   1.580  19.463 -0.2667  0.1530  0.8030
 4115TIP3   OH236539   0.320   6.104  19.259  0.0680 -0.1743  0.2477
 4115TIP3    H136540   0.297   6.012  19.263 -1.5533  0.2310  2.9521
 4115TIP3    H236541   0.416   6.105  19.257  0.0884 -1.8934 -0.6286
 4116TIP3   OH236542   5.771   4.620  19.903  0.3592 -0.6411 -0.2963
 4116TIP3    H136543   5.849   4.566  19.897 -0.8539 -2.8918  2.0026
 4116TIP3    H236544   5.799   4.707  19.875  3.3513 -1.6186 -0.6730
 4117TIP3   OH236545   3.683   7.618  18.053 -0.2130  0.2071  0.0416
 4117TIP3    H136546   3.672   7.547  17.989  0.5298 -0.0756  0.2154
 4117TIP3    H236547   3.619   7.684  18.027 -1.5885 -0.9253  0.4389
 4118TIP3   OH236548   1.259   3.460  19.236 -0.3331  0.4892  0.2134
 4118TIP3    H136549   1.198   3.392  19.264  1.1261 -0.5111  1.0744
 4118TIP3    H236550   1.214   3.504  19.164 -1.9766 -0.3316  0.6966
 4119TIP3   OH236551   0.873   4.546  19.458 -0.2501  0.1172 -0.6557
 4119TIP3    H136552   0.869   4.516  19.549 -0.3511  0.8731 -0.3971
 4119TIP3    H236553   0.902   4.637  19.465 -1.2302  0.4955 -1.3070
 4120TIP3   OH236554   0.789   3.666  16.863 -0.0763 -0.3608 -0.2273
 4120TIP3    H136555   0.773   3.618  16.945 -0.9092 -0.6972 -0.5747
 4120TIP3    H236556   0.748   3.612  16.796 -1.6425  1.1324 -0.5520
 4121TIP3   OH236557   7.608   1.130  18.438 -0.2934  0.7874 -0.2243
 4121TIP3    H136558   7.532   1.072  18.427  0.3376 -0.0168 -0.4093
 4121TIP3    H236559   7.571   1.211  18.474 -1.1281  0.1217  0.4642
 4122TIP3   OH236560   6.415   6.763  17.253 -0.3125 -0.1489  0.4344
 4122TIP3    H136561   6.367   6.691  17.211  1.8545 -0.7328 -1.2222
 4122TIP3    H236562   6.463   6.805  17.181 -0.3751  2.0530  1.6008
 4123TIP3   OH236563   5.244   2.106  19.218  0.4015  0.3820 -0.4875
 4123TIP3    H136564   5.215   2.068  19.135 -0.4441 -1.0489  0.4340
 4123TIP3    H236565   5.327   2.149  19.196  2.0373 -2.9273 -1.4155
 4124TIP3   OH236566   1.458   5.122  17.357  0.5064  0.0298  0.1393
 4124TIP3    H136567   1.441   5.029  17.342 -0.1904 -0.3439  2.7609
 4124TIP3    H236568   1.533   5.123  17.418 -1.0817  1.0035  2.2032
 4125TIP3   OH236569   5.593   1.636  17.008  0.1424  0.1342 -0.0180
 4125TIP3    H136570   5.580   1.703  16.941  0.8758  1.4735  1.1225
 4125TIP3    H236571   5.506   1.622  17.045 -0.3302 -0.8533 -1.4159
 4126TIP3   OH236572   0.612   3.885  19.089  0.1234 -0.0032  0.0879
 4126TIP3    H136573   0.554   3.933  19.148 -2.1971  0.2750 -2.2413
 4126TIP3    H236574   0.626   3.945  19.016  1.5048 -0.9715 -0.4822
 4127TIP3   OH236575   0.834   7.193  18.484  0.0184 -0.4764  0.3670
 4127TIP3    H136576   0.900   7.164  18.421 -0.9530 -2.2860  0.1207
 4127TIP3    H236577   0.785   7.261  18.437  0.8865 -0.0050  0.1142
 4128TIP3   OH236578   6.865   0.336  18.809  0.0537  0.2787 -0.4459
 4128TIP3    H136579   6.872   0.297  18.721  2.2248  1.0125 -0.6469
 4128TIP3    H236580   6.952   0.325  18.847 -0.1812  2.0793  0.7036
 4129TIP3   OH236581   2.971   7.596  17.220 -0.0709  0.5178  0.0935
 4129TIP3    H136582   3.003   7.685  17.233 -2.1532  1.1369  1.3219
 4129TIP3    H236583   2.891   7.606  17.168 -1.4783 -0.3949  1.9699
 4130TIP3   OH236584   2.964   1.578  18.037 -0.8017 -0.0228  0.6814
 4130TIP3    H136585   3.031   1.514  18.061 -0.7169 -0.6106 -0.9935
 4130TIP3    H236586   3.011   1.661  18.031 -0.6543 -0.0331  1.5877
 4131TIP3   OH236587   0.422   0.427  18.098 -0.0120 -0.2844 -0.0983
 4131TIP3    H136588   0.456   0.485  18.030 -1.4618  1.1533  0.3316
 4131TIP3    H236589   0.485   0.355  18.102  1.9437  1.3037 -0.5874
 4132TIP3   OH236590   2.920   7.204  17.550  0.0940  0.3118 -0.0298
 4132TIP3    H136591   2.960   7.261  17.485  0.2204  0.6434  0.3306
 4132TIP3    H236592   2.831   7.236  17.559 -0.1135 -0.1205 -0.4804
 4133TIP3   OH236593   6.285   3.882  18.130  0.5382 -0.0704 -0.0126
 4133TIP3    H136594   6.380   3.871  18.138  0.7773  1.7530  0.2098
 4133TIP3    H236595   6.248   3.825  18.197  1.6225  0.9820  1.5577
 4134TIP3   OH236596   4.968   1.670  17.590  0.9256 -0.4490  0.1278
 4134TIP3    H136597   4.883   1.661  17.547  1.4175  1.5313 -1.4283
 4134TIP3    H236598   5.024   1.604  17.548  1.0702  0.6449 -1.4875
 4135TIP3   OH236599   3.068   3.968  16.780  0.3256  0.3863 -0.0002
 4135TIP3    H136600   3.145   3.966  16.723  1.4171  0.5333  1.4149
 4135TIP3    H236601   3.035   3.879  16.779  2.0116 -0.2994  1.3018
 4136TIP3   OH236602   4.007   3.449  18.827 -0.5000  0.7379  0.3818
 4136TIP3    H136603   4.096   3.417  18.839 -0.6096  0.4207  0.3567
 4136TIP3    H236604   4.015   3.521  18.764 -0.3756  0.1516 -0.2749
 4137TIP3   OH236605   5.214   3.100  17.437 -0.2143  0.1137  0.1363
 4137TIP3    H136606   5.207   3.111  17.343 -1.0755 -0.4789  0.1198
 4137TIP3    H236607   5.159   3.024  17.457 -0.4809  0.5566  1.1803
 4138TIP3   OH236608   5.771   6.959  18.564 -0.0566  0.1643 -0.3736
 4138TIP3    H136609   5.810   6.953  18.477  0.3725  0.2129 -0.1871
 4138TIP3    H236610   5.706   7.029  18.556 -0.8283 -0.5940 -0.9523
 4139TIP3   OH236611   0.009   4.313  17.125  0.3332 -0.2016 -0.0282
 4139TIP3    H136612  -0.016   4.221  17.130  0.4510 -0.2715 -0.6269
 4139TIP3    H236613   0.036   4.325  17.034  1.1014  0.2245  0.2539
 4140TIP3   OH236614   5.105   4.929  17.506 -0.0785  0.3573  0.4086
 4140TIP3    H136615   5.052   4.876  17.565  1.5799 -0.5128  1.1496
 4140TIP3    H236616   5.195   4.899  17.519  0.4890  0.9594 -1.6928
 4141TIP3   OH236617   5.669   3.698  18.840  0.4107  0.0254 -0.1537
 4141TIP3    H136618   5.743   3.642  18.865  0.3368 -1.2651 -2.5336
 4141TIP3    H236619   5.604   3.684  18.908  1.8742  0.2865  1.3791
 4142TIP3   OH236620   1.192   0.041  17.177  0.5346  0.1825  0.3736
 4142TIP3    H136621   1.255   0.071  17.112 -0.4118  2.6094  0.4694
 4142TIP3    H236622   1.107   0.070  17.143 -0.5563 -2.6964  0.4160
 4143TIP3   OH236623   1.740   2.043  17.431  0.1236 -0.1471 -0.1809
 4143TIP3    H136624   1.690   1.985  17.374  0.6865 -1.6308  0.7892
 4143TIP3    H236625   1.831   2.030  17.405  0.1344  2.2043 -1.6285
 4144TIP3   OH236626   1.998   2.322  18.057 -0.2434  0.1641  0.3787
 4144TIP3    H136627   2.003   2.406  18.011  1.6614  0.3931  0.9258
 4144TIP3    H236628   1.917   2.327  18.107 -0.2551  1.6065  0.2552
 4145TIP3   OH236629   5.019   0.478  17.925 -0.5472  0.0201  0.2869
 4145TIP3    H136630   5.037   0.521  17.841 -0.2893  0.1232  0.3941
 4145TIP3    H236631   4.949   0.531  17.964 -0.4473  0.1587  0.2790
 4146TIP3   OH236632   6.919   6.597  18.907  0.0363 -0.0863  0.4857
 4146TIP3    H136633   6.856   6.579  18.977  0.2015 -1.0417  0.3931
 4146TIP3    H236634   6.905   6.690  18.887 -0.1176  0.1709  1.6765
 4147TIP3   OH236635   4.796   2.486  17.796 -0.2566 -0.4614  0.0587
 4147TIP3    H136636   4.789   2.552  17.727 -0.3770 -0.7990 -0.2544
 4147TIP3    H236637   4.719   2.502  17.852 -0.5221 -0.6152 -0.2615
 4148TIP3   OH236638   3.849   4.241  18.511  0.7289  0.0296  0.5606
 4148TIP3    H136639   3.774   4.291  18.545  0.2817 -0.4405  0.2836
 4148TIP3    H236640   3.871   4.285  18.428  1.1163  0.5056  0.9129
 4149TIP3   OH236641   6.680   4.492  17.494  0.1081 -0.1126 -0.4052
 4149TIP3    H136642   6.712   4.576  17.459  0.1964 -0.4830 -1.2377
 4149TIP3    H236643   6.585   4.502  17.494  0.0916 -0.2343 -1.0882
 4150TIP3   OH236644   7.080   6.945  19.723 -0.1755 -0.1712 -0.0322
 4150TIP3    H136645   7.068   7.023  19.668  0.5803 -0.1777 -0.2108
 4150TIP3    H236646   7.170   6.951  19.754 -0.4450 -0.4325  0.8139
 4151TIP3   OH236647   7.161   5.576  19.204 -0.1846  0.2569 -0.0613
 4151TIP3    H136648   7.201   5.628  19.273  1.9585  2.1189 -2.5092
 4151TIP3    H236649   7.096   5.634  19.165 -0.8461 -0.4974 -0.0968
 4152TIP3   OH236650   4.298   2.476  16.845  0.3728  0.4245  0.2256
 4152TIP3    H136651   4.302   2.566  16.879  0.6368  0.3540  0.3830
 4152TIP3    H236652   4.356   2.477  16.769 -0.9305  0.8272 -0.8196
 4153TIP3   OH236653   2.941   4.069  18.462  0.0212 -0.1671 -0.4590
 4153TIP3    H136654   3.006   4.137  18.446 -1.6956  1.4726 -0.8388
 4153TIP3    H236655   2.939   4.018  18.381  1.3621 -0.7203 -0.1527
 4154TIP3   OH236656   6.625   4.625  18.937 -0.4374  0.7447 -0.4489
 4154TIP3    H136657   6.538   4.636  18.899 -1.4524  0.4772  1.6533
 4154TIP3    H236658   6.608   4.600  19.028  1.8503  1.0127  0.1052
 4155TIP3   OH236659   3.735   5.288  19.011 -0.0616  0.3648 -0.1062
 4155TIP3    H136660   3.813   5.251  18.968  0.2274  1.8653 -0.9845
 4155TIP3    H236661   3.663   5.265  18.953 -0.0429  0.2411 -0.0786
 4156TIP3   OH236662   2.816   7.520  18.123  0.1389 -0.2292  0.1455
 4156TIP3    H136663   2.874   7.596  18.135 -0.1032  0.1985 -1.2524
 4156TIP3    H236664   2.761   7.520  18.201 -1.2632  2.2986 -0.7520
 4157TIP3   OH236665   2.122   3.989  16.834 -0.3626  0.0753  0.0221
 4157TIP3    H136666   2.217   3.975  16.825 -0.4655  0.3760 -1.6982
 4157TIP3    H236667   2.091   3.908  16.874  0.7296  0.3509  1.5357
 4158TIP3   OH236668   5.991   6.576  18.188 -0.4333 -0.4307  0.2952
 4158TIP3    H136669   6.055   6.640  18.219 -0.3751  0.2295 -1.1546
 4158TIP3    H236670   6.039   6.523  18.125 -1.0926 -0.4625 -0.1825
 4159TIP3   OH236671   2.281   4.428  16.724 -0.7792 -0.1511 -0.5673
 4159TIP3    H136672   2.233   4.354  16.687 -1.4130  0.9740 -2.0883
 4159TIP3    H236673   2.223   4.503  16.714  1.5281  1.5109 -3.4976
 4160TIP3   OH236674   0.581   2.069  17.549 -0.0678 -0.3953  0.4357
 4160TIP3    H136675   0.524   2.099  17.620 -0.8033 -0.9270  0.0802
 4160TIP3    H236676   0.640   2.006  17.591  1.0061  0.9702  1.0298
 4161TIP3   OH236677   2.267   0.483  17.061  0.2627 -0.2629 -0.3952
 4161TIP3    H136678   2.205   0.500  17.132 -0.0283  1.2563 -0.9768
 4161TIP3    H236679   2.217   0.498  16.981  0.9926 -0.4382 -0.8947
 4162TIP3   OH236680   7.140   1.203  17.407  0.5384 -0.1119 -0.0397
 4162TIP3    H136681   7.064   1.243  17.366  0.0420  0.2753  1.2019
 4162TIP3    H236682   7.211   1.266  17.394 -0.1081  0.9731  1.4293
 4163TIP3   OH236683   1.558   1.171  18.897 -0.7757  0.4868 -0.1197
 4163TIP3    H136684   1.580   1.172  18.990  2.3977  2.5948 -0.7339
 4163TIP3    H236685   1.482   1.229  18.890 -1.7759 -0.5844  1.2300
 4164TIP3   OH236686   2.642   5.929  19.195 -0.4044 -0.4497  0.5288
 4164TIP3    H136687   2.597   5.863  19.142 -0.3308 -2.2217  2.5444
 4164TIP3    H236688   2.722   5.886  19.224 -0.0129  0.7868  1.3636
 4165TIP3   OH236689   2.884   0.639  17.360 -0.0179 -0.3094  0.1519
 4165TIP3    H136690   2.873   0.734  17.353 -0.6162 -0.4334 -0.8499
 4165TIP3    H236691   2.976   0.623  17.338  0.6834  0.2006  2.4473
 4166TIP3   OH236692   0.562   3.835  16.302 -0.3316 -0.0629  0.0834
 4166TIP3    H136693   0.473   3.818  16.270 -0.6943  0.8682  0.5615
 4166TIP3    H236694   0.618   3.819  16.226 -1.1032  1.3098 -0.8205
 4167TIP3   OH236695   2.080   3.278  18.063  0.3119  0.5757 -0.1384
 4167TIP3    H136696   2.171   3.283  18.033 -0.0060  1.2521 -1.0495
 4167TIP3    H236697   2.046   3.199  18.021  0.6790 -0.1160  0.8259
 4168TIP3   OH236698   0.001   1.728  19.017  0.6226 -0.2788  0.2003
 4168TIP3    H136699  -0.033   1.800  18.965  1.9167  1.2317  1.3361
 4168TIP3    H236700   0.017   1.767  19.103  1.7430 -1.8328  0.7323
 4169TIP3   OH236701   0.233   6.219  18.955 -0.2821  0.2766 -0.1584
 4169TIP3    H136702   0.152   6.265  18.934 -0.0786  0.9932  0.6050
 4169TIP3    H236703   0.240   6.223  19.050  0.8976  0.6748 -0.2399
 4170TIP3   OH236704   1.091   6.013  18.975  0.2103  0.2978  0.3392
 4170TIP3    H136705   1.093   6.104  19.004  0.7171 -0.2197  2.0193
 4170TIP3    H236706   1.170   5.974  19.013 -0.4918 -1.0733  0.4357
 4171TIP3   OH236707   6.604   3.074  17.660  0.7163  0.2267 -0.1268
 4171TIP3    H136708   6.583   2.984  17.688 -0.3240  0.5258  0.1136
 4171TIP3    H236709   6.663   3.062  17.586 -0.9180 -0.7494 -1.3658
 4172TIP3   OH236710   4.108   4.513  17.592 -0.1446  0.2443  0.2514
 4172TIP3    H136711   4.018   4.540  17.610 -0.6320  0.0922 -1.6951
 4172TIP3    H236712   4.158   4.594  17.598 -0.7755  0.7235 -0.6664
 4173TIP3   OH236713   0.673   3.151  19.386  0.4412  0.0668  0.4841
 4173TIP3    H136714   0.592   3.151  19.334  0.5216 -0.5532  0.3524
 4173TIP3    H236715   0.687   3.243  19.408  0.6216  0.3952 -0.9106
 4174TIP3   OH236716   0.317   7.373  18.937  0.0429 -0.3598  0.0943
 4174TIP3    H136717   0.226   7.360  18.965 -1.6970  0.8816 -4.2039
 4174TIP3    H236718   0.339   7.461  18.968 -1.4627  0.6124 -1.4343
 4175TIP3   OH236719   1.459   6.141  18.052 -0.2369 -0.2151  0.3386
 4175TIP3    H136720   1.517   6.070  18.027  0.4578  0.4414  0.0555
 4175TIP3    H236721   1.373   6.115  18.018  0.1167 -0.6701 -0.2081
 4176TIP3   OH236722   1.938   4.303  18.742  0.6056  0.1590  0.2314
 4176TIP3    H136723   1.858   4.297  18.690 -1.2817  2.0865  2.6474
 4176TIP3    H236724   1.987   4.224  18.720 -2.6316 -1.8897 -0.2802
 4177TIP3   OH236725   6.082   4.039  18.252  0.5029 -0.0790  0.6013
 4177TIP3    H136726   5.989   4.035  18.230 -0.4232 -0.1930  4.0251
 4177TIP3    H236727   6.126   4.000  18.176 -2.1052  0.6682 -1.4593
 4178TIP3   OH236728   3.654   4.412  18.585 -0.1831  1.0016 -0.2175
 4178TIP3    H136729   3.652   4.389  18.678  0.1871  1.2929 -0.1358
 4178TIP3    H236730   3.570   4.380  18.551  1.0798 -2.3366 -0.5690
 4179TIP3   OH236731   2.745   3.484  17.339 -0.8379  0.0966  0.4985
 4179TIP3    H136732   2.832   3.523  17.326 -0.6259 -0.5785 -0.1446
 4179TIP3    H236733   2.760   3.416  17.406 -0.7234 -0.4856 -0.1085
 4180TIP3   OH236734   6.560   0.843  17.658 -0.3484  0.5872  0.0698
 4180TIP3    H136735   6.486   0.815  17.605  0.1957  0.7094 -0.7632
 4180TIP3    H236736   6.556   0.788  17.737 -2.2035  1.6350  0.7548
 4181TIP3   OH236737   3.022   0.612  17.050  0.2604  0.2121 -0.0320
 4181TIP3    H136738   3.084   0.555  17.004  1.3789  2.0393 -0.9101
 4181TIP3    H236739   2.985   0.667  16.981  0.5636  1.7364  0.9804
 4182TIP3   OH236740   4.009   3.578  18.459  0.1122 -0.0785 -0.4852
 4182TIP3    H136741   4.076   3.630  18.503 -1.6927  1.2274  0.8850
 4182TIP3    H236742   3.968   3.639  18.398  0.1389 -0.8644 -1.3150
 4183TIP3   OH236743   4.522   1.824  18.319  0.5689  0.8018  0.1367
 4183TIP3    H136744   4.546   1.868  18.237  0.0691 -0.5124 -0.7434
 4183TIP3    H236745   4.532   1.731  18.300  0.5429  0.4757  1.6190
 4184TIP3   OH236746   0.967   6.000  17.389  0.4178  0.2386 -0.6221
 4184TIP3    H136747   0.963   5.967  17.299 -1.1557 -2.6639  0.4048
 4184TIP3    H236748   0.924   6.085  17.384 -0.4439 -0.2448 -2.4721
 4185TIP3   OH236749   4.790   2.066  19.531 -0.1758 -0.1794 -0.3564
 4185TIP3    H136750   4.769   2.131  19.464  0.0835 -0.2375 -0.4941
 4185TIP3    H236751   4.884   2.054  19.524 -0.2068 -0.4860 -0.2523
 4186TIP3   OH236752   5.703   7.543  17.559 -0.1205 -0.0862 -0.3941
 4186TIP3    H136753   5.776   7.580  17.509  0.4601  2.0492  1.8072
 4186TIP3    H236754   5.626   7.558  17.504  0.8737 -0.9267 -2.0721
 4187TIP3   OH236755   7.187   5.323  18.771  0.5149  0.2410  0.0070
 4187TIP3    H136756   7.194   5.412  18.736  0.6792 -0.7397 -2.6979
 4187TIP3    H236757   7.274   5.303  18.804  1.2748  0.1889 -1.8855
 4188TIP3   OH236758   7.239   3.897  19.202 -0.3749 -0.2556  0.1016
 4188TIP3    H136759   7.190   3.943  19.271  0.8317 -3.4030  3.4181
 4188TIP3    H236760   7.173   3.844  19.157 -1.1072  1.4473 -0.9046
 4189TIP3   OH236761   2.216   4.272  19.184  0.2492 -0.1539  0.3610
 4189TIP3    H136762   2.203   4.340  19.249  0.2888  0.6221 -0.4277
 4189TIP3    H236763   2.284   4.215  19.221  1.5401  1.2595  0.2404
 4190TIP3   OH236764   0.359   1.065  18.464  0.3983 -0.2344 -0.3947
 4190TIP3    H136765   0.437   1.022  18.430  0.6421 -0.4642  0.4386
 4190TIP3    H236766   0.383   1.157  18.472  0.8950 -0.4543  0.7324
 4191TIP3   OH236767   3.358   4.873  17.614  0.0828 -0.1475  0.0299
 4191TIP3    H136768   3.290   4.899  17.552 -0.9216  1.2882  1.6561
 4191TIP3    H236769   3.436   4.863  17.560 -1.0666 -0.3998 -1.6694
 4192TIP3   OH236770   1.817   1.310  17.158 -0.0755 -0.3167  0.1701
 4192TIP3    H136771   1.793   1.338  17.069  0.0500  0.5630  0.3994
 4192TIP3    H236772   1.745   1.342  17.213 -0.0396 -0.6554  0.4174
 4193TIP3   OH236773   4.632   7.078  19.609  0.0345 -0.5833  0.0828
 4193TIP3    H136774   4.655   7.078  19.702 -1.1274 -1.8460  0.3986
 4193TIP3    H236775   4.673   6.998  19.574  0.1672 -0.3021 -0.4123
 4194TIP3   OH236776   2.158   2.959  19.298  0.1013  0.7543 -0.2217
 4194TIP3    H136777   2.167   3.049  19.329  1.5518  0.1951  1.1263
 4194TIP3    H236778   2.231   2.912  19.339 -1.0384 -1.1992 -0.2950
 4195TIP3   OH236779   5.894   1.590  16.970  1.0031  0.1367  0.3133
 4195TIP3    H136780   5.805   1.625  16.962  1.6253  1.4473 -1.7183
 4195TIP3    H236781   5.946   1.664  17.002  1.9109  0.4718 -1.7488
 4196TIP3   OH236782   1.680   1.488  16.703 -0.2250  0.0465 -0.7684
 4196TIP3    H136783   1.634   1.519  16.625 -0.2648  1.7769 -0.0987
 4196TIP3    H236784   1.611   1.478  16.769 -0.1180 -0.8773 -0.7877
 4197TIP3   OH236785   7.142   6.780  17.149  0.2394 -0.5574  0.0796
 4197TIP3    H136786   7.185   6.861  17.120  0.6867 -1.1249 -0.9067
 4197TIP3    H236787   7.200   6.710  17.119 -0.7694 -1.2991 -0.2108
 4198TIP3   OH236788   3.586   6.314  18.321 -0.1840 -0.0693  0.1979
 4198TIP3    H136789   3.513   6.347  18.268  2.2257  0.6031 -2.9751
 4198TIP3    H236790   3.659   6.372  18.301  2.0066 -2.3768  0.9758
 4199TIP3   OH236791   3.854   4.451  18.322 -0.1565 -0.1407 -0.1942
 4199TIP3    H136792   3.819   4.495  18.399  0.5937 -1.0063  0.6645
 4199TIP3    H236793   3.778   4.437  18.266 -1.0031 -0.8843  1.0871
 4200TIP3   OH236794   0.797   3.664  18.188 -0.5496 -0.2725  0.3716
 4200TIP3    H136795   0.820   3.625  18.103 -1.6616  0.2960 -0.2294
 4200TIP3    H236796   0.840   3.609  18.253 -0.3902 -1.2581 -0.5360
 4201TIP3   OH236797   2.593   0.498  17.856 -0.1059  0.1993  0.1021
 4201TIP3    H136798   2.633   0.583  17.838  1.6094 -0.8309 -1.2648
 4201TIP3    H236799   2.666   0.440  17.876 -1.1491 -1.1856  0.0871
 4202TIP3   OH236800   0.713   7.651  17.795  0.1393 -0.9851 -0.7325
 4202TIP3    H136801   0.685   7.700  17.873  1.6603  0.2814 -0.9237
 4202TIP3    H236802   0.668   7.695  17.722  0.5185 -0.6498 -0.7733
 4203TIP3   OH236803   3.401   3.037  18.004  0.3731 -0.1964 -0.3209
 4203TIP3    H136804   3.453   3.073  18.076 -0.3151  0.5035 -0.1622
 4203TIP3    H236805   3.337   3.105  17.984  0.3113 -0.5396 -1.3479
 4204TIP3   OH236806   5.030   0.576  18.330 -0.4720 -0.7182  0.6683
 4204TIP3    H136807   5.030   0.650  18.269 -2.0094 -0.8018  0.5289
 4204TIP3    H236808   4.976   0.509  18.286  0.9697 -1.9743  0.7402
 4205TIP3   OH236809   6.282   2.328  18.257 -0.4867 -0.0073  0.6625
 4205TIP3    H136810   6.245   2.256  18.307 -0.4248 -0.1021  0.5734
 4205TIP3    H236811   6.370   2.298  18.234 -0.8634 -0.3771 -0.3527
 4206TIP3   OH236812   2.580   1.266  18.147 -0.4476 -0.7529 -0.2354
 4206TIP3    H136813   2.573   1.358  18.173  3.2863  0.1363 -1.7482
 4206TIP3    H236814   2.535   1.218  18.217 -0.9279  2.1039  1.5887
 4207TIP3   OH236815   5.221   1.062  17.232  0.1673  0.0097  0.8186
 4207TIP3    H136816   5.188   0.996  17.171 -1.9821  2.7919 -1.3661
 4207TIP3    H236817   5.300   1.097  17.190 -1.5907  2.2797 -0.9085
 4208TIP3   OH236818   6.920   4.488  16.724  0.4238  0.1524 -0.0409
 4208TIP3    H136819   6.849   4.448  16.776 -0.4773 -1.6967 -2.5202
 4208TIP3    H236820   6.909   4.582  16.737 -1.2892 -0.1640  1.1370
 4209TIP3   OH236821   1.686   2.150  18.381 -0.4906  0.3589 -0.3089
 4209TIP3    H136822   1.678   2.178  18.290 -0.2185 -0.8404 -0.7328
 4209TIP3    H236823   1.693   2.231  18.431 -1.3205  1.0645 -1.2818
 4210TIP3   OH236824   6.543   6.874  19.655  0.5849  0.7912 -0.3093
 4210TIP3    H136825   6.525   6.781  19.643  0.7490  0.7735 -0.4154
 4210TIP3    H236826   6.638   6.879  19.668  0.5992  0.9612 -0.4704
 4211TIP3   OH236827   4.183   7.267  17.791  0.3351 -0.3906  0.6588
 4211TIP3    H136828   4.153   7.294  17.704 -0.4479 -0.6965  0.8333
 4211TIP3    H236829   4.278   7.284  17.789  0.5095 -1.3154 -0.6090
 4212TIP3   OH236830   6.153   4.280  18.368  0.1185 -0.1334 -0.0465
 4212TIP3    H136831   6.137   4.201  18.316 -0.0505  1.2843 -2.2635
 4212TIP3    H236832   6.248   4.287  18.373  0.1559 -1.3454  1.6268
 4213TIP3   OH236833   2.955   0.423  16.603 -0.0538 -0.2994  0.0790
 4213TIP3    H136834   2.869   0.448  16.637 -0.6240 -0.6903 -1.0216
 4213TIP3    H236835   2.951   0.327  16.595  0.5105 -0.3294  0.0944
 4214TIP3   OH236836   5.399   6.173  19.244 -0.2358  0.2985  0.3162
 4214TIP3    H136837   5.483   6.146  19.207 -0.8998  1.1786 -2.0064
 4214TIP3    H236838   5.422   6.234  19.314  1.0579 -0.0332  0.2135
 4215TIP3   OH236839   7.586   4.476  17.537  0.5541 -0.4171  0.3540
 4215TIP3    H136840   7.543   4.434  17.463  1.1273 -0.1907 -0.1203
 4215TIP3    H236841   7.585   4.411  17.607  0.1778 -0.7012  0.0832
 4216TIP3   OH236842   1.039   2.625  18.146 -0.1087 -0.2851 -0.8310
 4216TIP3    H136843   0.970   2.647  18.083 -0.0597 -1.3402 -1.2824
 4216TIP3    H236844   0.996   2.629  18.231  0.1632  2.5903 -0.7248
 4217TIP3   OH236845   1.764   6.161  17.827 -0.0574 -0.1094  0.0513
 4217TIP3    H136846   1.788   6.098  17.895 -0.3310  0.6475  0.8679
 4217TIP3    H236847   1.770   6.111  17.745 -0.1236 -1.1497  0.6583
 4218TIP3   OH236848   0.470   7.378  17.534  0.1606 -0.3962 -0.4800
 4218TIP3    H136849   0.477   7.324  17.455  0.7785  1.6880 -1.9473
 4218TIP3    H236850   0.560   7.404  17.553 -0.2284  1.1852 -0.6537
 4219TIP3   OH236851   5.339   6.113  19.526 -0.3054 -0.4517 -0.3082
 4219TIP3    H136852   5.284   6.071  19.592 -0.9927  1.6970  0.5814
 4219TIP3    H236853   5.285   6.113  19.446 -0.5086 -0.7746 -0.1721
 4220TIP3   OH236854   3.267   1.692  17.763  0.0019 -0.5240  0.3449
 4220TIP3    H136855   3.268   1.603  17.727  0.2425 -0.0253 -0.9108
 4220TIP3    H236856   3.243   1.748  17.689 -0.4381  0.4372  1.1859
 4221TIP3   OH236857   0.648   2.272  17.053  0.3724 -0.5818  0.5093
 4221TIP3    H136858   0.562   2.311  17.072  0.2261 -0.5088 -0.2958
 4221TIP3    H236859   0.629   2.182  17.027  0.3915 -0.1439 -1.1250
 4222TIP3   OH236860   1.196   6.853  18.825  0.2587  1.1155  0.7636
 4222TIP3    H136861   1.246   6.835  18.746 -0.1838 -4.0942  1.3345
 4222TIP3    H236862   1.132   6.919  18.799  2.3613  2.2108 -2.1094
 4223TIP3   OH236863   5.608   4.470  18.324  0.2513  0.0599  0.1783
 4223TIP3    H136864   5.556   4.408  18.273  0.6488 -0.3942  0.3165
 4223TIP3    H236865   5.620   4.427  18.409 -1.7713  1.4815  1.2637
 4224TIP3   OH236866   5.643   4.066  19.730 -0.1049 -0.3045  0.3620
 4224TIP3    H136867   5.673   4.041  19.818 -0.6239  1.3050  1.0382
 4224TIP3    H236868   5.720   4.059  19.675  0.6382  0.3046  1.3063
 4225TIP3   OH236869   5.001   2.200  16.478  0.2542  1.0429 -0.0127
 4225TIP3    H136870   4.984   2.292  16.460  2.0175  0.9164 -3.0261
 4225TIP3    H236871   5.097   2.193  16.480  0.2288 -0.9969 -2.0177
 4226TIP3   OH236872   0.685   3.320  18.360 -0.0263  0.0132  0.1324
 4226TIP3    H136873   0.735   3.278  18.430 -0.3729 -0.9037 -0.1617
 4226TIP3    H236874   0.593   3.301  18.380 -0.2257  1.0100  0.2304
 4227TIP3   OH236875   7.343   6.178  19.552  0.3429 -0.0425 -0.5633
 4227TIP3    H136876   7.359   6.244  19.619  0.3582  0.7178 -1.2944
 4227TIP3    H236877   7.265   6.208  19.507 -0.0202 -0.8673 -0.5034
 4228TIP3   OH236878   6.276   4.804  17.096 -0.2869 -0.5316 -0.2289
 4228TIP3    H136879   6.214   4.814  17.168  0.6144 -2.3746  0.8809
 4228TIP3    H236880   6.234   4.742  17.036 -1.3488  1.5249 -1.7572
 4229TIP3   OH236881   6.301   2.512  16.755  0.6008  0.2636  0.4238
 4229TIP3    H136882   6.211   2.526  16.783  0.7637  0.4307  0.8775
 4229TIP3    H236883   6.354   2.540  16.829  1.0185 -0.1624  0.2965
 4230TIP3   OH236884   1.335   6.867  18.589  0.0405 -0.8138  0.0439
 4230TIP3    H136885   1.291   6.843  18.508  0.4341 -0.9116 -0.1435
 4230TIP3    H236886   1.427   6.844  18.575  0.3932  0.5584 -0.0527
 4231TIP3   OH236887   0.418   2.129  17.322 -0.3262  0.3973  0.3421
 4231TIP3    H136888   0.350   2.066  17.343 -1.3677  1.5477  0.4954
 4231TIP3    H236889   0.479   2.123  17.396  0.4628 -1.5483 -0.4027
 4232TIP3   OH236890   1.978   2.029  19.190  0.3245 -0.0233 -0.3956
 4232TIP3    H136891   2.003   1.991  19.106  1.2993 -0.6943  0.1751
 4232TIP3    H236892   1.891   1.993  19.208  1.0478 -1.7103 -0.0719
 4233TIP3   OH236893   1.836   5.207  17.920  0.5473 -0.3960 -0.1316
 4233TIP3    H136894   1.748   5.173  17.937  0.7190 -0.1687  1.2910
 4233TIP3    H236895   1.832   5.298  17.946  0.8673 -0.0239 -1.3088
 4234TIP3   OH236896   0.023   4.653  18.865 -0.2251 -0.0273 -0.0917
 4234TIP3    H136897   0.097   4.592  18.877  0.9697  1.4293  0.2508
 4234TIP3    H236898   0.034   4.717  18.935 -2.2430 -0.1558  0.3755
 4235TIP3   OH236899   5.970   6.065  18.091 -0.4158 -0.2387 -0.0701
 4235TIP3    H136900   5.875   6.060  18.088 -0.3891 -3.0028  0.7843
 4235TIP3    H236901   5.991   6.082  18.183 -0.1063 -1.3770  0.0915
 4236TIP3   OH236902   0.640   3.675  19.330 -0.1458 -0.0128 -0.1272
 4236TIP3    H136903   0.618   3.720  19.412 -0.3666  1.0481 -0.7580
 4236TIP3    H236904   0.620   3.738  19.262 -1.6673 -1.5108 -1.1379
 4237TIP3   OH236905   5.896   0.006  17.400  0.4225  0.2854  0.1817
 4237TIP3    H136906   5.891   0.099  17.377  0.1346  0.7798  2.0833
 4237TIP3    H236907   5.990  -0.010  17.414  0.6173 -0.0569 -1.3417
 4238TIP3   OH236908   1.823   5.465  18.960 -0.6952 -1.0308  0.3117
 4238TIP3    H136909   1.887   5.523  18.919 -0.6046 -1.1008  0.3535
 4238TIP3    H236910   1.875   5.392  18.993 -0.7651 -0.9635  0.5702
 4239TIP3   OH236911   2.431   6.235  19.526 -0.3011  0.3161 -0.5019
 4239TIP3    H136912   2.421   6.140  19.519 -2.1356  0.5640 -1.9038
 4239TIP3    H236913   2.489   6.258  19.453  0.5369  0.2550  0.1250
 4240TIP3   OH236914   0.347   3.510  17.905  0.5991  0.4577 -0.4503
 4240TIP3    H136915   0.340   3.604  17.890  1.7619  0.3014 -2.1925
 4240TIP3    H236916   0.378   3.502  17.995  0.9401  1.7545 -0.4353
 4241TIP3   OH236917   3.794   0.974  17.639 -0.0760 -0.3921  0.3923
 4241TIP3    H136918   3.791   1.066  17.666 -2.4583 -0.5717  0.9377
 4241TIP3    H236919   3.755   0.927  17.712  0.5266 -1.7915 -0.1606
 4242TIP3   OH236920   4.885   6.209  19.456  0.3745  0.3030  0.0903
 4242TIP3    H136921   4.939   6.289  19.454  1.6457 -0.3117  3.2254
 4242TIP3    H236922   4.944   6.140  19.426  0.1610  0.1342  0.0634
 4243TIP3   OH236923   2.027   7.104  17.001 -0.5136 -0.3892  0.7705
 4243TIP3    H136924   2.038   7.074  17.092  0.4222  0.5189  0.9687
 4243TIP3    H236925   2.022   7.199  17.008 -1.3724 -0.3600 -0.0572
 4244TIP3   OH236926   4.184   4.141  16.898 -0.2322  0.0475 -0.4317
 4244TIP3    H136927   4.091   4.116  16.893 -0.5081  1.2168 -1.5914
 4244TIP3    H236928   4.184   4.224  16.947  0.5460 -1.4109  2.2460
 4245TIP3   OH236929   5.434   0.144  18.505 -0.5525 -0.2984 -0.1768
 4245TIP3    H136930   5.423   0.208  18.576 -1.3036  0.8097 -1.2536
 4245TIP3    H236931   5.365   0.166  18.443  2.2957  1.2377 -3.0672
 4246TIP3   OH236932   2.329   2.357  17.856  0.2809  0.1773 -0.4260
 4246TIP3    H136933   2.292   2.414  17.924 -0.4656 -0.1484 -0.5476
 4246TIP3    H236934   2.253   2.323  17.809  0.6574 -1.4569  0.0834
 4247TIP3   OH236935   1.408   7.316  17.739 -0.1456 -0.7005  0.0181
 4247TIP3    H136936   1.461   7.238  17.755  2.3008  0.7038 -0.7047
 4247TIP3    H236937   1.384   7.311  17.647 -0.5808 -0.9433  0.1441
 4248TIP3   OH236938   0.997   3.597  17.422  0.4912  0.2559  0.5737
 4248TIP3    H136939   1.044   3.519  17.393  0.1658 -0.0384  0.8335
 4248TIP3    H236940   1.020   3.607  17.514  0.9351  0.7663  0.4172
 4249TIP3   OH236941   1.535   3.095  17.323 -0.6134  0.3745 -0.1175
 4249TIP3    H136942   1.617   3.083  17.275  0.7384  2.5861  1.4877
 4249TIP3    H236943   1.550   3.051  17.407 -1.0556  0.8295  0.2037
 4250TIP3   OH236944   4.727   1.452  18.466 -0.1747  0.1434  0.5199
 4250TIP3    H136945   4.716   1.513  18.393 -0.8772  0.3303  0.7698
 4250TIP3    H236946   4.716   1.366  18.426  1.0769  0.1525  0.1187
 4251TIP3   OH236947   7.138   4.197  19.205 -0.5783 -0.1636  0.2320
 4251TIP3    H136948   7.043   4.182  19.209 -0.4320 -1.1995  0.0826
 4251TIP3    H236949   7.157   4.246  19.285 -1.3899  0.9775 -0.2517
 4252TIP3   OH236950   0.432   5.869  18.619  0.1771 -0.2496  0.3760
 4252TIP3    H136951   0.430   5.885  18.524  3.5290 -0.9782  0.0296
 4252TIP3    H236952   0.465   5.951  18.656  0.4615 -0.5058  0.6932
 4253TIP3   OH236953   1.981   3.726  17.286  0.2988  0.9269 -0.2116
 4253TIP3    H136954   2.060   3.717  17.339 -0.3314  1.0508  0.7793
 4253TIP3    H236955   1.909   3.704  17.345 -0.3309 -0.8359 -1.5449
 4254TIP3   OH236956   1.388   6.622  17.027  0.6392 -0.2915 -0.3969
 4254TIP3    H136957   1.350   6.563  16.961  1.1978 -1.5216  0.3290
 4254TIP3    H236958   1.476   6.588  17.040  0.4459 -0.2552  1.1703
 4255TIP3   OH236959   5.054   3.616  17.596 -0.1172 -0.5214 -0.3190
 4255TIP3    H136960   5.114   3.676  17.640 -2.3506 -0.3797  2.9081
 4255TIP3    H236961   5.058   3.641  17.503  1.7372  2.1485  0.3652
 4256TIP3   OH236962   2.560   4.069  16.635 -0.1126  0.1623  0.3623
 4256TIP3    H136963   2.650   4.065  16.666  0.3962  0.8851 -0.9493
 4256TIP3    H236964   2.522   3.985  16.662  1.5248 -1.0042 -0.7513
 4257TIP3   OH236965   6.676   5.108  18.692 -0.4201  0.4640  0.4292
 4257TIP3    H136966   6.740   5.123  18.623 -1.3186  1.0230 -0.3149
 4257TIP3    H236967   6.690   5.018  18.721  0.5651  0.5260  0.1550
 4258TIP3   OH236968   3.833   4.870  19.425 -0.0787 -0.1075  0.1207
 4258TIP3    H136969   3.783   4.911  19.495 -1.1065 -0.4542 -0.3954
 4258TIP3    H236970   3.884   4.941  19.386  1.0118 -0.0338  1.6303
 4259TIP3   OH236971   1.444   0.528  18.171 -0.3223  0.4370  0.0190
 4259TIP3    H136972   1.468   0.617  18.197  1.0569 -0.0708  0.5726
 4259TIP3    H236973   1.409   0.489  18.251 -1.4734  0.6466 -0.3687
 4260TIP3   OH236974   3.633   1.302  17.016 -0.1894  0.6130 -0.6207
 4260TIP3    H136975   3.675   1.263  16.939 -0.7116  1.5478 -1.4036
 4260TIP3    H236976   3.539   1.295  16.998 -0.3330  0.4670  0.1330
 4261TIP3   OH236977   1.850   3.134  17.409  0.3504  0.1856 -0.6372
 4261TIP3    H136978   1.848   3.067  17.477 -5.7783 -0.0052 -0.4526
 4261TIP3    H236979   1.851   3.085  17.326 -1.7577 -0.2081 -0.4945
 4262TIP3   OH236980   5.117   0.844  17.062 -0.0302 -0.1330 -0.7633
 4262TIP3    H136981   5.179   0.813  16.997 -0.1642  1.6493 -1.8063
 4262TIP3    H236982   5.084   0.765  17.104  1.1467 -1.2361 -1.8579
 4263TIP3   OH236983   6.290   5.911  19.121  0.2432  0.3860  0.0484
 4263TIP3    H136984   6.232   5.856  19.174 -0.4374  0.9057 -0.1338
 4263TIP3    H236985   6.284   5.997  19.163 -0.4577  0.8498 -0.9714
 4264TIP3   OH236986   0.479   2.893  16.554  0.0542  0.0317  0.2827
 4264TIP3    H136987   0.487   2.943  16.473 -1.7407 -0.3541 -0.1666
 4264TIP3    H236988   0.395   2.849  16.547  0.7796 -1.6545  1.4612
 4265TIP3   OH236989   6.420   6.063  18.084 -0.2555 -0.4915  0.1639
 4265TIP3    H136990   6.400   5.970  18.097 -1.3645 -0.3272 -0.2691
 4265TIP3    H236991   6.511   6.072  18.114 -0.9821 -1.1502  2.8579
 4266TIP3   OH236992   3.789   3.403  18.338  0.2872  0.1859  0.1077
 4266TIP3    H136993   3.814   3.331  18.281  1.2761  0.0062  0.7391
 4266TIP3    H236994   3.872   3.440  18.368 -0.1907  1.6338 -0.2511
 4267TIP3   OH236995   3.198   4.193  18.450  0.2731  0.3241  0.1025
 4267TIP3    H136996   3.266   4.141  18.407  0.9791  2.1308 -1.0726
 4267TIP3    H236997   3.182   4.148  18.533  2.6437 -0.3542  0.2443
 4268TIP3   OH236998   1.191   4.997  18.634 -0.3447 -0.3415  0.1357
 4268TIP3    H136999   1.210   4.906  18.656  0.9420 -0.2409 -0.4858
 4268TIP3    H237000   1.235   5.012  18.551 -1.8227  0.4285 -0.5550
 4269TIP3   OH237001   0.494   5.566  17.690 -0.4184  0.6904  0.0338
 4269TIP3    H137002   0.425   5.616  17.734 -0.7384 -0.9283  1.4916
 4269TIP3    H237003   0.535   5.516  17.761  1.5791  0.8265 -0.9650
 4270TIP3   OH237004   4.198   4.564  19.586 -0.0403 -0.0657  0.1776
 4270TIP3    H137005   4.168   4.478  19.560 -0.8419 -1.0317  3.7363
 4270TIP3    H237006   4.141   4.589  19.659  2.5952  1.7178  1.8157
 4271TIP3   OH237007   1.456   2.838  18.256  0.0330 -0.0450 -0.3393
 4271TIP3    H137008   1.447   2.821  18.162 -1.9167  0.9758 -0.3887
 4271TIP3    H237009   1.443   2.752  18.297  0.4336 -0.4173 -0.9690
 4272TIP3   OH237010   6.541   4.265  17.731 -0.1031 -0.4304 -0.3399
 4272TIP3    H137011   6.469   4.241  17.789 -1.0418 -0.4938 -1.5019
 4272TIP3    H237012   6.522   4.355  17.705  1.1806  0.1847  0.6891
 4273TIP3   OH237013   4.587   3.040  17.342 -0.1788 -0.2770  0.1518
 4273TIP3    H137014   4.495   3.020  17.360 -0.8853  1.0356 -1.7752
 4273TIP3    H237015   4.586   3.127  17.303  1.4993 -1.5072 -2.9619
 4274TIP3   OH237016   6.581   6.779  17.724 -0.4575  0.0402 -0.1404
 4274TIP3    H137017   6.648   6.714  17.702  0.7326  0.8015  1.0801
 4274TIP3    H237018   6.541   6.801  17.639  1.4559  0.2043 -1.0625
 4275TIP3   OH237019   5.672   4.414  18.003  0.0236 -0.8719 -0.0747
 4275TIP3    H137020   5.642   4.504  18.010 -3.8610 -2.0418  1.1508
 4275TIP3    H237021   5.728   4.401  18.080  1.8526  0.8082 -1.0671
 4276TIP3   OH237022   4.781   4.067  18.752 -0.1289 -0.0745 -0.1620
 4276TIP3    H137023   4.714   4.129  18.726 -0.9084  0.8061  3.4486
 4276TIP3    H237024   4.863   4.105  18.720 -0.9347  0.9325 -1.1030
 4277TIP3   OH237025   6.219   0.317  18.539  0.5868 -0.1753  0.9278
 4277TIP3    H137026   6.160   0.263  18.485  0.4435  1.2744 -0.4460
 4277TIP3    H237027   6.303   0.273  18.532  0.4988 -0.2007 -0.2665
 4278TIP3   OH237028   2.970   3.105  18.167 -0.6219 -0.2694  0.1402
 4278TIP3    H137029   3.046   3.109  18.226 -1.7598 -2.0443  1.8366
 4278TIP3    H237030   2.991   3.168  18.098  1.7392  0.3575  1.2994
 4279TIP3   OH237031   2.063   7.091  17.272  0.0806  0.3812  0.3786
 4279TIP3    H137032   2.033   7.182  17.274 -0.1334  0.3331 -0.3695
 4279TIP3    H237033   2.042   7.057  17.359 -1.4192  0.5470  0.1136
 4280TIP3   OH237034   1.546   3.505  16.821  0.5139  0.1022 -0.1860
 4280TIP3    H137035   1.566   3.598  16.806 -1.5461  0.4145 -1.3771
 4280TIP3    H237036   1.628   3.469  16.856  1.4130  2.3213  0.2208
 4281TIP3   OH237037   0.348   7.669  19.218  0.4822  0.0217 -0.0487
 4281TIP3    H137038   0.340   7.703  19.129 -0.6328  0.6365  0.2790
 4281TIP3    H237039   0.381   7.743  19.269  3.6355 -0.9949 -0.3649
 4282TIP3   OH237040   5.486   1.336  19.400 -0.3560  0.1313  0.3581
 4282TIP3    H137041   5.454   1.375  19.318  1.4991  1.6177  0.2830
 4282TIP3    H237042   5.440   1.252  19.405 -0.2393 -0.2141 -2.4431
 4283TIP3   OH237043   0.018   6.789  18.732 -0.3828 -0.1490  0.0334
 4283TIP3    H137044   0.069   6.711  18.710  0.6301  0.8408 -1.3031
 4283TIP3    H237045  -0.073   6.760  18.731 -0.0593 -1.1970 -1.0344
 4284TIP3   OH237046   3.961   1.997  17.940  0.2684 -0.0767 -0.0718
 4284TIP3    H137047   3.969   2.046  17.858 -0.2905 -2.3153 -1.5461
 4284TIP3    H237048   4.051   1.977  17.965  0.4156 -0.0193 -0.5432
 4285TIP3   OH237049   7.578   3.255  17.636 -0.2897 -0.0633 -0.1701
 4285TIP3    H137050   7.630   3.263  17.716 -2.0588  0.3346  1.0007
 4285TIP3    H237051   7.617   3.182  17.589  0.6881 -0.4272  1.1498
 4286TIP3   OH237052   5.819   6.735  17.056 -0.8338 -0.0747 -0.0003
 4286TIP3    H137053   5.838   6.825  17.032 -2.3863  0.4754  0.7054
 4286TIP3    H237054   5.876   6.716  17.130  1.3418 -0.5683 -1.7083
 4287TIP3   OH237055   1.414   5.740  18.907  0.2482 -0.1795  0.2138
 4287TIP3    H137056   1.378   5.789  18.981  1.4962  1.8630 -0.4700
 4287TIP3    H237057   1.505   5.722  18.932  0.8280  0.9472 -0.9684
 4288TIP3   OH237058   6.701   4.525  16.928  0.3316  0.0261  0.3736
 4288TIP3    H137059   6.707   4.621  16.931  0.6997  0.0256 -0.3234
 4288TIP3    H237060   6.608   4.508  16.914  0.2706  0.2830  0.4581
 4289TIP3   OH237061   0.324   0.434  17.795  0.7455 -0.0680  0.3747
 4289TIP3    H137062   0.338   0.514  17.846 -1.5379  0.2006  0.7116
 4289TIP3    H237063   0.370   0.366  17.843  1.3881  0.7654  0.9707
 4290TIP3   OH237064   4.708   3.100  16.701  0.7612  0.2364  0.4132
 4290TIP3    H137065   4.633   3.040  16.707  0.2773  0.8713  0.9199
 4290TIP3    H237066   4.762   3.077  16.776  1.1488 -0.3047 -0.0205
 4291TIP3   OH237067   2.697   1.615  17.567 -0.0427  0.6136 -0.0682
 4291TIP3    H137068   2.671   1.704  17.591 -2.3684 -0.2991  1.1801
 4291TIP3    H237069   2.778   1.600  17.616 -0.1189  1.7288  0.4396
 4292TIP3   OH237070   3.829   0.375  18.089  0.1924 -0.6731 -0.6188
 4292TIP3    H137071   3.886   0.451  18.101 -0.0970 -0.6955  1.0962
 4292TIP3    H237072   3.783   0.393  18.007 -0.9173  1.7328  0.4360
 4293TIP3   OH237073   1.893   7.288  18.460 -0.1666  0.0496  0.0727
 4293TIP3    H137074   1.865   7.356  18.521 -0.2476 -0.6860  0.8778
 4293TIP3    H237075   1.813   7.265  18.411  0.4252  2.4948 -2.2427
 4294TIP3   OH237076   2.159   2.946  17.790  0.0766  0.5981  0.3758
 4294TIP3    H137077   2.074   2.944  17.835  0.4533  0.2868  1.0946
 4294TIP3    H237078   2.209   3.011  17.838  0.5501  0.1256  0.5290
 4295TIP3   OH237079   4.843   3.101  17.818  0.0742 -0.1322  0.2152
 4295TIP3    H137080   4.758   3.094  17.773  0.6731 -0.6872 -0.8584
 4295TIP3    H237081   4.824   3.152  17.896 -0.9345  1.2209 -0.8665
 4296TIP3   OH237082   5.044   3.927  16.990  0.3096  0.2084  0.0300
 4296TIP3    H137083   5.114   3.950  17.050  1.1577  2.3998 -1.6885
 4296TIP3    H237084   5.086   3.871  16.925 -0.0952 -0.3414  0.2316
 4297TIP3   OH237085   3.791   3.102  17.872  0.3113 -0.1985  0.3783
 4297TIP3    H137086   3.747   3.017  17.861 -0.4461  0.4362 -2.2019
 4297TIP3    H237087   3.878   3.089  17.834  0.5572 -0.0811  0.8981
 4298TIP3   OH237088   3.226   5.200  18.852 -0.9160 -0.4138 -0.0018
 4298TIP3    H137089   3.232   5.189  18.947 -0.9133 -2.7559 -0.1992
 4298TIP3    H237090   3.140   5.166  18.829 -0.3169 -1.3876 -0.9567
 4299TIP3   OH237091   1.719   5.010  19.129  0.2911 -0.2841 -0.3292
 4299TIP3    H137092   1.690   5.086  19.178  0.6268  0.0459 -0.6396
 4299TIP3    H237093   1.641   4.954  19.124 -0.0596  0.2037 -0.4165
 4300TIP3   OH237094   5.507   6.424  18.643 -0.1366 -0.3625  0.3242
 4300TIP3    H137095   5.569   6.412  18.571 -2.2993 -1.6407 -1.4522
 4300TIP3    H237096   5.500   6.338  18.684 -0.6898 -0.2250  0.5291
 4301TIP3   OH237097   4.087   4.591  17.981 -0.5182  0.1454 -0.8397
 4301TIP3    H137098   4.076   4.650  18.056 -1.3299 -0.4282 -0.5004
 4301TIP3    H237099   4.177   4.560  17.989 -0.6379 -0.0228 -0.0105
 4302TIP3   OH237100   3.567   4.095  16.852  1.0929  0.1362  0.3476
 4302TIP3    H137101   3.485   4.090  16.803  0.6528  2.3398  0.7418
 4302TIP3    H237102   3.561   4.024  16.916 -0.2421 -0.1238 -0.0387
 4303TIP3   OH237103   0.811   3.096  17.121  0.7155  0.2945 -0.1317
 4303TIP3    H137104   0.876   3.088  17.052  0.7027  0.0113 -0.1119
 4303TIP3    H237105   0.798   3.006  17.153 -1.3564 -0.0225 -1.6751
 4304TIP3   OH237106   3.202   4.744  17.805 -0.5157  0.2338  0.2990
 4304TIP3    H137107   3.283   4.787  17.777 -0.6334  0.2156 -0.0853
 4304TIP3    H237108   3.150   4.737  17.724 -1.1722  0.8304  0.6519
 4305TIP3   OH237109   1.514   2.615  18.429  0.0560 -0.0167  0.3591
 4305TIP3    H137110   1.539   2.669  18.505  1.0044  0.3815 -0.2121
 4305TIP3    H237111   1.445   2.558  18.462 -0.7406  1.3032  1.0843
 4306TIP3   OH237112   4.302   4.112  17.431  0.4521  0.0456 -0.1749
 4306TIP3    H137113   4.312   4.042  17.366  1.4111 -1.5840  1.6292
 4306TIP3    H237114   4.372   4.097  17.494 -0.3256  1.6781  1.1708
 4307TIP3   OH237115   3.467   7.242  18.278  0.4198  0.2572 -0.2649
 4307TIP3    H137116   3.416   7.286  18.347  0.3491  0.2763 -0.3292
 4307TIP3    H237117   3.480   7.154  18.312 -0.5515 -0.0676 -0.6962
 4308TIP3   OH237118   5.919   0.579  19.550  0.5649  0.2969 -0.6477
 4308TIP3    H137119   5.907   0.489  19.519 -2.4029  0.7666 -1.2274
 4308TIP3    H237120   6.008   0.581  19.584  1.6178 -2.1609 -2.8721
 4309TIP3   OH237121   0.422   2.273  18.323 -0.0229 -0.5941  0.1579
 4309TIP3    H137122   0.486   2.344  18.330 -0.4810  0.0681 -1.6118
 4309TIP3    H237123   0.397   2.254  18.413  2.7723 -1.0204  0.9598
 4310TIP3   OH237124   0.793   5.341  18.469  0.3319 -0.1818  0.2685
 4310TIP3    H137125   0.857   5.412  18.478  1.3747 -0.8378 -1.5037
 4310TIP3    H237126   0.829   5.270  18.522  0.9915 -0.4782 -0.5590
 4311TIP3   OH237127   5.935   1.731  18.393 -0.4872 -0.3350  0.0241
 4311TIP3    H137128   5.997   1.776  18.450 -0.1328 -0.4726 -0.2522
 4311TIP3    H237129   5.857   1.787  18.395 -0.6377 -0.5590  0.9843
 4312TIP3   OH237130   1.697   5.680  16.635  0.2326 -0.3437 -0.5041
 4312TIP3    H137131   1.637   5.733  16.583  1.0968  0.4890 -0.6737
 4312TIP3    H237132   1.642   5.644  16.705 -0.3805  0.7884 -0.3727
 4313TIP3   OH237133   6.816   2.764  17.931 -0.1933 -0.2835 -0.4702
 4313TIP3    H137134   6.734   2.726  17.962  0.0102 -0.0994  0.3144
 4313TIP3    H237135   6.807   2.858  17.946  0.9156 -0.4315  1.5172
 4314TIP3   OH237136   5.914   3.169  18.249  0.0317 -0.1760 -0.7361
 4314TIP3    H137137   5.878   3.252  18.218  0.4068 -0.4961 -2.0945
 4314TIP3    H237138   5.845   3.132  18.305 -0.9829  0.1061 -1.7553
 4315TIP3   OH237139   5.067   2.016  18.966 -0.0618  0.8481 -0.4189
 4315TIP3    H137140   5.003   2.055  19.026 -2.5210 -1.2215 -1.5182
 4315TIP3    H237141   5.033   2.035  18.879 -0.0747 -1.5836 -1.0160
 4316TIP3   OH237142   2.586   3.518  17.121 -0.2686  0.0222 -0.6356
 4316TIP3    H137143   2.602   3.455  17.051  0.0820 -0.4330 -0.1592
 4316TIP3    H237144   2.649   3.493  17.189 -2.0970 -0.9679  0.7698
 4317TIP3   OH237145   0.584   5.528  18.405 -0.1054  0.3704  0.3317
 4317TIP3    H137146   0.618   5.444  18.435  1.1488  0.7897  0.1366
 4317TIP3    H237147   0.489   5.519  18.412 -0.0307 -1.2721 -0.2429
 4318TIP3   OH237148   5.530   3.087  17.414 -0.1682 -0.0427 -0.0782
 4318TIP3    H137149   5.468   3.090  17.486 -1.2921  1.0830 -1.0450
 4318TIP3    H237150   5.494   3.021  17.354  0.3560 -0.4343  0.0343
 4319TIP3   OH237151   3.806   4.994  18.853 -0.2983  0.2258 -0.3425
 4319TIP3    H137152   3.820   4.989  18.758  1.2073  0.5564 -0.1682
 4319TIP3    H237153   3.712   4.981  18.864 -0.3442 -0.9508 -1.7941
 4320TIP3   OH237154   5.660   2.331  17.846  0.4470  0.5839 -0.4297
 4320TIP3    H137155   5.674   2.419  17.880 -1.8354  0.8759 -0.1140
 4320TIP3    H237156   5.632   2.280  17.922 -1.7946  0.5120 -1.2359
 4321TIP3   OH237157   4.781   7.301  16.706 -0.2544 -0.1592 -0.0910
 4321TIP3    H137158   4.848   7.327  16.769 -0.6126  0.9260 -0.1220
 4321TIP3    H237159   4.799   7.356  16.629 -0.8356 -0.2570 -0.3007
 4322TIP3   OH237160   1.623   2.741  19.330 -0.1011 -0.0634  0.1098
 4322TIP3    H137161   1.715   2.761  19.347 -0.2942  1.2669 -0.3087
 4322TIP3    H237162   1.576   2.786  19.399 -0.4329 -0.9914  0.4978
 4323TIP3   OH237163   0.246   4.608  16.584 -0.2896  0.5155  0.1325
 4323TIP3    H137164   0.330   4.653  16.591 -0.9111  1.7097  0.1778
 4323TIP3    H237165   0.265   4.517  16.608  1.5105  0.1248 -2.3139
 4324TIP3   OH237166   0.476   4.492  17.378 -0.4236  0.2261  0.1766
 4324TIP3    H137167   0.397   4.457  17.420 -1.5965  0.9457 -1.3539
 4324TIP3    H237168   0.541   4.494  17.448 -1.3187 -1.7350  1.1351
 4325TIP3   OH237169   6.372   3.680  17.366  0.4691  0.7245 -0.3891
 4325TIP3    H137170   6.296   3.670  17.309  0.6866 -0.1070 -0.5471
 4325TIP3    H237171   6.415   3.595  17.364  1.1625  1.0522  0.0518
 4326TIP3   OH237172   4.983   1.327  18.305  0.4597 -0.0144  0.0315
 4326TIP3    H137173   4.942   1.276  18.376 -0.9917  1.9365  0.6899
 4326TIP3    H237174   5.038   1.390  18.350  0.0874  0.7753 -0.6036
 4327TIP3   OH237175   0.553   1.675  19.452 -0.2617  0.2512 -0.1843
 4327TIP3    H137176   0.532   1.616  19.380 -0.5986 -0.7192  0.6820
 4327TIP3    H237177   0.514   1.634  19.529  0.6323  0.9352  0.6599
 4328TIP3   OH237178   1.150   1.699  18.769 -0.7196  0.4747 -0.7447
 4328TIP3    H137179   1.207   1.766  18.807  1.1792 -0.9888 -0.8733
 4328TIP3    H237180   1.127   1.642  18.842  0.1676 -0.4199 -1.1361
 4329TIP3   OH237181   0.093   7.408  16.986 -0.5249  0.0569 -0.1666
 4329TIP3    H137182   0.101   7.472  17.057 -2.7707 -0.7795  0.9685
 4329TIP3    H237183   0.000   7.413  16.961  0.2799  0.6415 -3.4252
 4330TIP3   OH237184   6.699   1.190  19.284  0.3561 -0.5487  0.2593
 4330TIP3    H137185   6.614   1.149  19.264  0.1330 -0.2639  0.6206
 4330TIP3    H237186   6.677   1.270  19.331  0.8656 -0.9861  1.2595
 4331TIP3   OH237187   7.498   7.257  18.938  0.0793 -0.3959 -0.2190
 4331TIP3    H137188   7.445   7.178  18.925 -0.3317 -0.6518  2.4281
 4331TIP3    H237189   7.436   7.321  18.973  1.4394 -0.7673  3.1620
 4332TIP3   OH237190   2.991   3.389  18.032 -0.0412  0.2889  0.0054
 4332TIP3    H137191   2.993   3.405  18.126  0.7560 -1.2905  0.2865
 4332TIP3    H237192   3.033   3.466  17.994 -0.7276  1.1283  0.8969
 4333TIP3   OH237193   5.212   4.900  18.844 -0.1291 -0.0431  0.3205
 4333TIP3    H137194   5.127   4.864  18.871 -0.8457  1.4727  0.1833
 4333TIP3    H237195   5.262   4.823  18.815 -1.5099 -0.9475  0.2249
 4334TIP3   OH237196   6.907   4.495  19.065 -0.0933  0.2070 -0.4487
 4334TIP3    H137197   6.883   4.425  19.126  0.6487  0.8570  0.6274
 4334TIP3    H237198   6.825   4.540  19.046 -0.2348  0.5265  0.7775
 4335TIP3   OH237199   4.422   7.187  19.476 -0.0551 -0.2497  0.0560
 4335TIP3    H137200   4.506   7.145  19.497  0.4529  0.3434 -0.7113
 4335TIP3    H237201   4.445   7.279  19.463 -1.2097  0.4141  2.2076
 4336TIP3   OH237202   0.395   0.628  19.180  0.1282 -0.4285  0.0138
 4336TIP3    H137203   0.418   0.634  19.273  0.7495  1.6933 -0.2346
 4336TIP3    H237204   0.476   0.648  19.134 -1.1162  3.1810 -0.9140
 4337TIP3   OH237205   6.346   5.349  18.821 -0.0205 -0.2726 -0.0391
 4337TIP3    H137206   6.258   5.354  18.861 -0.5819  1.6106 -1.3894
 4337TIP3    H237207   6.404   5.384  18.888 -0.5830  0.3553  0.1307
 4338TIP3   OH237208   6.620   5.906  17.902  0.2144  0.6492 -0.6890
 4338TIP3    H137209   6.672   5.845  17.850  2.9951  0.9581  1.4614
 4338TIP3    H237210   6.589   5.854  17.976  0.6004  1.2936 -0.0634
 4339TIP3   OH237211   6.111   6.413  18.721 -0.2349  0.1367  0.0750
 4339TIP3    H137212   6.036   6.361  18.749 -0.1322  0.6915  1.4396
 4339TIP3    H237213   6.073   6.485  18.670 -0.3250 -1.6437 -2.5829
 4340TIP3   OH237214   7.467   1.438  19.162 -0.0204 -0.2881  0.5184
 4340TIP3    H137215   7.461   1.377  19.235  0.3322  1.1106  1.7524
 4340TIP3    H237216   7.419   1.516  19.191  0.2622  0.3583 -0.6720
 4341TIP3   OH237217   3.607   4.457  19.422  0.1501  0.1227  0.1265
 4341TIP3    H137218   3.649   4.492  19.343 -0.3299 -1.1338 -0.7083
 4341TIP3    H237219   3.662   4.383  19.448 -0.0258  0.1653  0.6275
 4342TIP3   OH237220   0.789   5.661  17.792 -0.0506 -0.0480  0.2136
 4342TIP3    H137221   0.738   5.708  17.727  0.6487  0.4344  0.0064
 4342TIP3    H237222   0.727   5.643  17.863 -0.9742 -1.1164 -0.8321
 4343TIP3   OH237223   7.186   4.809  17.900 -0.0495 -0.0474  0.2907
 4343TIP3    H137224   7.228   4.835  17.818 -1.6762  0.7355 -0.3222
 4343TIP3    H237225   7.101   4.853  17.899 -0.5010 -0.8137  1.9453
 4344TIP3   OH237226   1.039   5.696  17.402  0.1869  0.0059 -0.1773
 4344TIP3    H137227   1.107   5.713  17.467  0.4305 -0.8489 -0.2013
 4344TIP3    H237228   1.070   5.743  17.323  0.4461  0.1227 -0.0090
 4345TIP3   OH237229   2.579   5.017  17.427 -0.1963  0.3561  0.3066
 4345TIP3    H137230   2.641   4.946  17.441  0.1417  0.7482  0.8343
 4345TIP3    H237231   2.496   4.973  17.408 -0.3715 -0.2370  2.1934
 4346TIP3   OH237232   6.050   4.080  16.937 -0.4486  0.1378  0.6379
 4346TIP3    H137233   6.125   4.102  16.993 -0.7699  1.3531  0.6315
 4346TIP3    H237234   6.002   4.163  16.929 -0.8563 -0.2112 -0.7639
 4347TIP3   OH237235   0.317   6.454  17.293  0.3242  0.0365 -0.1011
 4347TIP3    H137236   0.344   6.416  17.209  1.2633  0.5861 -0.0659
 4347TIP3    H237237   0.303   6.547  17.273 -1.2686 -0.1792 -0.0372
 4348TIP3   OH237238   7.198   6.123  18.135 -0.0022 -0.1539  0.3101
 4348TIP3    H137239   7.275   6.089  18.180 -0.9813 -0.7347  1.5969
 4348TIP3    H237240   7.230   6.202  18.090  1.6076 -1.0577 -0.2218
 4349TIP3   OH237241   3.408   6.499  17.488 -0.0021 -0.2155 -0.5262
 4349TIP3    H137242   3.468   6.572  17.503  0.1516  0.0011 -2.0341
 4349TIP3    H237243   3.321   6.534  17.506  0.3223 -0.9805  3.3449
 4350TIP3   OH237244   7.345   4.872  17.661 -0.2219 -0.3620  0.4792
 4350TIP3    H137245   7.430   4.883  17.704 -0.0424  0.3970 -0.0545
 4350TIP3    H237246   7.357   4.908  17.574 -1.3744  0.6840  0.7263
 4351TIP3   OH237247   2.449   7.360  18.360 -0.3251  0.3412 -0.2632
 4351TIP3    H137248   2.435   7.393  18.271 -2.3571 -0.5849 -0.3395
 4351TIP3    H237249   2.361   7.346  18.394  0.3901 -2.4369  0.6925
 4352TIP3   OH237250   0.178   4.878  17.342  0.4539  1.1058  0.0655
 4352TIP3    H137251   0.127   4.940  17.394 -0.6258  0.8813 -0.6853
 4352TIP3    H237252   0.170   4.795  17.390  0.7262  1.2372  0.3366
 4353TIP3   OH237253   0.383   3.293  18.450 -0.5804 -0.2528  0.7496
 4353TIP3    H137254   0.339   3.376  18.431 -0.1375 -0.2795 -0.4376
 4353TIP3    H237255   0.384   3.288  18.546 -0.9613  0.9203  0.8282
 4354TIP3   OH237256   1.498   1.342  17.506 -0.1506  0.5919 -0.2174
 4354TIP3    H137257   1.443   1.399  17.559  0.3856 -0.0659  1.0959
 4354TIP3    H237258   1.575   1.324  17.561 -1.0321 -2.7296  0.1936
 4355TIP3   OH237259   4.826   2.735  19.185  0.2267 -0.2780  0.6127
 4355TIP3    H137260   4.737   2.750  19.218 -0.2473  3.4653 -1.7426
 4355TIP3    H237261   4.814   2.720  19.091  2.0318 -1.8296  0.5647
 4356TIP3   OH237262   1.278   5.075  17.833  0.6489 -0.0483 -0.9027
 4356TIP3    H137263   1.242   5.002  17.884 -0.1347  0.5874 -0.5310
 4356TIP3    H237264   1.264   5.050  17.742  0.8313 -0.5773 -0.7889
 4357TIP3   OH237265   6.948   7.281  18.939  0.5118  0.6608  0.5934
 4357TIP3    H137266   6.886   7.330  18.993 -1.2393  1.0894 -1.6443
 4357TIP3    H237267   6.897   7.252  18.864  2.5587 -0.8726 -0.3191
 4358TIP3   OH237268   6.552   0.329  16.835  0.3754 -0.0002 -0.4272
 4358TIP3    H137269   6.493   0.371  16.773  0.1734 -0.1632 -0.3464
 4358TIP3    H237270   6.563   0.240  16.801  0.7176  0.0870 -0.5417
 4359TIP3   OH237271   6.943   3.355  19.257 -0.4925  0.0953 -0.0480
 4359TIP3    H137272   6.890   3.392  19.186 -1.6776  1.0532  1.2654
 4359TIP3    H237273   6.878   3.325  19.321  0.5118  1.1794  1.5510
 4360TIP3   OH237274   7.422   6.674  17.378 -0.0887  0.6014 -0.4169
 4360TIP3    H137275   7.480   6.598  17.378  0.3879  0.9567 -0.7468
 4360TIP3    H237276   7.443   6.720  17.297 -1.5854  0.1803 -1.0825
 4361TIP3   OH237277   5.810   3.355  19.538  0.1369 -0.0375  0.5087
 4361TIP3    H137278   5.750   3.418  19.580  0.5279  0.0278  0.9793
 4361TIP3    H237279   5.758   3.275  19.529 -0.0870  0.0815  0.7258
 4362TIP3   OH237280   6.642   1.581  18.816 -0.0419 -0.5831 -0.2229
 4362TIP3    H137281   6.599   1.533  18.887  1.0256 -1.2505 -0.0180
 4362TIP3    H237282   6.600   1.667  18.817 -1.2180 -1.1392  0.1085
 4363TIP3   OH237283   4.269   7.617  17.397  0.0504 -0.0430  0.1390
 4363TIP3    H137284   4.280   7.587  17.307 -0.2259  1.0148 -0.2572
 4363TIP3    H237285   4.178   7.648  17.401  0.9538  2.8781 -0.1485
 4364TIP3   OH237286   6.553   3.801  18.167  0.2845 -0.2628 -0.0852
 4364TIP3    H137287   6.531   3.810  18.260 -1.0588  0.3307 -0.4295
 4364TIP3    H237288   6.557   3.707  18.152  0.6282 -0.3625  0.5980
 4365TIP3   OH237289   5.830   3.338  18.936  0.0114 -0.3623  0.1240
 4365TIP3    H137290   5.910   3.318  18.984  0.7549 -0.1301 -1.0009
 4365TIP3    H237291   5.760   3.309  18.995  0.9292 -1.3407  0.7769
 4366TIP3   OH237292   7.192   3.214  19.180 -0.3996  0.1784 -0.2951
 4366TIP3    H137293   7.122   3.229  19.244 -0.3091 -1.1430  0.1459
 4366TIP3    H237294   7.146   3.190  19.100 -0.4662 -0.1304 -0.1653
 4367TIP3   OH237295   1.902   5.476  18.298 -0.4793  0.0699  0.1241
 4367TIP3    H137296   1.815   5.448  18.324 -0.6308  1.8796  1.7333
 4367TIP3    H237297   1.893   5.568  18.274  0.7401 -0.0821 -1.1030
 4368TIP3   OH237298   2.961   6.833  18.927 -0.0235  0.4291 -0.5072
 4368TIP3    H137299   2.984   6.850  18.836 -0.9847  0.9110 -0.6699
 4368TIP3    H237300   2.979   6.739  18.939  0.0402  0.3470 -1.2163
 4369TIP3   OH237301   0.210   0.496  18.269  0.1912  0.1629 -0.5487
 4369TIP3    H137302   0.192   0.413  18.313 -1.4787 -0.3230 -2.0339
 4369TIP3    H237303   0.271   0.473  18.199 -0.5358  0.1109 -1.1714
 4370TIP3   OH237304   1.435   1.541  18.273  0.2351  0.4135  0.2226
 4370TIP3    H137305   1.366   1.507  18.329 -0.2958  1.5251  0.2733
 4370TIP3    H237306   1.504   1.570  18.333  1.2397 -1.6030  0.1433
 4371TIP3   OH237307   6.894   1.783  18.918 -0.3415 -0.4520 -0.2423
 4371TIP3    H137308   6.880   1.699  18.962 -1.1874  0.3039  1.0002
 4371TIP3    H237309   6.831   1.842  18.959  0.7255  0.9736 -0.5846
 4372TIP3   OH237310   0.993   1.176  19.189 -0.0522  0.1777 -0.3060
 4372TIP3    H137311   1.082   1.207  19.172  0.3423 -1.5108 -1.5769
 4372TIP3    H237312   0.980   1.104  19.127 -2.0977 -0.0168  0.2614
 4373TIP3   OH237313   4.647   5.513  19.226  0.4640  0.1429 -0.4276
 4373TIP3    H137314   4.584   5.452  19.189  0.5869 -0.0375 -0.3415
 4373TIP3    H237315   4.693   5.550  19.150 -0.6708  1.3017 -0.5803
 4374TIP3   OH237316   7.238   6.331  18.895  0.4719 -0.3478  0.3012
 4374TIP3    H137317   7.282   6.246  18.903 -0.1891 -0.9611 -1.8189
 4374TIP3    H237318   7.145   6.310  18.888  0.1912  0.6407  0.8304
 4375TIP3   OH237319   5.791   2.721  19.246 -0.3843  0.0919  0.5122
 4375TIP3    H137320   5.852   2.677  19.305  0.6496  0.1505 -0.4632
 4375TIP3    H237321   5.770   2.656  19.179  0.9044  0.9009 -0.7636
 4376TIP3   OH237322   5.214   0.147  18.317  0.1710 -0.0203 -0.5123
 4376TIP3    H137323   5.250   0.125  18.231 -1.6653  1.4475 -1.7249
 4376TIP3    H237324   5.157   0.074  18.338  0.5844 -0.3623 -0.5658
 4377TIP3   OH237325   0.105   2.110  17.798 -0.2533 -0.2699 -0.5836
 4377TIP3    H137326   0.201   2.107  17.800 -0.2612 -0.4475 -0.4682
 4377TIP3    H237327   0.078   2.026  17.834 -0.4786  1.1643  2.9661
 4378TIP3   OH237328   1.352   2.850  18.005  0.4139 -0.1383  0.1902
 4378TIP3    H137329   1.258   2.850  18.024 -0.1997 -3.0031 -2.0685
 4378TIP3    H237330   1.360   2.882  17.916  1.1747 -2.3770 -0.6347
 4379TIP3   OH237331   2.266   3.654  16.661  0.1065 -0.2580 -0.0116
 4379TIP3    H137332   2.301   3.566  16.646 -0.8171 -0.5156 -0.7943
 4379TIP3    H237333   2.188   3.658  16.604 -1.0545  0.3298  1.5543
 4380TIP3   OH237334   5.373   5.403  18.416  0.3920 -0.1574 -0.3690
 4380TIP3    H137335   5.360   5.389  18.322  1.3473 -1.4614 -0.3380
 4380TIP3    H237336   5.352   5.495  18.429 -0.8904 -0.2385 -1.6454
 4381TIP3   OH237337   2.085   4.392  17.992  0.2050 -0.3362 -0.3979
 4381TIP3    H137338   2.074   4.391  18.087  0.1950 -0.3414 -0.3980
 4381TIP3    H237339   2.135   4.313  17.973  2.1271  0.7564 -0.1553
 4382TIP3   OH237340   7.467   4.168  18.237  0.2584 -0.5867  0.8118
 4382TIP3    H137341   7.521   4.090  18.251  3.4713  1.5492  1.3984
 4382TIP3    H237342   7.414   4.174  18.317  0.3721 -1.8227  1.0098
 4383TIP3   OH237343   5.386   1.415  18.469 -0.3838 -0.0040  0.2150
 4383TIP3    H137344   5.438   1.496  18.470  0.0634 -0.2868 -0.0291
 4383TIP3    H237345   5.439   1.352  18.516 -0.0436 -0.5756 -0.8982
 4384TIP3   OH237346   5.590   2.451  18.151  0.1536 -0.2482  0.7723
 4384TIP3    H137347   5.532   2.494  18.214 -1.2765  0.0095 -0.6443
 4384TIP3    H237348   5.570   2.494  18.067  0.3579 -2.0838 -0.2788
 4385TIP3   OH237349   0.271   4.558  19.463  0.2078 -0.6669  0.4855
 4385TIP3    H137350   0.248   4.619  19.534 -0.2556 -0.8961  0.5342
 4385TIP3    H237351   0.299   4.615  19.391  0.8847 -0.4415  0.9231
 4386TIP3   OH237352   3.771   4.848  17.383 -0.1964  0.1213  0.1911
 4386TIP3    H137353   3.703   4.792  17.347  0.4700 -0.7053  0.1681
 4386TIP3    H237354   3.724   4.921  17.424 -0.9912  0.6432 -1.5860
 4387TIP3   OH237355   1.592   6.313  18.340 -0.0796 -0.0755  0.0200
 4387TIP3    H137356   1.582   6.327  18.246  1.4281  1.4353  0.0341
 4387TIP3    H237357   1.535   6.379  18.380  1.1355  0.9699  0.1127
 4388TIP3   OH237358   3.544   7.177  17.035  0.0184  0.0400  0.2522
 4388TIP3    H137359   3.564   7.266  17.008  0.0572 -0.4055 -1.2878
 4388TIP3    H237360   3.593   7.122  16.973 -0.8533 -1.0459  0.4988
 4389TIP3   OH237361   3.674   5.402  17.971  0.0604  0.2367  0.0125
 4389TIP3    H137362   3.596   5.454  17.950  0.0586  0.0348 -0.4965
 4389TIP3    H237363   3.745   5.466  17.972  0.1487  0.1913 -1.1630
 4390TIP3   OH237364   4.540   0.452  18.285 -0.2574  0.6910 -0.4386
 4390TIP3    H137365   4.572   0.367  18.255 -0.0075  1.3272 -2.0592
 4390TIP3    H237366   4.447   0.437  18.305  0.6190 -0.9045  3.2656
 4391TIP3   OH237367   3.828   1.511  17.817  0.5527  0.0589  0.0656
 4391TIP3    H137368   3.733   1.523  17.818  0.3508 -1.1975 -1.2155
 4391TIP3    H237369   3.863   1.599  17.800 -0.2768  0.8219  2.0677
 4392TIP3   OH237370   7.498   4.480  17.194 -0.0474 -0.3153 -0.1852
 4392TIP3    H137371   7.569   4.421  17.166 -0.5703 -1.0736  0.0483
 4392TIP3    H237372   7.418   4.431  17.174 -0.4922  0.2983  0.0812
 4393TIP3   OH237373   3.854   3.202  19.144  0.2653  0.0937  0.0685
 4393TIP3    H137374   3.773   3.208  19.194 -0.0791 -2.3769 -0.0266
 4393TIP3    H237375   3.831   3.149  19.067  1.7786 -0.0128 -0.3515
 4394TIP3   OH237376   5.215   0.183  18.861 -0.2113 -0.5355 -0.4537
 4394TIP3    H137377   5.253   0.221  18.781  1.3350  2.0242  1.3609
 4394TIP3    H237378   5.270   0.106  18.878  2.8894  1.7159  0.7559
 4395TIP3   OH237379   4.968   6.856  18.124  0.3873  0.1086  0.0904
 4395TIP3    H137380   4.995   6.765  18.138  1.5978  0.6896  1.8535
 4395TIP3    H237381   5.050   6.905  18.119 -0.2377  1.4043  1.5380
 4396TIP3   OH237382   7.420   0.835  18.192  0.3760  0.1566  0.0948
 4396TIP3    H137383   7.435   0.786  18.111 -0.5031 -2.2420  1.2988
 4396TIP3    H237384   7.507   0.842  18.231  0.2820 -2.5754  0.9925
 4397TIP3   OH237385   2.277   0.010  17.843 -0.6316  0.0944  0.2223
 4397TIP3    H137386   2.321   0.092  17.867 -0.3723  0.6082 -1.8064
 4397TIP3    H237387   2.196   0.011  17.893 -0.1410  1.0736  1.0324
 4398TIP3   OH237388   3.364   7.636  17.689 -0.5692 -0.0724  0.4746
 4398TIP3    H137389   3.316   7.716  17.669  2.8045  1.8912 -0.7127
 4398TIP3    H237390   3.339   7.575  17.620  0.3578  1.7385 -1.5847
 4399TIP3   OH237391   5.137   1.481  18.451 -0.2146  0.0021 -0.0122
 4399TIP3    H137392   5.230   1.461  18.440 -0.6291 -1.5096 -1.1607
 4399TIP3    H237393   5.118   1.457  18.542  0.2290 -1.0051 -0.1739
 4400TIP3   OH237394   4.874   2.243  17.893  0.4727  0.1820 -0.4047
 4400TIP3    H137395   4.844   2.333  17.875  0.0669 -0.0710 -1.0412
 4400TIP3    H237396   4.867   2.199  17.808 -3.9102 -1.7795  0.6838
 4401TIP3   OH237397   2.464   7.476  18.099  0.4459 -0.2085 -0.3512
 4401TIP3    H137398   2.493   7.567  18.110  1.3727 -0.1055 -3.0587
 4401TIP3    H237399   2.427   7.473  18.011 -1.9800 -1.9045  0.6264
 4402TIP3   OH237400   0.616   4.443  17.611 -0.4113 -0.3964  0.2676
 4402TIP3    H137401   0.645   4.534  17.611  0.2323 -0.5950  0.0197
 4402TIP3    H237402   0.643   4.410  17.696 -0.2723 -0.4657  0.1980
 4403TIP3   OH237403   2.451   5.163  18.650  0.0330 -0.4768  0.2915
 4403TIP3    H137404   2.436   5.217  18.573  0.2105  0.3250  0.8023
 4403TIP3    H237405   2.492   5.222  18.713 -1.7773 -0.6234  1.6689
 4404TIP3   OH237406   7.282   5.371  17.504  0.1275  0.3014  0.3227
 4404TIP3    H137407   7.348   5.384  17.436 -0.2020  1.3573  0.1816
 4404TIP3    H237408   7.301   5.284  17.540 -0.1678 -0.6283 -1.6440
 4405TIP3   OH237409   1.639   7.161  17.482 -0.0804  0.6384 -0.0074
 4405TIP3    H137410   1.690   7.225  17.433 -1.6207  1.0538 -1.1630
 4405TIP3    H237411   1.667   7.076  17.447  0.6107  0.7810  0.1861
 4406TIP3   OH237412   1.389   3.490  18.149  0.0978  0.3440  0.6349
 4406TIP3    H137413   1.431   3.544  18.082  1.7852 -0.1818  1.2024
 4406TIP3    H237414   1.399   3.540  18.230  0.3858 -0.1552  0.9158
 4407TIP3   OH237415   5.839   5.355  18.692 -0.2928  0.0761 -0.1187
 4407TIP3    H137416   5.849   5.380  18.600  0.6123 -1.3101 -0.4315
 4407TIP3    H237417   5.749   5.323  18.699 -0.2907 -0.0341 -0.5778
 4408TIP3   OH237418   1.629   0.777  18.872 -0.2600 -0.1261  0.1025
 4408TIP3    H137419   1.619   0.698  18.819 -0.2649  0.1432 -0.3091
 4408TIP3    H237420   1.552   0.830  18.850 -0.1620  0.0709  0.2338
 4409TIP3   OH237421   1.100   1.518  18.967  0.6437  0.2489 -0.3831
 4409TIP3    H137422   1.025   1.465  18.941 -0.6010  1.8850 -0.2552
 4409TIP3    H237423   1.101   1.514  19.062  0.9302 -0.0396 -0.3959
 4410TIP3   OH237424   2.595   2.735  18.125  0.5841 -0.0688 -0.0839
 4410TIP3    H137425   2.501   2.742  18.107  0.0957 -0.3672  2.0308
 4410TIP3    H237426   2.626   2.825  18.129  0.3966  0.0312 -0.8247
 4411TIP3   OH237427   3.236   2.430  17.449  0.8713  0.2081 -0.0463
 4411TIP3    H137428   3.200   2.495  17.389  1.9090  0.5602 -0.3133
 4411TIP3    H237429   3.227   2.346  17.403  3.2804  0.6768 -1.5326
 4412TIP3   OH237430   4.681   5.341  18.991 -0.3890  0.3459  0.1840
 4412TIP3    H137431   4.690   5.387  18.908  0.1670  1.3733  0.8040
 4412TIP3    H237432   4.592   5.360  19.019 -0.9214 -0.8088 -0.6253
 4413TIP3   OH237433   6.602   1.867  17.583  0.1102 -0.1501  0.0376
 4413TIP3    H137434   6.689   1.889  17.551  0.2830 -0.2666  0.4234
 4413TIP3    H237435   6.617   1.822  17.666 -0.3504  0.8232  0.6682
 4414TIP3   OH237436   4.126   3.912  17.221 -0.2084 -0.8151  0.2147
 4414TIP3    H137437   4.049   3.869  17.184 -0.0495  0.3188 -1.5477
 4414TIP3    H237438   4.187   3.920  17.147  0.7003  0.2814  1.0422
 4415TIP3   OH237439   2.016   3.571  18.258 -0.1047  0.1213  0.4685
 4415TIP3    H137440   1.984   3.545  18.171 -0.3686  0.8067  0.3520
 4415TIP3    H237441   2.102   3.609  18.242 -0.4985  0.9942  0.3985
 4416TIP3   OH237442   4.297   5.566  16.979  0.0329  0.7265 -0.3220
 4416TIP3    H137443   4.348   5.578  16.899  0.6323 -0.7547 -0.1998
 4416TIP3    H237444   4.308   5.648  17.028  0.9187  1.0544 -1.0533
 4417TIP3   OH237445   5.706   2.337  18.776 -0.3013  0.4692 -0.3825
 4417TIP3    H137446   5.705   2.300  18.864 -1.3427 -1.3482 -1.1283
 4417TIP3    H237447   5.667   2.270  18.720  0.7554  1.3885 -2.3248
 4418TIP3   OH237448   6.276   6.213  18.264  0.2994 -0.4701  0.3106
 4418TIP3    H137449   6.308   6.140  18.211  0.7280  0.3945 -0.6379
 4418TIP3    H237450   6.353   6.268  18.278 -0.2005  0.2363  0.3103
 4419TIP3   OH237451   0.875   5.142  17.969 -0.2473  0.5326  0.1068
 4419TIP3    H137452   0.871   5.238  17.976  0.5726  0.8140 -2.2769
 4419TIP3    H237453   0.923   5.115  18.048  0.5451  2.2043  0.2498
 4420TIP3   OH237454   7.160   6.328  16.920  0.0681  0.3502 -0.1664
 4420TIP3    H137455   7.123   6.390  16.857 -0.7700 -0.4167 -0.4468
 4420TIP3    H237456   7.103   6.333  16.996 -0.7627 -0.9463 -0.6609
 4421TIP3   OH237457   4.632   0.896  17.338  0.1566 -0.0608  0.6077
 4421TIP3    H137458   4.587   0.977  17.360  1.8484  1.0192  0.2434
 4421TIP3    H237459   4.715   0.901  17.385  1.4560 -0.2843 -1.5125
 4422TIP3   OH237460   6.603   3.095  18.914 -0.3309 -0.4343 -0.2781
 4422TIP3    H137461   6.522   3.052  18.941 -0.3328  0.0303  0.4865
 4422TIP3    H237462   6.634   3.044  18.840 -1.8845 -0.0029 -1.2666
 4423TIP3   OH237463   4.757   7.387  18.412  0.1071 -0.0448 -0.1358
 4423TIP3    H137464   4.843   7.345  18.401  0.7136  1.3700 -1.0614
 4423TIP3    H237465   4.768   7.444  18.487 -0.1664 -0.1883  0.0132
 4424TIP3   OH237466   0.794   4.668  16.477 -0.0270  0.1937  0.3524
 4424TIP3    H137467   0.815   4.760  16.461 -0.7279  0.0846 -1.4342
 4424TIP3    H237468   0.879   4.623  16.474  0.4692  0.8813  2.4356
 4425TIP3   OH237469   3.470   3.820  17.068 -0.2997  0.3640 -0.0746
 4425TIP3    H137470   3.541   3.876  17.037 -0.6958  0.6381 -0.5019
 4425TIP3    H237471   3.419   3.800  16.990  0.7424 -1.9670 -0.2252
 4426TIP3   OH237472   5.857   1.819  17.539 -0.4177  0.5015  0.8132
 4426TIP3    H137473   5.855   1.812  17.635  1.7069 -0.4484  0.8405
 4426TIP3    H237474   5.950   1.824  17.518 -0.8196 -0.2331 -1.2763
 4427TIP3   OH237475   6.127   3.182  18.768  0.1626  0.1336  0.3408
 4427TIP3    H137476   6.074   3.167  18.690  0.1275 -0.2513  0.4361
 4427TIP3    H237477   6.087   3.128  18.836  0.2883  0.3415  0.5864
 4428TIP3   OH237478   3.407   0.054  17.082  0.0110  0.3764 -0.2823
 4428TIP3    H137479   3.491   0.083  17.118 -0.3615  0.2506  0.7001
 4428TIP3    H237480   3.430  -0.021  17.027  0.3588 -0.8031  1.4074
 4429TIP3   OH237481   3.152   4.077  16.490  0.4083 -0.3413 -0.1026
 4429TIP3    H137482   3.072   4.037  16.456 -0.1923  1.3044 -0.7268
 4429TIP3    H237483   3.127   4.167  16.511  1.9770  0.0690  0.1428
 4430TIP3   OH237484   4.012   4.965  17.675 -0.0448  0.0539  0.2706
 4430TIP3    H137485   3.957   4.889  17.658  0.2155  0.4067 -2.8645
 4430TIP3    H237486   4.077   4.935  17.738 -1.3489 -1.5737  0.9013
 4431TIP3   OH237487   3.854   5.479  16.847 -0.0544 -0.1598  0.5811
 4431TIP3    H137488   3.829   5.430  16.768 -1.9702  0.4044  0.7686
 4431TIP3    H237489   3.785   5.544  16.857  2.1064  2.2556  0.6643
 4432TIP3   OH237490   2.359   6.293  17.750  0.4733  0.2559  0.0881
 4432TIP3    H137491   2.415   6.320  17.678  2.2168  0.3035  1.3847
 4432TIP3    H237492   2.287   6.356  17.749  0.8033  0.6432 -1.1942
 4433TIP3   OH237493   1.725   3.479  18.260 -0.5577  0.2176 -0.1819
 4433TIP3    H137494   1.734   3.552  18.199 -0.2146 -0.4302 -0.9273
 4433TIP3    H237495   1.649   3.502  18.314 -0.7639  0.8812 -0.7444
 4434TIP3   OH237496   4.606   5.312  18.539 -0.1057  0.1147  0.0031
 4434TIP3    H137497   4.699   5.301  18.558  0.3216  2.0494 -0.6966
 4434TIP3    H237498   4.562   5.247  18.594  1.6856 -1.3519 -0.2034
 4435TIP3   OH237499   1.048   2.196  18.045  0.5466 -0.1273 -0.3815
 4435TIP3    H137500   1.118   2.182  18.108  0.8429 -0.8841 -0.8652
 4435TIP3    H237501   1.054   2.289  18.022  0.1969  0.2416  0.9695
 4436TIP3   OH237502   3.865   3.800  18.004 -0.3133  0.0584  0.1660
 4436TIP3    H137503   3.945   3.755  18.030 -0.4961  0.2424  1.1148
 4436TIP3    H237504   3.796   3.757  18.055 -0.7479  0.2088 -0.2887
 4437TIP3   OH237505   0.778   7.043  16.836  0.3884 -0.1790 -0.2549
 4437TIP3    H137506   0.827   7.124  16.846  0.3009 -0.3673  2.9829
 4437TIP3    H237507   0.693   7.069  16.803  0.3600  1.0991  0.7629
 4438TIP3   OH237508   5.239   3.949  19.472  0.0840 -0.6232  0.6152
 4438TIP3    H137509   5.235   3.854  19.463  0.1471 -0.5494 -0.2401
 4438TIP3    H237510   5.308   3.976  19.412 -1.7808  0.2169 -1.2481
 4439TIP3   OH237511   4.307   0.979  18.732 -0.3319 -0.2675  0.0960
 4439TIP3    H137512   4.232   0.971  18.673  0.0365  1.4317 -0.6635
 4439TIP3    H237513   4.268   0.984  18.819 -1.0589 -0.0868 -0.2326
 4440TIP3   OH237514   2.885   0.141  18.675 -0.4553 -0.2688  0.7633
 4440TIP3    H137515   2.925   0.077  18.617 -0.5460  0.2993  0.0532
 4440TIP3    H237516   2.805   0.098  18.706  0.4046 -1.1959  1.7633
 4441TIP3   OH237517   4.500   6.471  18.732  0.3507 -0.8152 -0.1422
 4441TIP3    H137518   4.512   6.566  18.723  1.9211 -0.8445  1.1331
 4441TIP3    H237519   4.419   6.462  18.781  0.7058 -0.0640  0.6195
 4442TIP3   OH237520   1.681   3.007  16.874  0.0799  0.2295  0.0789
 4442TIP3    H137521   1.660   2.942  16.941  2.6288  1.1436  1.9017
 4442TIP3    H237522   1.661   2.963  16.792 -0.7849 -1.8654  1.3155
 4443TIP3   OH237523   6.395   5.106  19.534 -0.2033  0.0480 -0.3357
 4443TIP3    H137524   6.357   5.114  19.446  0.3403  0.0982 -0.5656
 4443TIP3    H237525   6.366   5.020  19.565 -2.6881  1.0873  0.5395
 4444TIP3   OH237526   4.454   0.061  19.265  0.0828  0.3742  0.3158
 4444TIP3    H137527   4.457   0.044  19.171  1.3895  0.0566  0.3882
 4444TIP3    H237528   4.378   0.013  19.296  0.2552 -0.4020 -0.4241
 4445TIP3   OH237529   1.815   4.190  18.280  0.4423 -0.3929 -0.1150
 4445TIP3    H137530   1.801   4.140  18.199  0.6789 -0.0454 -0.3739
 4445TIP3    H237531   1.901   4.230  18.269  0.2248  0.1288  0.0610
 4446TIP3   OH237532   0.617   2.136  18.916 -0.2333 -0.5082  0.0313
 4446TIP3    H137533   0.581   2.091  18.993  2.1182 -1.0897  0.9057
 4446TIP3    H237534   0.645   2.065  18.858 -1.4653 -0.0693 -1.1247
 4447TIP3   OH237535   4.456   3.506  18.122  0.2073 -0.4841  0.2587
 4447TIP3    H137536   4.423   3.445  18.056 -1.7413  1.3961 -0.5879
 4447TIP3    H237537   4.490   3.580  18.072 -1.0617  0.8621  1.3263
 4448TIP3   OH237538   5.797   6.691  18.579 -0.6988  0.3876 -0.2989
 4448TIP3    H137539   5.792   6.786  18.567 -0.3753  0.0818 -3.8901
 4448TIP3    H237540   5.891   6.672  18.579 -0.7563  0.0601  0.5925
 4449TIP3   OH237541   0.425   6.700  17.659  0.1864  0.0536 -0.5303
 4449TIP3    H137542   0.518   6.702  17.636  0.1448  0.0585 -0.6984
 4449TIP3    H237543   0.421   6.646  17.738  0.5517  1.4368  0.4684
 4450TIP3   OH237544   6.149   6.064  18.920 -0.2188 -0.1818  0.2038
 4450TIP3    H137545   6.176   6.155  18.932 -1.8598  0.3934 -0.1854
 4450TIP3    H237546   6.174   6.021  19.003 -2.1333  1.3517  1.6773
 4451TIP3   OH237547   1.384   3.712  18.639 -0.1511 -0.4869  0.4605
 4451TIP3    H137548   1.290   3.692  18.639 -0.2193 -0.1963  1.1738
 4451TIP3    H237549   1.404   3.733  18.730  0.2324  1.2369  0.0083
 4452TIP3   OH237550   3.599   3.224  16.705 -0.2503 -0.3751  0.7785
 4452TIP3    H137551   3.613   3.145  16.654  0.3513 -1.1006  2.0348
 4452TIP3    H237552   3.663   3.220  16.776  0.7918  1.9491  0.0955
 4453TIP3   OH237553   1.980   1.389  18.678 -0.3565 -0.3144  0.4445
 4453TIP3    H137554   2.054   1.350  18.632  1.4391  0.6982  2.3124
 4453TIP3    H237555   1.952   1.322  18.740  0.6380  0.1664  1.4374
 4454TIP3   OH237556   5.194   6.290  18.429  0.3937  0.3074  0.3570
 4454TIP3    H137557   5.132   6.224  18.462  0.9739 -1.0212 -1.0735
 4454TIP3    H237558   5.210   6.264  18.338  0.2326  2.7648 -0.4629
 4455TIP3   OH237559   5.630   1.319  16.967 -0.2945  0.7492  0.4010
 4455TIP3    H137560   5.714   1.294  16.929 -0.3224 -0.5168  1.1352
 4455TIP3    H237561   5.641   1.412  16.989  0.4617  0.9282 -0.6750
 4456TIP3   OH237562   0.313   1.853  17.680  0.2386  0.8559 -0.1087
 4456TIP3    H137563   0.265   1.838  17.761 -0.8516  0.2929 -0.8368
 4456TIP3    H237564   0.388   1.907  17.706 -0.1083  0.7136  1.2551
 4457TIP3   OH237565   4.979   6.728  16.963 -0.2461  0.1317 -0.4794
 4457TIP3    H137566   4.928   6.685  17.031  0.7130 -0.8860 -0.3718
 4457TIP3    H237567   4.946   6.690  16.881  1.2426 -1.6336 -0.3405
 4458TIP3   OH237568   5.384   0.241  17.573 -0.2133  0.1463  0.5992
 4458TIP3    H137569   5.389   0.156  17.528 -2.4231  0.7648 -0.9658
 4458TIP3    H237570   5.446   0.297  17.525  1.3274 -0.5445  1.6999
 4459TIP3   OH237571   2.367   3.148  18.185 -0.5948 -0.7091 -0.0479
 4459TIP3    H137572   2.439   3.151  18.249 -0.8784 -1.7549  0.3297
 4459TIP3    H237573   2.290   3.125  18.236 -0.8403 -1.5024 -0.7597
 4460TIP3   OH237574   4.707   4.589  16.802 -0.5345 -0.1318  0.2305
 4460TIP3    H137575   4.794   4.626  16.814 -0.1202 -1.4342  1.6480
 4460TIP3    H237576   4.693   4.588  16.708  1.0834 -0.1077 -0.0326
 4461TIP3   OH237577   3.869   6.465  19.219  0.0736  0.0408  0.5769
 4461TIP3    H137578   3.820   6.526  19.165 -0.1285 -0.4243  0.2253
 4461TIP3    H237579   3.938   6.518  19.259  0.4676  0.3137 -0.4465
 4462TIP3   OH237580   1.361   2.439  17.934  0.4650 -0.3537  0.0892
 4462TIP3    H137581   1.417   2.368  17.900  1.7458  0.7798 -0.2885
 4462TIP3    H237582   1.304   2.462  17.860  0.6175 -0.4553 -0.0624
 4463TIP3   OH237583   3.999   4.362  16.849  0.1791  0.2650 -0.1020
 4463TIP3    H137584   4.000   4.439  16.792  1.7659  1.4141  1.3619
 4463TIP3    H237585   4.075   4.374  16.906 -0.7383 -1.3360  1.5646
 4464TIP3   OH237586   3.218   4.191  19.027 -0.0972 -0.3116 -0.4813
 4464TIP3    H137587   3.123   4.184  19.018 -0.1871  1.0675 -0.8662
 4464TIP3    H237588   3.232   4.227  19.115  0.1670 -1.9052  0.1642
 4465TIP3   OH237589   2.673   4.332  18.429  0.2022 -0.3060  0.3670
 4465TIP3    H137590   2.642   4.275  18.499 -0.1405  0.2202  0.6436
 4465TIP3    H237591   2.711   4.271  18.365  0.3836 -0.7998  0.9299
 4466TIP3   OH237592   7.034   2.977  18.100  0.1929  0.9737 -0.6359
 4466TIP3    H137593   7.063   2.913  18.034 -0.3013 -0.5190  0.5323
 4466TIP3    H237594   6.940   2.986  18.085 -0.6989 -2.1190  1.9536
 4467TIP3   OH237595   4.905   3.076  16.894  0.1279  0.0715  0.0501
 4467TIP3    H137596   4.901   3.112  16.982 -1.6363  1.2922 -0.4793
 4467TIP3    H237597   4.963   3.000  16.901  0.2292  0.3045  2.1783
 4468TIP3   OH237598   6.116   2.798  18.953 -0.6917 -0.0796 -0.0213
 4468TIP3    H137599   6.165   2.834  18.879 -0.0759 -1.1925 -0.1690
 4468TIP3    H237600   6.181   2.758  19.009 -1.4513 -2.3671 -0.6636
 4469TIP3   OH237601   4.328   3.181  18.508  0.3504 -0.2781  0.3225
 4469TIP3    H137602   4.394   3.210  18.571  0.3658  1.3122 -0.3759
 4469TIP3    H237603   4.371   3.189  18.422 -1.2307  2.6736 -0.3581
 4470TIP3   OH237604   2.279   2.430  18.154  0.5941  0.1942 -0.8986
 4470TIP3    H137605   2.361   2.439  18.202  0.6049 -0.0577 -0.8673
 4470TIP3    H237606   2.258   2.336  18.160 -1.6070  0.7442  2.3106
 4471TIP3   OH237607   1.174   1.542  16.991 -0.5159 -0.5756 -0.1358
 4471TIP3    H137608   1.145   1.451  16.992  1.0825 -1.1475  2.2708
 4471TIP3    H237609   1.206   1.558  17.080  3.9738  0.6965 -1.7094
 4472TIP3   OH237610   5.766   2.232  19.020 -0.3711 -0.1132 -0.2069
 4472TIP3    H137611   5.717   2.162  19.064 -0.6409 -0.0397 -0.3873
 4472TIP3    H237612   5.789   2.293  19.090 -0.2768 -0.3000 -0.0736
 4473TIP3   OH237613   5.737   1.994  19.397  0.0879  0.9172 -0.1731
 4473TIP3    H137614   5.665   1.935  19.417 -0.7486  1.2303 -2.0635
 4473TIP3    H237615   5.706   2.080  19.423  0.5394  0.8169  0.7468
 4474TIP3   OH237616   3.599   2.263  17.932 -0.2860  0.4247  0.7592
 4474TIP3    H137617   3.627   2.223  18.014 -0.7311  0.4340  0.9142
 4474TIP3    H237618   3.677   2.309  17.900  0.4568 -1.1559  0.2083
 4475TIP3   OH237619   5.500   1.194  18.860  0.0840 -0.2370 -0.2126
 4475TIP3    H137620   5.572   1.202  18.922  1.7687 -2.5966 -1.6532
 4475TIP3    H237621   5.473   1.102  18.867 -2.1560  0.3529 -0.4259
 4476TIP3   OH237622   1.716   5.070  19.494 -0.0629  0.5379  0.1817
 4476TIP3    H137623   1.652   5.130  19.456  1.1482  2.3183  0.8614
 4476TIP3    H237624   1.798   5.120  19.497  0.8604 -0.9502  1.3236
 4477TIP3   OH237625   5.504   4.743  19.820 -0.0815 -0.4590  0.0991
 4477TIP3    H137626   5.553   4.714  19.897  0.9049  0.2093 -0.2544
 4477TIP3    H237627   5.571   4.777  19.761 -1.0212  0.9186 -0.2130
 4478TIP3   OH237628   3.329   7.302  19.191 -0.0971 -0.3188 -0.3119
 4478TIP3    H137629   3.283   7.359  19.252  0.7976 -1.1139  1.1717
 4478TIP3    H237630   3.419   7.300  19.224 -0.0511 -2.3914 -0.4414
 4479TIP3   OH237631   6.409   6.950  18.357 -0.5651 -0.4469  0.3120
 4479TIP3    H137632   6.465   6.897  18.414  1.0231 -0.8379 -1.4954
 4479TIP3    H237633   6.409   7.037  18.398  1.7761 -0.3197  0.1934
 4480TIP3   OH237634   0.540   4.862  16.782 -0.2886 -0.0469 -0.0016
 4480TIP3    H137635   0.540   4.881  16.875 -0.1935  0.2734 -0.0687
 4480TIP3    H237636   0.593   4.931  16.742  1.8369 -1.5724  0.0007
 4481TIP3   OH237637   5.312   4.348  18.376 -0.4029 -0.4650  0.3934
 4481TIP3    H137638   5.258   4.343  18.297  0.1758 -1.2906  0.0243
 4481TIP3    H237639   5.303   4.438  18.406 -0.4291 -0.0588 -0.7687
 4482TIP3   OH237640   4.440   5.619  17.887 -0.2540 -0.4489 -0.2384
 4482TIP3    H137641   4.380   5.545  17.882 -0.4751 -0.3192  0.4122
 4482TIP3    H237642   4.459   5.629  17.981 -0.5645  0.5840 -0.2693
 4483TIP3   OH237643   0.752   2.569  17.619 -0.3590  0.0458  0.1690
 4483TIP3    H137644   0.745   2.649  17.568 -0.0700  0.4374  0.7305
 4483TIP3    H237645   0.761   2.499  17.555 -1.1037  0.4110 -0.3448
 4484TIP3   OH237646   5.269   0.419  18.304 -0.2126 -0.5510 -0.0972
 4484TIP3    H137647   5.248   0.326  18.312 -0.3899 -0.5912 -0.9422
 4484TIP3    H237648   5.195   0.465  18.344 -0.0202 -0.7739  0.5208
 4485TIP3   OH237649   6.544   7.669  18.206 -0.2517  0.6636 -0.2286
 4485TIP3    H137650   6.539   7.581  18.245 -1.1419  1.0556  0.5993
 4485TIP3    H237651   6.569   7.654  18.115  0.2212 -0.4066  0.0639
 4486TIP3   OH237652   1.775   0.741  18.195  0.4320  0.9137 -0.4362
 4486TIP3    H137653   1.728   0.777  18.269 -0.4700 -0.9964 -0.0283
 4486TIP3    H237654   1.715   0.676  18.157  2.0848 -0.4443 -0.8635
 4487TIP3   OH237655   1.291   3.727  19.064  0.0660  0.2209 -0.8490
 4487TIP3    H137656   1.220   3.787  19.088  0.7434  0.7073  0.0064
 4487TIP3    H237657   1.356   3.783  19.021  1.2458  0.3844  1.0266
 4488TIP3   OH237658   6.605   6.820  18.524  0.0043 -0.5409  0.2307
 4488TIP3    H137659   6.662   6.750  18.557 -2.3013 -2.8453 -0.3106
 4488TIP3    H237660   6.560   6.852  18.602 -0.3217 -1.0411  0.2560
 4489TIP3   OH237661   5.459   7.397  18.743  0.3453 -0.0855 -0.1284
 4489TIP3    H137662   5.455   7.308  18.709 -1.5322  0.0365 -0.3285
 4489TIP3    H237663   5.496   7.387  18.831  1.2630 -0.8987 -0.5883
 4490TIP3   OH237664   7.201   7.371  18.972 -0.4204  0.0077  0.1142
 4490TIP3    H137665   7.151   7.429  18.914  0.0526  1.4097  1.0460
 4490TIP3    H237666   7.140   7.299  18.993 -1.9657  1.4616  0.9164
 4491TIP3   OH237667   3.449   3.454  18.777 -0.5274  0.4288  0.3471
 4491TIP3    H137668   3.440   3.513  18.702  2.5488  0.2102 -0.2906
 4491TIP3    H237669   3.536   3.471  18.812 -0.9644 -1.1653  2.4368
 4492TIP3   OH237670   4.989   3.198  16.468 -0.0706  0.2377 -0.0209
 4492TIP3    H137671   5.080   3.221  16.489 -0.5083  0.1431  2.2638
 4492TIP3    H237672   4.994   3.107  16.440  0.7332  0.7786 -1.8091
 4493TIP3   OH237673   5.569   1.212  18.595 -0.1084 -0.1117 -0.5617
 4493TIP3    H137674   5.540   1.235  18.683 -1.6006  1.3868 -1.3979
 4493TIP3    H237675   5.561   1.117  18.591 -0.7216 -0.1293  0.6718
 4494TIP3   OH237676   0.754   3.000  16.673  0.1114 -0.0634 -0.6618
 4494TIP3    H137677   0.754   2.983  16.579  0.3553  0.3574 -0.7386
 4494TIP3    H237678   0.711   3.085  16.683 -1.2631 -0.7816 -0.2640
 4495TIP3   OH237679   6.639   5.616  17.793  0.4518 -0.3909  0.3467
 4495TIP3    H137680   6.632   5.580  17.705  2.3862  1.3946 -0.6431
 4495TIP3    H237681   6.732   5.637  17.803  0.5729 -1.8871  3.4235
 4496TIP3   OH237682   0.398   2.226  18.052 -0.3355 -0.5795 -0.3096
 4496TIP3    H137683   0.421   2.261  18.138  1.6301 -0.8210 -0.7083
 4496TIP3    H237684   0.303   2.214  18.056 -0.7972  2.4612  0.6891
 4497TIP3   OH237685   4.604   7.144  18.157  0.2175  0.8240 -0.4011
 4497TIP3    H137686   4.624   7.059  18.118 -2.3432  0.7885 -1.8422
 4497TIP3    H237687   4.622   7.132  18.250 -0.6353 -1.5338 -0.4694
 4498TIP3   OH237688   6.862   2.896  16.971  0.7015 -0.5480  0.3670
 4498TIP3    H137689   6.768   2.902  16.986  0.7694  1.6934  0.2211
 4498TIP3    H237690   6.878   2.803  16.956 -2.0256 -0.6844 -2.9569
 4499TIP3   OH237691   0.970   1.106  17.458 -0.0286  0.0073  0.2159
 4499TIP3    H137692   0.953   1.198  17.481 -0.8143 -0.2852  0.8478
 4499TIP3    H237693   0.979   1.106  17.363 -1.8597  0.4741  0.0059
 4500TIP3   OH237694   7.511   4.111  16.936 -0.7365  0.5381  0.2436
 4500TIP3    H137695   7.558   4.089  17.016 -0.2922  1.1207  0.1530
 4500TIP3    H237696   7.449   4.039  16.924  0.4341 -0.4849  0.1190
 4501TIP3   OH237697   4.424   7.470  19.450  0.3012  0.5596 -0.1018
 4501TIP3    H137698   4.342   7.505  19.414  0.1510 -0.3891 -0.7158
 4501TIP3    H237699   4.437   7.519  19.531 -2.6390 -1.4749  1.7809
 4502TIP3   OH237700   4.512   6.703  18.113 -0.0576  0.3163  0.1067
 4502TIP3    H137701   4.459   6.643  18.060  0.8489 -0.1078 -0.3454
 4502TIP3    H237702   4.594   6.656  18.127  0.2841  1.0476  0.6063
 4503TIP3   OH237703   1.922   2.527  18.592  0.2000 -0.0968 -0.0360
 4503TIP3    H137704   1.988   2.488  18.648 -1.0457  0.7485  2.1592
 4503TIP3    H237705   1.929   2.621  18.609 -0.5204  0.1366 -0.9571
 4504TIP3   OH237706   7.209   3.755  18.626  0.4736  0.1638  1.0475
 4504TIP3    H137707   7.203   3.671  18.580 -0.8968  1.3914 -1.1954
 4504TIP3    H237708   7.301   3.761  18.654  1.2793 -0.9148 -1.1427
 4505TIP3   OH237709   6.712   4.967  18.212 -0.1801  0.1284 -0.3305
 4505TIP3    H137710   6.658   4.891  18.189  0.8534 -0.3058 -1.4178
 4505TIP3    H237711   6.705   4.973  18.307 -1.9513 -0.0496 -0.4206
 4506TIP3   OH237712   4.466   7.646  17.962 -0.4322  0.0556  0.3284
 4506TIP3    H137713   4.493   7.662  18.052 -0.1393  0.2535  0.2084
 4506TIP3    H237714   4.509   7.564  17.938 -1.4816 -0.6343  0.7601
 4507TIP3   OH237715   5.116   7.514  18.344  0.0866 -0.4119  0.0922
 4507TIP3    H137716   5.119   7.567  18.423  0.4261  2.1711 -1.5211
 4507TIP3    H237717   5.206   7.510  18.314 -0.3662  1.5475 -1.8352
 4508TIP3   OH237718   7.363   6.065  17.463 -0.1184  0.1113 -0.0986
 4508TIP3    H137719   7.388   5.973  17.464 -1.4749 -0.2735  0.1796
 4508TIP3    H237720   7.439   6.110  17.425  1.3181 -0.8768  1.4404
 4509TIP3   OH237721   1.834   3.305  18.584  0.1954 -0.4410  0.4576
 4509TIP3    H137722   1.884   3.248  18.643  0.3189 -2.5737 -1.5562
 4509TIP3    H237723   1.889   3.312  18.506 -0.2539  1.7500  0.2611
 4510TIP3   OH237724   4.513   4.393  17.693 -0.1083 -0.1087 -0.5586
 4510TIP3    H137725   4.565   4.319  17.663  0.3687 -0.0983  0.2239
 4510TIP3    H237726   4.454   4.412  17.620  0.1795 -0.8691 -0.9974
 4511TIP3   OH237727   3.420   2.059  18.164  0.0983 -0.1235  0.2613
 4511TIP3    H137728   3.461   2.021  18.087  0.0153 -2.6046  1.3375
 4511TIP3    H237729   3.469   2.022  18.238 -0.7747  0.9786  1.4328
 4512TIP3   OH237730   1.993   1.449  18.048 -0.4507 -0.2967  0.3813
 4512TIP3    H137731   1.967   1.475  18.137 -3.4462 -1.2192 -0.1050
 4512TIP3    H237732   2.016   1.357  18.057  0.8582  0.0148  0.4354
 4513TIP3   OH237733   3.471   1.710  17.193 -0.5567  0.6230  0.9942
 4513TIP3    H137734   3.497   1.768  17.122  2.5468  0.2813  1.6749
 4513TIP3    H237735   3.405   1.652  17.155 -0.0327  1.3585 -1.1685
 4514TIP3   OH237736   0.749   0.953  18.048 -0.6008 -0.2586 -0.5230
 4514TIP3    H137737   0.731   0.920  17.960  0.8226  1.1037 -1.3764
 4514TIP3    H237738   0.667   0.995  18.074 -0.6719  0.4073 -1.7389
 4515TIP3   OH237739   4.378   6.928  18.107 -0.3454 -0.6597  0.0067
 4515TIP3    H137740   4.385   6.922  18.012 -0.4115  0.2275 -0.0649
 4515TIP3    H237741   4.428   6.854  18.140  4.4602  1.8947 -0.6140
 4516TIP3   OH237742   4.895   3.068  19.277 -0.0059  0.2896 -0.4512
 4516TIP3    H137743   4.818   3.096  19.326 -0.4802 -0.2153 -0.9027
 4516TIP3    H237744   4.867   3.065  19.186  0.3941 -0.4060 -0.5617
 4517TIP3   OH237745   7.228   4.589  17.615  0.4119  0.3206 -0.5486
 4517TIP3    H137746   7.289   4.612  17.544  0.8146  1.5769  0.1676
 4517TIP3    H237747   7.253   4.647  17.687 -2.0171  1.3018 -0.4208
 4518TIP3   OH237748   0.547   3.717  18.689 -0.7483 -0.1651 -0.5091
 4518TIP3    H137749   0.534   3.647  18.754  0.5201  0.2062  0.1557
 4518TIP3    H237750   0.623   3.689  18.638  2.1216  2.2834  2.0219
 4519TIP3   OH237751   7.079   1.952  17.406 -0.1321 -0.1058  0.0649
 4519TIP3    H137752   7.100   2.034  17.361  2.2824 -0.0689  1.1061
 4519TIP3    H237753   7.114   1.884  17.350  0.2923 -0.2389  0.4853
 4520TIP3   OH237754   2.345   3.255  19.198  0.2335 -0.4318 -0.4331
 4520TIP3    H137755   2.252   3.263  19.217  0.2244  0.4422 -0.8012
 4520TIP3    H237756   2.370   3.339  19.160  2.0281  0.8374  3.1050
 4521TIP3   OH237757   2.710   6.781  18.831  0.4286  0.1576  0.3072
 4521TIP3    H137758   2.792   6.796  18.878  0.2257 -0.8778  1.0180
 4521TIP3    H237759   2.728   6.708  18.772 -0.2739 -0.8440  1.2921
 4522TIP3   OH237760   4.506   6.346  18.492 -0.0109  0.2203  0.1439
 4522TIP3    H137761   4.517   6.371  18.584 -1.5244 -1.0230  0.7081
 4522TIP3    H237762   4.593   6.355  18.454  0.7761  0.2128  1.8475
 4523TIP3   OH237763   0.066   3.016  18.652 -0.6094  0.2287 -0.1925
 4523TIP3    H137764   0.023   3.094  18.618  1.8035  1.3946 -0.7586
 4523TIP3    H237765   0.138   3.049  18.706  0.1564 -1.5894 -0.0203
 4524TIP3   OH237766   5.867   7.649  19.123  0.4100  0.7388  0.6087
 4524TIP3    H137767   5.829   7.620  19.040  0.0494 -1.4788  1.4728
 4524TIP3    H237768   5.855   7.744  19.123  0.8558  0.8720 -2.0560
 4525TIP3   OH237769   7.485   0.625  18.420 -0.3595 -0.1882 -0.1527
 4525TIP3    H137770   7.436   0.691  18.370  1.2671  2.0181  1.0026
 4525TIP3    H237771   7.570   0.621  18.378 -0.7498 -2.3947 -0.8266
 4526TIP3   OH237772   4.104   6.534  19.441 -0.6926  0.1415 -0.1410
 4526TIP3    H137773   4.165   6.553  19.370  1.1824 -0.9357  1.0995
 4526TIP3    H237774   4.150   6.562  19.521 -2.1413  0.0185  0.7800
 4527TIP3   OH237775   7.158   2.807  17.922  0.2103 -0.1892  0.1116
 4527TIP3    H137776   7.212   2.758  17.984  1.4905  1.2640  0.2019
 4527TIP3    H237777   7.135   2.742  17.855 -1.4268 -1.8698  2.1442
 4528TIP3   OH237778   4.170   4.328  17.809 -0.0877  0.2090  0.1677
 4528TIP3    H137779   4.174   4.380  17.729 -0.8254 -1.4587 -1.0287
 4528TIP3    H237780   4.220   4.378  17.873  0.8151  1.4453 -1.4242
 4529TIP3   OH237781   6.562   0.144  17.693  0.1227 -0.3338 -0.5975
 4529TIP3    H137782   6.546   0.170  17.783  0.8645 -0.0116 -0.5554
 4529TIP3    H237783   6.529   0.054  17.688 -1.4381  0.2077 -0.4569
 4530TIP3   OH237784   2.502   1.450  17.440 -0.1410 -0.3483 -0.2224
 4530TIP3    H137785   2.574   1.502  17.474 -0.1852 -0.8276  0.6089
 4530TIP3    H237786   2.424   1.501  17.460 -0.3263 -1.3880  1.9647
 4531TIP3   OH237787   4.384   7.635  19.011 -0.6613 -0.6413  0.2111
 4531TIP3    H137788   4.434   7.657  18.933  0.4881 -2.4157  0.4066
 4531TIP3    H237789   4.372   7.541  19.008 -2.7603 -0.4631  0.9519
 4532TIP3   OH237790   4.472   2.833  18.847 -0.6234  0.3363 -0.1247
 4532TIP3    H137791   4.512   2.786  18.920 -0.4815  0.7909  0.0946
 4532TIP3    H237792   4.383   2.797  18.842 -0.7398  0.5161  0.4756
 4533TIP3   OH237793   6.921   0.176  17.736 -0.1121 -0.6393  0.7116
 4533TIP3    H137794   6.888   0.174  17.646 -0.6626  1.1277  0.8388
 4533TIP3    H237795   6.877   0.102  17.779 -1.0964 -0.5350 -0.0702
 4534TIP3   OH237796   6.308   0.251  17.574 -0.5754  0.5797 -0.5221
 4534TIP3    H137797   6.367   0.199  17.629 -1.7659 -0.4168 -0.1530
 4534TIP3    H237798   6.350   0.252  17.489 -0.2925 -0.6303 -0.4199
 4535TIP3   OH237799   6.136   1.211  18.904 -0.4870  0.0237 -0.3451
 4535TIP3    H137800   6.141   1.124  18.943 -0.9667 -1.2399 -2.8634
 4535TIP3    H237801   6.044   1.220  18.878 -0.7735  1.9179  1.0981
 4536TIP3   OH237802   0.687   0.154  18.972  0.1808  0.3807 -0.2806
 4536TIP3    H137803   0.774   0.189  18.992  0.8313 -1.4436  0.2357
 4536TIP3    H237804   0.700   0.060  18.963 -1.7022  0.0970 -0.5070
 4537TIP3   OH237805   0.521   7.230  16.847  0.2521  0.2135  0.1856
 4537TIP3    H137806   0.433   7.211  16.813 -0.1274  2.8309 -0.5021
 4537TIP3    H237807   0.505   7.270  16.932  0.8410  0.1346  0.3368
 4538TIP3   OH237808   0.067   6.737  18.130  0.6217 -0.4286  0.0416
 4538TIP3    H137809   0.044   6.823  18.095 -0.1813  0.7279  3.0489
 4538TIP3    H237810   0.062   6.748  18.225  2.3702 -3.3289  0.5943
 4539TIP3   OH237811   3.165   5.910  18.442  0.6581 -0.2569  0.0626
 4539TIP3    H137812   3.243   5.883  18.393 -0.1609 -0.5653 -1.1255
 4539TIP3    H237813   3.198   5.938  18.527  2.0307 -0.6450 -0.3221
 4540TIP3   OH237814   3.537   5.337  16.793  0.7153 -0.3055  0.3945
 4540TIP3    H137815   3.502   5.414  16.837 -0.5086 -0.1619 -0.7668
 4540TIP3    H237816   3.590   5.372  16.721  0.4074 -0.5403  0.0480
 4541TIP3   OH237817   5.230   3.285  16.869 -0.1353  0.0666 -0.2822
 4541TIP3    H137818   5.220   3.313  16.778 -1.8390  3.6095  0.8388
 4541TIP3    H237819   5.160   3.329  16.916 -1.0459 -3.7586  2.4751
 4542TIP3   OH237820   2.557   4.569  17.356  0.1020 -0.2596 -0.0013
 4542TIP3    H137821   2.553   4.485  17.310 -0.3722  0.2623 -0.9509
 4542TIP3    H237822   2.527   4.550  17.444  0.7213 -1.2297  0.0173
 4543TIP3   OH237823   2.923   0.822  18.590  0.1417  0.1519  0.4102
 4543TIP3    H137824   3.009   0.854  18.563 -0.2629 -0.3976 -1.7030
 4543TIP3    H237825   2.868   0.901  18.595  0.7641  0.5284  1.9647
 4544TIP3   OH237826   6.362   7.626  17.649  0.7862 -0.2028 -0.2471
 4544TIP3    H137827   6.356   7.545  17.700  0.1180  0.3739  0.6091
 4544TIP3    H237828   6.318   7.692  17.703  2.0522  0.9229 -0.5563
 4545TIP3   OH237829   1.445   1.258  17.921 -0.4467 -0.1940 -0.5189
 4545TIP3    H137830   1.525   1.292  17.961 -0.4528 -0.7138 -0.0462
 4545TIP3    H237831   1.398   1.217  17.994 -0.7410 -0.6316 -0.9496
 4546TIP3   OH237832   3.376   6.949  19.211  0.1362 -0.7470  0.0977
 4546TIP3    H137833   3.301   6.913  19.258  0.6750 -2.2091 -0.0917
 4546TIP3    H237834   3.339   7.002  19.141 -0.7135 -1.2203  0.1852
 4547TIP3   OH237835   5.695   2.369  17.108 -0.2047 -0.5509  0.2586
 4547TIP3    H137836   5.661   2.371  17.018  0.7245  0.6717 -0.1014
 4547TIP3    H237837   5.767   2.307  17.104  1.4454  1.2836 -0.5222
 4548TIP3   OH237838   5.250   3.260  16.542 -0.0396  0.0744 -0.5101
 4548TIP3    H137839   5.238   3.346  16.582  0.5459  0.0127 -0.1960
 4548TIP3    H237840   5.339   3.263  16.505  0.3756 -0.7368  0.3748
 4549TIP3   OH237841   7.317   5.159  18.477  0.1937  0.3451  0.4986
 4549TIP3    H137842   7.385   5.226  18.465 -1.2984  2.0093  0.9723
 4549TIP3    H237843   7.333   5.125  18.565  0.2271  0.9407  0.7253
 4550TIP3   OH237844   4.230   4.770  17.515  0.1093 -0.5079 -0.0958
 4550TIP3    H137845   4.262   4.707  17.450 -0.9212 -0.8181 -0.3108
 4550TIP3    H237846   4.173   4.828  17.466  0.2212 -0.0472  0.3142
 4551TIP3   OH237847   6.305   0.144  18.316 -0.2173 -0.4956 -0.0736
 4551TIP3    H137848   6.399   0.139  18.336  0.2868  1.3519 -1.6541
 4551TIP3    H237849   6.285   0.061  18.273  0.2209 -1.6529  1.8081
 4552TIP3   OH237850   6.352   1.389  17.908  0.3822 -0.1486 -0.2780
 4552TIP3    H137851   6.344   1.294  17.900 -1.3416 -0.0887  0.3647
 4552TIP3    H237852   6.262   1.422  17.900  0.6629  1.2404  1.5313
 4553TIP3   OH237853   6.011   5.919  19.428  0.0459  0.8867  0.2562
 4553TIP3    H137854   6.026   5.987  19.362  1.2327  1.8505  1.4813
 4553TIP3    H237855   6.045   5.839  19.388 -1.5839  0.8939 -1.2996
 4554TIP3   OH237856   6.936   5.657  17.868  0.1210  0.2115  0.4077
 4554TIP3    H137857   7.014   5.713  17.862 -0.5803  1.3708  1.5536
 4554TIP3    H237858   6.968   5.569  17.849  2.1360  0.3322  2.7936
 4555TIP3   OH237859   5.542   3.485  19.082 -0.4804  0.2415  0.2178
 4555TIP3    H137860   5.574   3.490  19.172 -0.4275 -0.7115  0.2675
 4555TIP3    H237861   5.550   3.392  19.059 -1.3249  0.3196 -0.4572
 4556TIP3   OH237862   1.847   0.966  18.893 -0.1753  0.3051 -0.3475
 4556TIP3    H137863   1.882   0.976  18.805 -0.7535  1.6224 -0.4484
 4556TIP3    H237864   1.772   0.907  18.883 -1.6150  2.1734 -1.1529
 4557TIP3   OH237865   0.096   3.653  18.139  0.2579  0.0055  0.4009
 4557TIP3    H137866   0.037   3.601  18.194 -0.5617  0.0089 -0.4470
 4557TIP3    H237867   0.133   3.718  18.199  0.8090 -1.1304  1.3425
 4558TIP3   OH237868   5.955   4.122  18.853  0.6594  0.4640 -0.5674
 4558TIP3    H137869   5.860   4.135  18.859  0.3159 -1.3654 -1.5780
 4558TIP3    H237870   5.981   4.172  18.776  0.4423  0.5587 -0.5800
 4559TIP3   OH237871   5.157   1.352  18.734  0.1361 -0.2387  0.1242
 4559TIP3    H137872   5.061   1.353  18.731  0.1353 -1.0624 -0.3904
 4559TIP3    H237873   5.177   1.305  18.816  0.0613 -2.7292 -1.1893
 4560TIP3   OH237874   2.365   4.842  17.434  0.5541  0.5394  0.2477
 4560TIP3    H137875   2.326   4.846  17.347  0.0395 -0.5447  0.4072
 4560TIP3    H237876   2.368   4.748  17.455  1.2049  0.7460  1.1538
 4561TIP3   OH237877   4.473   1.261  16.935 -0.0438  0.7952  0.1460
 4561TIP3    H137878   4.378   1.275  16.926 -0.2154 -1.1402 -1.6403
 4561TIP3    H237879   4.490   1.178  16.890  2.3672  0.5579  1.3403
 4562TIP3   OH237880   5.729   7.627  17.820  0.2528  0.7485  0.1017
 4562TIP3    H137881   5.642   7.622  17.860 -0.6081  1.4699 -1.5689
 4562TIP3    H237882   5.717   7.587  17.734  1.5601  0.9539 -0.1879
 4563TIP3   OH237883   0.207   1.595  17.527  0.2322 -0.6320  1.0607
 4563TIP3    H137884   0.142   1.585  17.457  0.4833 -0.6201  0.8249
 4563TIP3    H237885   0.209   1.688  17.545  1.0297 -0.4843  0.2563
 4564TIP3   OH237886   7.402   3.887  18.922  0.0484  0.3774 -0.4697
 4564TIP3    H137887   7.426   3.969  18.964  2.0056  0.1294 -1.0177
 4564TIP3    H237888   7.414   3.821  18.989  0.8917  0.2548 -0.7386
 4565TIP3   OH237889   5.088   1.752  19.016  0.5746 -0.1895  0.1328
 4565TIP3    H137890   5.018   1.757  19.082 -1.0439 -1.3144 -1.4135
 4565TIP3    H237891   5.097   1.841  18.984  0.6905  0.1832  1.1607
 4566TIP3   OH237892   2.328   6.952  18.977 -0.3569 -0.2409 -0.0588
 4566TIP3    H137893   2.263   6.898  19.022  0.3548 -1.5868 -0.6050
 4566TIP3    H237894   2.284   6.981  18.897 -1.0116  0.6931  0.6082
 4567TIP3   OH237895   5.955   3.204  19.165 -0.2201  1.3081 -1.2958
 4567TIP3    H137896   5.932   3.139  19.099  2.0360 -0.3143 -0.6220
 4567TIP3    H237897   6.049   3.218  19.153  0.4247  0.5016  1.8064
 4568TIP3   OH237898   2.189   4.628  19.015  0.2905  0.4564 -0.0405
 4568TIP3    H137899   2.149   4.709  19.048 -0.0939 -0.4654  1.9245
 4568TIP3    H237900   2.219   4.582  19.094 -2.3761 -2.7877 -0.6758
 4569TIP3   OH237901   0.918   2.673  19.051  0.0901  0.6008  0.1954
 4569TIP3    H137902   0.937   2.653  18.959  0.2403 -0.2619  0.4096
 4569TIP3    H237903   1.004   2.674  19.093  0.0431  1.2389  0.2893
 4570TIP3   OH237904   0.584   4.321  19.052  0.2903 -0.4617  0.0823
 4570TIP3    H137905   0.521   4.252  19.030 -2.1642  1.7693 -0.4036
 4570TIP3    H237906   0.626   4.291  19.133 -0.7982 -2.4292 -0.0273
 4571TIP3   OH237907   4.417   7.440  18.164  0.0446 -0.0797 -0.4390
 4571TIP3    H137908   4.408   7.381  18.090 -0.1277 -0.3226 -0.2281
 4571TIP3    H237909   4.357   7.513  18.145 -1.6139 -1.1563  0.4341
 4572TIP3   OH237910   5.131   6.941  17.459  0.5232 -0.6318 -0.0620
 4572TIP3    H137911   5.119   6.850  17.431  2.6382 -0.3432 -2.2459
 4572TIP3    H237912   5.125   6.992  17.378  0.2095  1.0951  1.0083
 4573TIP3   OH237913   7.278   6.712  17.907 -0.2022 -0.3328 -0.4741
 4573TIP3    H137914   7.293   6.727  17.814  0.5078  0.4670 -0.2426
 4573TIP3    H237915   7.349   6.654  17.934 -0.4722 -0.6572 -0.4447
 4574TIP3   OH237916   0.343   5.510  18.992  0.5932  0.0469 -0.1592
 4574TIP3    H137917   0.341   5.574  19.064  0.3703  0.8831 -0.8888
 4574TIP3    H237918   0.353   5.564  18.913  0.9851 -0.8680 -0.7430
 4575TIP3   OH237919   3.715   4.977  18.567  0.1422 -0.1750  0.4163
 4575TIP3    H137920   3.792   4.925  18.544  1.0920  0.0888  2.6532
 4575TIP3    H237921   3.641   4.932  18.526  1.0454 -2.6547  1.3387
 4576TIP3   OH237922   2.262   4.628  19.544 -0.2203 -0.1313 -0.1210
 4576TIP3    H137923   2.189   4.629  19.482 -0.5076  0.0168  0.2170
 4576TIP3    H237924   2.299   4.540  19.536  0.3076  0.1713 -1.1448
 4577TIP3   OH237925   7.603   7.391  17.512 -0.0345  0.9241 -0.7828
 4577TIP3    H137926   7.689   7.367  17.477  0.5214  0.0510  1.0470
 4577TIP3    H237927   7.547   7.399  17.435  0.7698 -2.2659 -1.8480
 4578TIP3   OH237928   7.055   0.696  18.391 -0.6939 -0.1015  0.5317
 4578TIP3    H137929   6.984   0.704  18.454 -0.8234  0.5063  0.3156
 4578TIP3    H237930   7.046   0.772  18.334 -1.9609 -1.7773 -1.6477
 4579TIP3   OH237931   4.260   4.839  19.328 -0.3703 -0.1566  0.5792
 4579TIP3    H137932   4.339   4.872  19.370 -0.1635  1.4823 -0.9927
 4579TIP3    H237933   4.261   4.745  19.345  2.2171 -0.2746  0.1150
 4580TIP3   OH237934   5.473   3.443  17.351 -0.1954  0.6814 -0.2588
 4580TIP3    H137935   5.487   3.438  17.446 -1.9108  1.2210  0.0506
 4580TIP3    H237936   5.562   3.451  17.315  0.4651  0.9509  1.3163
 4581TIP3   OH237937   5.427   3.642  16.636 -0.5890 -0.8016 -0.5193
 4581TIP3    H137938   5.488   3.612  16.568  0.6727 -1.2108  0.7476
 4581TIP3    H237939   5.484   3.666  16.710 -1.9712 -1.1591  0.6914
 4582TIP3   OH237940   5.607   7.503  18.151  0.3627 -0.0657  0.2404
 4582TIP3    H137941   5.674   7.514  18.218 -0.2688  1.8814  0.6248
 4582TIP3    H237942   5.525   7.526  18.195 -0.0218  1.6167 -1.2274
 4583TIP3   OH237943   7.160   3.442  18.612 -0.1846 -0.1430  0.3307
 4583TIP3    H137944   7.105   3.388  18.555  0.7848  0.5012 -1.2565
 4583TIP3    H237945   7.117   3.436  18.698 -2.2578 -0.3382 -0.6530
 4584TIP3   OH237946   0.961   3.320  17.258  0.2914  0.2737 -0.2790
 4584TIP3    H137947   0.922   3.237  17.232 -0.1549  0.5436 -0.4845
 4584TIP3    H237948   0.888   3.382  17.258  0.5417  0.5759  0.2864
 4585TIP3   OH237949   4.605   2.277  16.758  0.4179  0.3026 -0.3320
 4585TIP3    H137950   4.615   2.294  16.852  0.5217 -0.9923 -0.0845
 4585TIP3    H237951   4.586   2.363  16.720 -0.3667  0.7455  0.9786
 4586TIP3   OH237952   0.150   6.486  16.717  0.0978  0.1290  0.2181
 4586TIP3    H137953   0.152   6.390  16.708 -2.3204 -0.0134  0.5031
 4586TIP3    H237954   0.219   6.505  16.781  0.8047 -1.3811 -0.0376
 4587TIP3   OH237955   6.205   3.969  16.740 -0.2714 -0.0594  0.1602
 4587TIP3    H137956   6.179   4.017  16.818 -0.1825 -1.1499  0.8748
 4587TIP3    H237957   6.288   4.009  16.713  0.3509 -0.5000  1.3708
 4588TIP3   OH237958   7.052   3.718  19.088 -0.4830 -0.5332  0.1676
 4588TIP3    H137959   7.069   3.650  19.023 -1.1418 -1.2030  0.6665
 4588TIP3    H237960   6.962   3.747  19.069  0.4155  1.5399 -1.2022
 4589TIP3   OH237961   7.553   3.970  18.702 -0.3456 -0.6282  0.4115
 4589TIP3    H137962   7.489   3.997  18.636  0.0171 -1.1523 -0.1635
 4589TIP3    H237963   7.500   3.941  18.776 -0.7703 -0.8416  0.0311
 4590TIP3   OH237964   7.180   0.915  18.495  0.3798  0.6241  0.0606
 4590TIP3    H137965   7.242   0.935  18.426 -0.7026  0.2805 -1.0375
 4590TIP3    H237966   7.162   0.822  18.486 -0.5678  0.7868  0.1199
 4591TIP3   OH237967   4.636   4.506  17.066 -0.0969 -0.3662 -0.0458
 4591TIP3    H137968   4.647   4.524  16.972 -0.8670 -1.6301 -0.3973
 4591TIP3    H237969   4.542   4.493  17.077  0.1375 -1.5709  0.6475
 4592TIP3   OH237970   4.061   7.374  18.357 -0.1506 -0.3973  0.6507
 4592TIP3    H137971   4.075   7.468  18.341 -1.8983 -0.2569 -0.3192
 4592TIP3    H237972   4.078   7.333  18.272  1.3384 -1.0824  1.2554
 4593TIP3   OH237973   2.783   3.973  17.568 -0.2482  0.2542 -0.6957
 4593TIP3    H137974   2.811   4.053  17.524  2.1770  0.0311  0.2881
 4593TIP3    H237975   2.862   3.941  17.612 -2.1243 -0.3492  2.5599
 4594TIP3   OH237976   6.014   5.317  17.667 -0.1959 -0.2187 -0.0749
 4594TIP3    H137977   5.991   5.410  17.656 -0.0821  0.0550  1.6068
 4594TIP3    H237978   6.053   5.313  17.755 -0.4081 -1.8974 -0.0266
 4595TIP3   OH237979   3.850   3.719  19.485  0.3917  0.6522  0.1903
 4595TIP3    H137980   3.795   3.672  19.423 -1.1928  0.6238  1.5568
 4595TIP3    H237981   3.935   3.676  19.480 -0.3345 -0.7628 -0.3561
 4596TIP3   OH237982   1.654   0.840  18.493 -0.1558 -0.3094  0.4248
 4596TIP3    H137983   1.746   0.867  18.486  0.0129  0.2918  3.5389
 4596TIP3    H237984   1.657   0.761  18.546 -1.4747  0.0744  1.0896
 4597TIP3   OH237985   7.049   1.993  17.856 -0.2135  0.6899  0.1818
 4597TIP3    H137986   7.013   2.038  17.779  1.3001  1.6693  0.0036
 4597TIP3    H237987   7.144   1.997  17.844  0.0155 -1.6168  0.7343
 4598TIP3   OH237988   0.895   1.171  19.478  0.6472  0.1336 -0.6307
 4598TIP3    H137989   0.933   1.190  19.563  0.9975 -0.8200 -0.5608
 4598TIP3    H237990   0.965   1.192  19.415  0.5166  0.4860 -0.6594
 4599TIP3   OH237991   5.910   2.729  17.347  0.6191  0.0111  0.4002
 4599TIP3    H137992   5.885   2.723  17.439 -0.2957  1.2033  0.2586
 4599TIP3    H237993   5.831   2.762  17.303  1.0154 -0.6104 -0.8285
 4600TIP3   OH237994   0.743   3.582  18.558 -0.3206  0.3192  0.2674
 4600TIP3    H137995   0.783   3.596  18.644  1.6903  1.2236 -0.7369
 4600TIP3    H237996   0.776   3.497  18.530 -1.5718 -0.3176  0.6704
 4601TIP3   OH237997   3.422   5.930  17.883 -0.0073 -0.4872  0.0062
 4601TIP3    H137998   3.397   5.901  17.970 -1.3216  0.2424 -0.1051
 4601TIP3    H237999   3.429   6.025  17.891  0.5529 -0.4789 -0.5230
 4602TIP3   OH238000   1.856   3.782  18.239 -0.4835 -0.8308  0.2989
 4602TIP3    H138001   1.819   3.806  18.324  2.0503 -0.4534  1.4085
 4602TIP3    H238002   1.908   3.704  18.257  1.0596 -0.0612 -0.5962
 4603TIP3   OH238003   4.382   5.794  17.102 -0.1549 -1.1465 -0.3722
 4603TIP3    H138004   4.458   5.847  17.127 -0.5712 -2.0127  3.3777
 4603TIP3    H238005   4.314   5.857  17.081  0.3271 -0.2271  0.7230
 4604TIP3   OH238006   5.344   4.018  17.903 -0.1947  0.3113  0.1346
 4604TIP3    H138007   5.309   3.980  17.822 -1.9976  1.4106  0.3327
 4604TIP3    H238008   5.439   4.019  17.890 -0.3743 -0.4574 -1.5435
 4605TIP3   OH238009   1.356   0.509  17.422 -0.0756  0.0433 -0.5834
 4605TIP3    H138010   1.343   0.439  17.486  0.2157 -0.0327 -0.6027
 4605TIP3    H238011   1.432   0.481  17.371 -0.6358 -0.1605 -1.3243
 4606TIP3   OH238012   4.280   6.197  17.863  0.1978  0.3244 -0.0888
 4606TIP3    H138013   4.353   6.172  17.920 -0.8760 -0.6046  0.9291
 4606TIP3    H238014   4.238   6.270  17.909  1.0338  1.5444 -1.1693
 4607TIP3   OH238015   5.966   4.235  17.953  0.3763 -0.3276  0.2631
 4607TIP3    H138016   5.962   4.142  17.930 -0.4777 -0.2067 -0.1124
 4607TIP3    H238017   5.926   4.240  18.040 -1.2136 -0.1008 -0.4365
 4608TIP3   OH238018   6.892   0.986  17.762  0.1802 -0.1936 -1.0465
 4608TIP3    H138019   6.812   1.032  17.736  0.2026  0.4619 -0.0142
 4608TIP3    H238020   6.963   1.043  17.732  0.2240  0.0009 -0.5847
 4609TIP3   OH238021   2.118   4.563  18.734  0.8195  0.1041  0.0960
 4609TIP3    H138022   2.115   4.604  18.821 -0.2556 -0.2428  0.2441
 4609TIP3    H238023   2.089   4.473  18.750  0.9493 -0.0625 -0.5792
 4610TIP3   OH238024   6.916   1.497  17.010  0.5850  0.0674  0.4697
 4610TIP3    H138025   6.838   1.443  16.997  1.4137 -1.0527 -0.0441
 4610TIP3    H238026   6.933   1.534  16.923  0.2746  0.8208  0.7238
 4611TIP3   OH238027   2.685   2.144  17.561  0.0641  0.1604 -0.7003
 4611TIP3    H138028   2.642   2.064  17.592 -0.1959  0.9278  1.0499
 4611TIP3    H238029   2.776   2.118  17.547  0.0663 -0.3782  0.1912
 4612TIP3   OH238030   7.483   3.498  18.601  0.4295  0.4423  0.2990
 4612TIP3    H138031   7.392   3.468  18.608  0.6337 -0.8824 -1.6784
 4612TIP3    H238032   7.520   3.487  18.689 -0.3946 -2.3275  0.3766
 4613TIP3   OH238033   5.939   6.635  17.289 -0.1597  0.4695  0.1571
 4613TIP3    H138034   5.962   6.722  17.323  0.4582  0.1046  0.6987
 4613TIP3    H238035   5.877   6.600  17.353 -0.9967  0.8013 -0.4553
 4614TIP3   OH238036   1.151   6.568  18.843 -0.0593 -0.4582  0.4885
 4614TIP3    H138037   1.232   6.568  18.894  0.5358 -2.1570 -0.4139
 4614TIP3    H238038   1.130   6.661  18.833  0.6270 -0.0307  2.4745
 4615TIP3   OH238039   1.388   2.947  16.965 -0.2995 -0.3291  0.0069
 4615TIP3    H138040   1.344   2.868  16.936  1.9619 -1.2818 -1.0051
 4615TIP3    H238041   1.394   3.002  16.887 -1.2514  0.5876  0.5506
 4616TIP3   OH238042   2.373   1.074  19.317  0.3477 -0.5075  0.5808
 4616TIP3    H138043   2.299   1.115  19.272  0.5307  1.3178  1.8379
 4616TIP3    H238044   2.348   0.982  19.324 -1.3839 -0.1217  0.1446
 4617TIP3   OH238045   7.587   1.370  18.064 -0.3396  0.4041 -0.2230
 4617TIP3    H138046   7.562   1.402  18.150  0.3025  0.9270 -0.2298
 4617TIP3    H238047   7.546   1.431  18.003  1.9407  2.0488 -0.2170
 4618TIP3   OH238048   0.332   3.701  19.519  0.0847 -0.7065 -0.0336
 4618TIP3    H138049   0.326   3.624  19.462 -2.0796 -1.8340  1.5644
 4618TIP3    H238050   0.351   3.665  19.606 -1.8287  0.4187  0.9150
 4619TIP3   OH238051   2.452   2.017  17.284  0.5759  0.7101  0.8741
 4619TIP3    H138052   2.528   1.985  17.332  1.2476  1.0212  0.0427
 4619TIP3    H238053   2.453   1.969  17.202 -0.9593 -0.3251  1.4000
 4620TIP3   OH238054   7.661   1.755  19.315  0.0581 -0.1005 -0.0557
 4620TIP3    H138055   7.729   1.689  19.306  0.5030  0.1153  1.4170
 4620TIP3    H238056   7.702   1.825  19.366 -0.4210  1.3062 -1.5194
 4621TIP3   OH238057   1.537   3.377  17.393 -0.8629  0.3590  0.3988
 4621TIP3    H138058   1.534   3.282  17.383  0.3739  0.5057 -2.2548
 4621TIP3    H238059   1.606   3.392  17.458 -1.1425 -0.5275  0.9223
 4622TIP3   OH238060   3.830   2.676  16.800  0.6406  0.4355 -0.0986
 4622TIP3    H138061   3.866   2.759  16.831 -0.7527  0.9111  0.3120
 4622TIP3    H238062   3.873   2.609  16.854  1.0151  0.9667  0.2626
 4623TIP3   OH238063   4.074   2.467  17.209  0.3149  0.4994 -0.4474
 4623TIP3    H138064   4.149   2.440  17.156  0.8741 -0.0136  0.5719
 4623TIP3    H238065   4.004   2.484  17.145  1.6029  2.0985 -1.5166
 4624TIP3   OH238066   3.300   3.704  16.854 -0.3743  0.1004 -0.3709
 4624TIP3    H138067   3.205   3.704  16.846 -0.3964  0.7885 -0.1468
 4624TIP3    H238068   3.332   3.710  16.765 -0.5400 -0.0741 -0.4434
 4625TIP3   OH238069   6.740   1.780  16.851 -0.2386  0.7450  0.0773
 4625TIP3    H138070   6.800   1.705  16.846 -1.7111 -0.3923 -2.1785
 4625TIP3    H238071   6.796   1.853  16.876  1.8514 -0.5177 -0.6014
 4626TIP3   OH238072   5.117   7.357  17.518 -0.2280  0.5331 -0.1342
 4626TIP3    H138073   5.102   7.331  17.427 -1.9370  2.3474 -0.4404
 4626TIP3    H238074   5.127   7.452  17.514  0.8403  0.5255  1.4751
 4627TIP3   OH238075   0.435   2.099  19.532  0.5809 -0.5380 -0.0965
 4627TIP3    H138076   0.432   2.186  19.570 -1.8491 -1.3344  1.8100
 4627TIP3    H238077   0.521   2.064  19.558  0.7529  0.5505  0.8702
 4628TIP3   OH238078   1.650   0.190  18.256 -0.2675  0.6338 -0.1062
 4628TIP3    H138079   1.561   0.193  18.292 -0.0598 -0.7052  0.6120
 4628TIP3    H238080   1.642   0.137  18.177 -0.2028  0.9607 -0.3302
 4629TIP3   OH238081   6.480   0.208  17.353 -0.2613  0.0940 -0.0705
 4629TIP3    H138082   6.424   0.152  17.299  0.9232  0.8724 -2.2787
 4629TIP3    H238083   6.569   0.183  17.327  0.3786  0.3941  1.7254
 4630TIP3   OH238084   2.013   3.193  17.120  0.3112  0.1714 -0.8164
 4630TIP3    H138085   2.011   3.248  17.198  0.5110  1.0547 -1.4162
 4630TIP3    H238086   2.089   3.225  17.070  1.7409 -2.0481 -0.2000
 4631TIP3   OH238087   6.839   1.218  16.717  0.2223  0.1635 -0.6134
 4631TIP3    H138088   6.838   1.127  16.686 -0.6589 -0.0525 -0.0006
 4631TIP3    H238089   6.749   1.234  16.745 -0.2937  2.0499 -3.0305
 4632TIP3   OH238090   2.843   2.541  16.924 -0.2916 -0.5108  0.2647
 4632TIP3    H138091   2.822   2.511  16.835 -1.2148 -1.4048  0.7701
 4632TIP3    H238092   2.924   2.495  16.946  0.4421  0.3954 -0.4286
 4633TIP3   OH238093   4.419   3.075  17.863  0.4232 -0.0674  0.2062
 4633TIP3    H138094   4.372   3.022  17.799  0.3752 -1.4052  1.2869
 4633TIP3    H238095   4.501   3.027  17.878  1.4529  1.4041 -0.4878
 4634TIP3   OH238096   1.228   7.586  17.406  0.9803  0.3010 -0.1360
 4634TIP3    H138097   1.216   7.638  17.326  1.1152  1.8693  0.8203
 4634TIP3    H238098   1.295   7.633  17.455  1.0701 -0.7707  0.8055
 4635TIP3   OH238099   0.583   2.013  18.090  0.8220 -0.0065  0.7201
 4635TIP3    H138100   0.525   1.939  18.108  0.4068  0.2404  0.3943
 4635TIP3    H238101   0.526   2.089  18.086  1.3360  0.4618  1.8137
 4636TIP3   OH238102   0.703   6.419  17.011  0.6873  0.2240  0.7410
 4636TIP3    H138103   0.682   6.493  16.954 -0.9519  1.0483  2.3032
 4636TIP3    H238104   0.799   6.413  17.009  0.7088 -0.5106 -2.8878
 4637TIP3   OH238105   4.267   6.426  17.394  0.6111  0.2848  0.3175
 4637TIP3    H138106   4.247   6.339  17.360 -0.1841  0.3838  0.5061
 4637TIP3    H238107   4.318   6.468  17.325 -1.6222  0.7580 -1.1650
 4638TIP3   OH238108   3.154   7.449  17.607 -0.1123 -0.7285 -0.5156
 4638TIP3    H138109   3.094   7.489  17.670 -0.8378  1.1332 -2.2724
 4638TIP3    H238110   3.103   7.441  17.527  1.3484 -1.1581 -1.4389
 4639TIP3   OH238111   7.553   3.202  18.571 -0.2752  0.1903  0.4902
 4639TIP3    H138112   7.593   3.214  18.485  1.2428 -0.7356  1.0314
 4639TIP3    H238113   7.538   3.291  18.603  2.0075  0.6418  0.5153
 4640TIP3   OH238114   0.694   7.561  18.878  0.3112 -0.0903 -0.0440
 4640TIP3    H138115   0.677   7.467  18.879 -1.3770  0.1774 -0.3958
 4640TIP3    H238116   0.775   7.570  18.827  0.0246 -1.2821 -0.7434
 4641TIP3   OH238117   3.644   7.346  18.518 -0.6820 -0.4689 -0.8199
 4641TIP3    H138118   3.563   7.297  18.531 -1.5672  0.8210 -1.2889
 4641TIP3    H238119   3.628   7.431  18.558  1.5991 -1.1782  1.9435
 4642TIP3   OH238120   3.262   6.312  18.871  0.0417 -0.0649 -0.1357
 4642TIP3    H138121   3.230   6.274  18.953  1.5073 -0.4812  0.2704
 4642TIP3    H238122   3.339   6.363  18.896 -1.8796  3.4061 -0.6371
 4643TIP3   OH238123   7.675   6.085  17.969  0.2687 -0.8116  0.3919
 4643TIP3    H138124   7.650   6.134  18.047  1.8304 -0.4927  0.7363
 4643TIP3    H238125   7.594   6.073  17.920 -0.3189  1.2166  0.8052
 4644TIP3   OH238126   7.025   1.086  18.653 -0.2323 -0.5364  0.8511
 4644TIP3    H138127   7.008   1.020  18.720 -0.1086 -0.1469  1.2781
 4644TIP3    H238128   7.077   1.041  18.587 -0.8675 -1.0901  0.7124
 4645TIP3   OH238129   7.387   2.347  17.980  0.2741  0.2729  0.1082
 4645TIP3    H138130   7.456   2.345  17.914  0.8629  0.9068  0.6933
 4645TIP3    H238131   7.307   2.363  17.930  0.5178 -0.5975 -0.5930
 4646TIP3   OH238132   2.548   2.500  18.275 -0.2216  0.6148 -0.1070
 4646TIP3    H138133   2.545   2.586  18.233 -0.4086  0.6683  0.0150
 4646TIP3    H238134   2.585   2.442  18.208 -4.4753 -0.2757 -2.0329
 4647TIP3   OH238135   4.318   5.917  18.408 -0.2592  0.3300  0.3371
 4647TIP3    H138136   4.351   5.944  18.322  0.7010 -2.6996 -0.3749
 4647TIP3    H238137   4.316   5.998  18.459  0.7334  1.9655 -2.0144
 4648TIP3   OH238138   5.478   4.246  18.112  0.4288 -0.2103 -0.4986
 4648TIP3    H138139   5.392   4.282  18.089  0.8534  0.1786 -1.6014
 4648TIP3    H238140   5.536   4.280  18.043  1.6922  0.4878  0.8704
 4649TIP3   OH238141   2.838   2.388  17.737 -0.2256  0.2726 -0.3550
 4649TIP3    H138142   2.786   2.354  17.665 -0.7046 -0.3409  0.2649
 4649TIP3    H238143   2.777   2.442  17.787  0.0128  0.4203 -0.2213
 4650TIP3   OH238144   0.162   2.469  17.870  0.5903 -0.0427 -0.1858
 4650TIP3    H138145   0.233   2.418  17.833  1.0284  0.4772 -0.0657
 4650TIP3    H238146   0.177   2.468  17.965 -0.1395 -0.7894 -0.0654
 4651TIP3   OH238147   7.114   4.221  17.568 -0.8508 -0.3646 -0.0924
 4651TIP3    H138148   7.041   4.223  17.630 -0.9382  1.3804 -0.1798
 4651TIP3    H238149   7.088   4.283  17.499  1.0843  1.0679  0.3628
 4652TIP3   OH238150   1.565   5.892  18.275  0.1306  0.2704 -0.1230
 4652TIP3    H138151   1.470   5.905  18.274  0.0531 -0.1651  0.8465
 4652TIP3    H238152   1.600   5.971  18.316 -0.0791 -0.8391  2.4251
 4653TIP3   OH238153   6.746   6.131  17.344  0.0410 -0.1812  0.1238
 4653TIP3    H138154   6.718   6.183  17.268 -0.6646 -0.4279  0.2064
 4653TIP3    H238155   6.772   6.196  17.409 -0.4457  0.0600  0.0816
 4654TIP3   OH238156   7.204   5.980  19.369 -0.2291 -0.3119  0.0246
 4654TIP3    H138157   7.242   6.022  19.292  2.7637  0.2072  1.6310
 4654TIP3    H238158   7.229   6.037  19.442  0.3085 -2.6958  1.8105
 4655TIP3   OH238159   5.132   5.415  17.167 -0.5818 -0.1077  0.2673
 4655TIP3    H138160   5.195   5.343  17.157 -0.1359 -0.0764  2.3577
 4655TIP3    H238161   5.152   5.475  17.095 -0.5081 -1.7049 -1.1209
 4656TIP3   OH238162   0.330   2.372  16.665  0.0680 -1.0209 -0.1468
 4656TIP3    H138163   0.245   2.401  16.632 -0.0621 -0.3213  0.7802
 4656TIP3    H238164   0.371   2.451  16.700  0.5435 -1.5987  0.6189
 4657TIP3   OH238165   1.893   1.525  16.893 -0.1525  1.0539  0.4534
 4657TIP3    H138166   1.950   1.539  16.817 -0.4090  1.4533  0.3298
 4657TIP3    H238167   1.806   1.513  16.855  0.2164 -2.5419  0.4093
 4658TIP3   OH238168   5.032   4.841  18.475 -0.6052 -0.4385 -0.1377
 4658TIP3    H138169   4.993   4.869  18.557 -0.5173 -0.8428  0.0432
 4658TIP3    H238170   5.013   4.747  18.470  0.1618 -0.5977 -0.1462
 4659TIP3   OH238171   2.151   5.967  19.286 -0.3810  0.4340 -0.7013
 4659TIP3    H138172   2.113   5.974  19.199 -0.9684 -1.9170 -0.6938
 4659TIP3    H238173   2.245   5.959  19.270 -0.6874 -3.4999 -1.5003
 4660TIP3   OH238174   3.988   0.515  17.395 -0.2814  0.0087 -0.2761
 4660TIP3    H138175   4.063   0.457  17.382  0.4903  0.3391  2.1506
 4660TIP3    H238176   3.947   0.483  17.476 -1.7724  0.8788 -0.6506
 4661TIP3   OH238177   1.451   3.533  18.434  0.0278 -0.0377  0.9475
 4661TIP3    H138178   1.459   3.595  18.507  0.0429  1.5538 -0.3358
 4661TIP3    H238179   1.383   3.472  18.462 -1.2864  1.6258  1.5825
 4662TIP3   OH238180   5.892   2.174  18.641 -0.0095  0.2567  0.0567
 4662TIP3    H138181   5.899   2.139  18.730  1.7968  1.5528  0.5046
 4662TIP3    H238182   5.870   2.266  18.653  0.9954  0.6353 -0.7682
 4663TIP3   OH238183   6.337   5.962  18.684 -0.4291  0.4159 -0.2890
 4663TIP3    H138184   6.276   6.035  18.691 -0.8868  0.0955 -0.7942
 4663TIP3    H238185   6.348   5.949  18.589  0.8587  0.8173 -0.2173
 4664TIP3   OH238186   1.130   6.338  16.988 -0.1256  0.0879  0.3776
 4664TIP3    H138187   1.211   6.373  16.950  1.3412 -0.3828  2.8776
 4664TIP3    H238188   1.156   6.254  17.026 -2.0341 -0.5085  0.4474
 4665TIP3   OH238189   5.201   2.239  18.610 -0.0041  0.0452 -0.6002
 4665TIP3    H138190   5.223   2.331  18.622  0.7242 -0.3320  1.2453
 4665TIP3    H238191   5.122   2.240  18.556 -1.7489  1.9198  1.7662
 4666TIP3   OH238192   0.521   3.314  17.809  0.0086 -0.5364 -0.3069
 4666TIP3    H138193   0.607   3.353  17.790 -0.6271  0.4078 -1.3645
 4666TIP3    H238194   0.469   3.386  17.845 -0.4521 -1.0174  0.0068
 4667TIP3   OH238195   5.743   0.617  18.970  0.7862 -0.4182 -0.2075
 4667TIP3    H138196   5.781   0.534  18.943 -0.2486 -1.0015  0.0717
 4667TIP3    H238197   5.649   0.607  18.955  0.4633  0.1373  1.1982
 4668TIP3   OH238198   6.911   0.956  16.620  0.5805 -0.0618 -0.5512
 4668TIP3    H138199   6.903   0.886  16.685 -0.0885 -0.3306 -0.9119
 4668TIP3    H238200   6.980   0.926  16.562  0.6233 -0.2027 -0.4295
 4669TIP3   OH238201   0.349   2.881  18.139 -0.4032 -0.5368  0.3807
 4669TIP3    H138202   0.385   2.833  18.215 -1.0318 -0.6518  0.6172
 4669TIP3    H238203   0.341   2.971  18.169  0.4250 -0.3518  0.0632
 4670TIP3   OH238204   1.780   6.076  19.039  0.4106  0.0298 -0.3690
 4670TIP3    H138205   1.854   6.016  19.050 -0.0578 -0.3823  0.7823
 4670TIP3    H238206   1.818   6.155  19.002  1.3318 -0.3861 -0.3393
 4671TIP3   OH238207   6.663   2.970  18.611  0.6451  0.1315  0.1135
 4671TIP3    H138208   6.641   2.920  18.689  1.3556 -2.4432 -1.2217
 4671TIP3    H238209   6.584   3.022  18.593 -0.1910 -0.5883  1.4967
 4672TIP3   OH238210   4.176   3.765  18.066  0.3333 -0.1783 -0.6786
 4672TIP3    H138211   4.241   3.738  18.001  0.9869 -0.8097  0.2075
 4672TIP3    H238212   4.169   3.690  18.126 -1.1486 -0.0924 -0.6955
 4673TIP3   OH238213   0.940   5.749  18.640  0.1973  0.4430 -0.2754
 4673TIP3    H138214   0.961   5.769  18.732 -2.0218 -2.0430  0.9195
 4673TIP3    H238215   0.998   5.676  18.618 -2.6657 -2.5179  1.0909
 4674TIP3   OH238216   4.824   0.175  18.019  0.1566  0.1162 -0.2853
 4674TIP3    H138217   4.844   0.093  17.974  0.8256 -0.4980  1.1067
 4674TIP3    H238218   4.747   0.209  17.972 -0.5838 -1.6604 -0.4512
 4675TIP3   OH238219   7.496   6.812  17.167  0.1248 -0.3448  0.2439
 4675TIP3    H138220   7.434   6.885  17.162  0.6038  0.2150  1.7911
 4675TIP3    H238221   7.525   6.798  17.077 -0.2111  1.1944 -0.1266
 4676TIP3   OH238222   7.418   5.792  17.450  0.4525 -0.2180 -0.1491
 4676TIP3    H138223   7.469   5.801  17.531  1.4909 -2.6349 -0.4605
 4676TIP3    H238224   7.468   5.730  17.397 -0.3516  1.1106 -2.5748
 4677TIP3   OH238225   5.071   7.283  17.255 -0.1539  0.3064  0.3734
 4677TIP3    H138226   5.066   7.193  17.222 -3.5387  0.3140  0.4817
 4677TIP3    H238227   5.068   7.338  17.177  0.7264  0.3594  0.3658
 4678TIP3   OH238228   3.267   0.197  17.660  0.5743 -0.3307  0.1911
 4678TIP3    H138229   3.233   0.197  17.570  0.8343 -1.4280  0.0771
 4678TIP3    H238230   3.324   0.274  17.664  1.2459 -0.7489 -0.8632
 4679TIP3   OH238231   5.054   0.215  19.243 -0.1453  0.4826  0.1063
 4679TIP3    H138232   5.055   0.126  19.208  0.6221  1.0882 -1.5527
 4679TIP3    H238233   4.979   0.217  19.303 -0.1301 -1.2782  0.2257
 4680TIP3   OH238234   5.045   3.715  18.016 -0.4081  0.1036 -0.5801
 4680TIP3    H138235   5.019   3.653  17.948 -0.4511 -0.1527 -0.3261
 4680TIP3    H238236   5.044   3.665  18.097 -0.2308  0.3790 -0.4062
 4681TIP3   OH238237   6.076   2.966  18.167 -0.1119  0.1460 -0.4456
 4681TIP3    H138238   6.007   3.029  18.187 -0.2083  0.2281 -1.0130
 4681TIP3    H238239   6.045   2.921  18.088 -1.5108 -2.7334  1.5414
 4682TIP3   OH238240   7.427   0.448  18.942 -0.0380 -0.6079 -0.1275
 4682TIP3    H138241   7.347   0.492  18.913  1.0000  0.7959 -1.0136
 4682TIP3    H238242   7.498   0.496  18.899  1.3103 -1.6001  0.8816
 4683TIP3   OH238243   3.372   6.635  17.953 -0.2263  0.2482  0.2716
 4683TIP3    H138244   3.408   6.571  17.893  0.6719 -0.1517  1.2112
 4683TIP3    H238245   3.378   6.719  17.906  2.6854  0.3423  0.6557
 4684TIP3   OH238246   3.730   2.252  19.172 -0.7374 -0.3636  0.1989
 4684TIP3    H138247   3.694   2.189  19.235  0.1433 -2.3213 -1.1593
 4684TIP3    H238248   3.803   2.205  19.131 -0.3984  1.3667 -1.2836
 4685TIP3   OH238249   4.360   2.461  17.678 -0.2225 -0.6253 -0.0792
 4685TIP3    H138250   4.410   2.464  17.760  0.0977 -0.2301 -0.2898
 4685TIP3    H238251   4.352   2.368  17.659  1.7361 -0.6871 -0.8257
 4686TIP3   OH238252   4.706   4.303  18.654  0.4251 -0.4533  0.2509
 4686TIP3    H138253   4.640   4.363  18.689  0.5560  1.2555 -2.1684
 4686TIP3    H238254   4.789   4.346  18.671  0.8060 -1.6235  1.4744
 4687TIP3   OH238255   5.109   6.975  19.214  0.2166 -0.3500  0.3133
 4687TIP3    H138256   5.029   7.021  19.239  0.1578 -0.3319  0.0912
 4687TIP3    H238257   5.090   6.938  19.128  0.7310  0.3239 -0.0935
 4688TIP3   OH238258   3.523   6.350  18.966  0.2973 -0.1542 -0.1029
 4688TIP3    H138259   3.576   6.274  18.940  0.8374 -0.6101  2.1461
 4688TIP3    H238260   3.586   6.417  18.991 -0.0790 -0.6779  2.5436
 4689TIP3   OH238261   1.297   2.201  18.565  0.1452 -0.1942  0.3465
 4689TIP3    H138262   1.355   2.242  18.500 -1.4938 -0.5662 -1.4465
 4689TIP3    H238263   1.269   2.120  18.523 -1.8500  0.0891  1.0621
 4690TIP3   OH238264   2.725   1.593  17.918  0.6802  0.0914  0.2126
 4690TIP3    H138265   2.811   1.604  17.959 -0.5279  0.4102  2.8557
 4690TIP3    H238266   2.667   1.572  17.991 -1.4726 -0.2511 -1.5252
 4691TIP3   OH238267   3.443   0.642  17.883 -0.5747 -0.7016  0.1486
 4691TIP3    H138268   3.441   0.592  17.801 -0.7647  0.3740 -0.5226
 4691TIP3    H238269   3.367   0.701  17.877  1.2036  1.6700 -0.3974
 4692TIP3   OH238270   6.557   2.239  18.213  0.1668 -0.3684  0.0882
 4692TIP3    H138271   6.645   2.210  18.187  0.7373  2.4305 -1.5789
 4692TIP3    H238272   6.573   2.303  18.283 -0.9852 -3.1240  3.1354
 4693TIP3   OH238273   6.661   1.412  16.909 -0.6774 -0.2311  0.3368
 4693TIP3    H138274   6.573   1.374  16.902 -0.3585 -0.8491 -0.3970
 4693TIP3    H238275   6.670   1.465  16.830 -0.2283 -0.5097  0.2017
 4694TIP3   OH238276   1.220   1.603  17.267 -0.2949  0.5029  0.0636
 4694TIP3    H138277   1.224   1.544  17.342  0.6301 -0.4854 -0.7192
 4694TIP3    H238278   1.292   1.664  17.281  0.6755 -0.4459 -0.5903
 4695TIP3   OH238279   1.877   0.167  17.819 -0.3125  0.7678 -0.1140
 4695TIP3    H138280   1.923   0.110  17.881 -0.3673 -1.3305 -1.8774
 4695TIP3    H238281   1.945   0.198  17.760 -0.9083 -1.9319 -2.4197
 4696TIP3   OH238282   2.873   2.701  18.391 -0.0829  0.0702  0.1815
 4696TIP3    H138283   2.927   2.668  18.318 -0.4087 -0.4337  0.1663
 4696TIP3    H238284   2.783   2.688  18.362 -0.2327 -1.4587  1.2484
 4697TIP3   OH238285   1.653   1.186  17.732 -0.2307 -0.2969 -0.0509
 4697TIP3    H138286   1.732   1.201  17.784  0.0575  0.5751 -0.7019
 4697TIP3    H238287   1.582   1.182  17.796  0.3328 -1.0725  0.5411
 4698TIP3   OH238288   1.669   6.817  17.167 -0.0696  0.6211  0.0589
 4698TIP3    H138289   1.591   6.848  17.122  1.5589  0.8978 -2.8322
 4698TIP3    H238290   1.679   6.726  17.138  1.3176  0.9637 -0.6260
 4699TIP3   OH238291   1.442   5.875  17.152 -0.1868  0.4065 -0.5133
 4699TIP3    H138292   1.408   5.785  17.149  0.4176  0.1256  0.5293
 4699TIP3    H238293   1.364   5.930  17.152 -0.9036 -0.2561  3.8759
 4700TIP3   OH238294   5.596   6.061  16.914  0.7948 -0.1177  0.0265
 4700TIP3    H138295   5.683   6.024  16.926  0.8140 -0.5249 -1.1404
 4700TIP3    H238296   5.546   6.031  16.990  1.3301 -0.9564  0.0577
 4701TIP3   OH238297   1.692   6.413  17.797  0.5005 -0.6184 -0.5056
 4701TIP3    H138298   1.707   6.322  17.822  2.3519 -1.1617 -3.1796
 4701TIP3    H238299   1.778   6.453  17.800 -0.4758  1.5377  2.0093
 4702TIP3   OH238300   3.337   1.330  19.212 -0.0780 -0.2834  0.1443
 4702TIP3    H138301   3.411   1.349  19.269 -0.1611  0.4188  0.0298
 4702TIP3    H238302   3.345   1.237  19.192  1.5867  0.0739 -1.0275
 4703TIP3   OH238303   2.654   2.200  18.789  0.7736  0.1016 -0.6951
 4703TIP3    H138304   2.691   2.286  18.807 -0.2193  0.0007  2.4106
 4703TIP3    H238305   2.598   2.214  18.712  0.5957  2.2574 -0.2411
 4704TIP3   OH238306   6.279   4.213  18.856 -0.1710  0.2944 -0.4600
 4704TIP3    H138307   6.307   4.188  18.768 -1.1678  0.6610 -0.8900
 4704TIP3    H238308   6.249   4.132  18.897  2.8251 -0.4524  0.5784
 4705TIP3   OH238309   2.853   6.922  19.419 -0.1965  0.3657  0.0208
 4705TIP3    H138310   2.808   6.942  19.501  0.0229  0.4184  0.1257
 4705TIP3    H238311   2.782   6.914  19.355 -0.2944  1.3643 -0.0041
 4706TIP3   OH238312   0.658   2.777  18.808 -0.0549  0.1490  0.0603
 4706TIP3    H138313   0.578   2.831  18.801  1.2901  2.0709 -1.8165
 4706TIP3    H238314   0.631   2.690  18.779 -1.8669  0.2466  1.2769
 4707TIP3   OH238315   6.799   1.839  18.512  0.0225  0.4707 -0.0238
 4707TIP3    H138316   6.758   1.866  18.595  1.3267 -0.9840  1.1397
 4707TIP3    H238317   6.734   1.782  18.470 -1.0398  1.9773 -0.5186
 4708TIP3   OH238318   0.525   2.048  19.154 -0.3764 -0.5798  0.3142
 4708TIP3    H138319   0.567   2.032  19.239 -1.3919  1.0942  1.1804
 4708TIP3    H238320   0.455   2.111  19.173 -0.1556  0.4143 -1.8895
 4709TIP3   OH238321   7.309   6.979  17.070 -0.8616 -0.2926  0.3711
 4709TIP3    H138322   7.357   6.985  16.988  0.7924  2.5376  1.3876
 4709TIP3    H238323   7.233   7.036  17.058 -1.9198 -1.6844  0.1089
 4710TIP3   OH238324   6.235   6.145  19.230 -0.2258 -0.3253 -0.3463
 4710TIP3    H138325   6.195   6.231  19.247 -0.4628 -0.5055  0.0259
 4710TIP3    H238326   6.296   6.132  19.302 -2.1253 -1.6383  1.1444
 4711TIP3   OH238327   1.294   5.752  18.483  0.6560  0.1244 -0.1124
 4711TIP3    H138328   1.260   5.691  18.548  0.2321 -0.7955 -1.1674
 4711TIP3    H238329   1.374   5.786  18.522  2.0079 -2.5958 -0.2666
 4712TIP3   OH238330   5.113   6.393  19.444 -0.5900  0.0091  0.0607
 4712TIP3    H138331   5.207   6.406  19.461 -0.4612 -1.4198  0.5608
 4712TIP3    H238332   5.093   6.455  19.374  0.5345  0.9322  0.5157
 4713TIP3   OH238333   6.850   0.743  18.569  0.4129 -0.2705 -0.3889
 4713TIP3    H138334   6.793   0.816  18.591  0.9949  0.3083 -0.7493
 4713TIP3    H238335   6.880   0.710  18.654 -0.2295 -0.4006 -0.2092
 4714TIP3   OH238336   7.649   0.598  18.870 -0.7044  0.2628  0.1984
 4714TIP3    H138337   7.676   0.668  18.810  0.3182 -0.0420  0.2868
 4714TIP3    H238338   7.702   0.612  18.949 -2.6527  1.1809  1.4043
 4715TIP3   OH238339   6.723   4.952  17.165  0.0658  0.2217  0.3614
 4715TIP3    H138340   6.734   5.040  17.129  1.9115  0.2363  0.8234
 4715TIP3    H238341   6.759   4.894  17.098 -1.2275 -0.2154  0.0197
 4716TIP3   OH238342   7.571   2.132  17.989  0.1087 -0.2137  0.1623
 4716TIP3    H138343   7.645   2.150  17.931  0.0658  1.2673  0.5366
 4716TIP3    H238344   7.515   2.073  17.939  1.2824 -0.9534 -0.3257
 4717TIP3   OH238345   2.083   4.704  19.294 -0.3341 -0.7718 -0.3575
 4717TIP3    H138346   2.027   4.774  19.327 -0.2331  0.3191 -2.3373
 4717TIP3    H238347   2.027   4.627  19.291 -1.1399 -0.1931 -0.3988
 4718TIP3   OH238348   2.763   3.236  19.145 -0.2510 -0.4709  0.2120
 4718TIP3    H138349   2.730   3.326  19.145  0.6274 -0.1373 -0.1031
 4718TIP3    H238350   2.728   3.197  19.065  1.1225  0.2823 -0.8036
 4719TIP3   OH238351   4.771   2.067  16.640  0.7699 -0.0730 -0.2979
 4719TIP3    H138352   4.721   2.145  16.662 -0.8927  0.4117 -4.7005
 4719TIP3    H238353   4.851   2.102  16.598  1.0640 -0.7547 -0.3146
 4720TIP3   OH238354   1.354   5.989  17.643 -0.7369 -0.0206 -0.3693
 4720TIP3    H138355   1.339   5.987  17.738 -0.5127  0.3333 -0.3242
 4720TIP3    H238356   1.334   6.079  17.618  1.1605  0.4509 -0.3280
 4721TIP3   OH238357   0.038   1.292  19.009  0.5391  0.2691  0.3015
 4721TIP3    H138358   0.028   1.258  18.920  1.4245  0.6994  0.0263
 4721TIP3    H238359   0.101   1.234  19.051 -1.1866 -0.9959  1.2495
 4722TIP3   OH238360   5.988   5.610  17.983 -0.5843 -0.3903  0.0887
 4722TIP3    H138361   5.969   5.622  17.890 -0.2408  0.0575  0.0759
 4722TIP3    H238362   6.051   5.538  17.986 -1.3190 -1.0592  0.0471
 4723TIP3   OH238363   7.480   2.212  16.818  0.4976 -0.0698 -0.4883
 4723TIP3    H138364   7.442   2.146  16.761  0.2548  1.1149 -1.7701
 4723TIP3    H238365   7.410   2.237  16.878 -0.2348  0.8332 -1.6817
 4724TIP3   OH238366   3.616   3.733  17.690  0.2925  0.0754  0.4409
 4724TIP3    H138367   3.661   3.815  17.710  2.4100 -0.8964 -0.1117
 4724TIP3    H238368   3.643   3.711  17.601  0.2012 -1.4829  0.7663
 4725TIP3   OH238369   5.440   6.083  17.986  0.2377  0.4438 -0.4410
 4725TIP3    H138370   5.361   6.129  17.959 -1.1234 -0.6368  1.4737
 4725TIP3    H238371   5.445   6.007  17.927 -1.1191 -0.3762  0.4561
 4726TIP3   OH238372   6.490   4.565  18.112  0.3406 -0.6856 -0.3637
 4726TIP3    H138373   6.442   4.482  18.116 -0.0879 -0.4330  3.1292
 4726TIP3    H238374   6.572   4.548  18.159  0.6710  0.6054 -0.4257
 4727TIP3   OH238375   6.729   5.752  17.390 -0.0362 -0.8544  0.3270
 4727TIP3    H138376   6.691   5.665  17.378 -0.8300 -0.9178  2.7562
 4727TIP3    H238377   6.686   5.807  17.324 -0.1518 -2.1032 -0.6651
 4728TIP3   OH238378   1.138   7.434  18.135 -0.1838  0.0371  0.2549
 4728TIP3    H138379   1.178   7.521  18.143 -0.3813  0.1199  0.3826
 4728TIP3    H238380   1.162   7.389  18.216 -0.8892  0.3219  0.6400
 4729TIP3   OH238381   5.781   0.831  19.153 -0.1888  0.6478  0.2922
 4729TIP3    H138382   5.770   0.789  19.238 -0.0397 -1.1423 -0.5371
 4729TIP3    H238383   5.773   0.760  19.089 -0.8838  2.0291 -1.2383
 4730TIP3   OH238384   1.914   6.509  17.950 -0.9439 -0.3776  0.0588
 4730TIP3    H138385   1.918   6.569  18.025  0.7870 -0.2812 -0.0531
 4730TIP3    H238386   1.975   6.438  17.974 -0.2022 -0.2356 -1.3321
 4731TIP3   OH238387   4.190   1.632  18.083 -1.0912  0.0648  0.5505
 4731TIP3    H138388   4.198   1.726  18.068 -0.9500 -0.1995 -1.2150
 4731TIP3    H238389   4.249   1.592  18.019 -0.6204 -1.2170  1.7371
 4732TIP3   OH238390   4.525   1.003  16.875 -0.5541 -0.2769 -0.4989
 4732TIP3    H138391   4.537   0.917  16.833  1.8651  0.1211 -0.7964
 4732TIP3    H238392   4.451   0.991  16.934 -1.3623 -2.0756 -1.7786
 4733TIP3   OH238393   0.230   3.464  16.780  0.1995 -0.1190 -0.2019
 4733TIP3    H138394   0.308   3.419  16.747 -0.6301 -0.7845 -1.3280
 4733TIP3    H238395   0.222   3.435  16.870  0.7528 -0.7393 -0.3441
 4734TIP3   OH238396   6.490   1.846  18.886  0.7335  0.5167 -0.4624
 4734TIP3    H138397   6.408   1.895  18.879 -0.3946 -1.3519 -1.0294
 4734TIP3    H238398   6.501   1.829  18.979 -1.9261 -2.8951 -0.5729
 4735TIP3   OH238399   5.015   7.600  18.796  0.1724 -0.3129  0.2384
 4735TIP3    H138400   5.004   7.677  18.853  0.5304 -0.2058  0.1620
 4735TIP3    H238401   5.057   7.535  18.852  1.2417  0.0574 -0.1184
 4736TIP3   OH238402   0.012   0.144  19.168  0.1397 -0.3720  0.2471
 4736TIP3    H138403   0.064   0.218  19.136 -0.4298  0.7176  1.7081
 4736TIP3    H238404   0.024   0.075  19.102  2.0708  0.4192 -0.2972
 4737TIP3   OH238405   1.589   0.406  17.293 -1.0603  0.1592  0.0579
 4737TIP3    H138406   1.613   0.361  17.212  0.9329 -2.8764  2.0872
 4737TIP3    H238407   1.663   0.464  17.311 -0.8554 -0.1873  0.3504
 4738TIP3   OH238408   7.290   2.270  17.013 -0.0192 -0.3842  0.0041
 4738TIP3    H138409   7.204   2.303  16.987  0.1480  0.2936  0.3064
 4738TIP3    H238410   7.270   2.192  17.065 -0.4512 -0.1588  0.1802
 4739TIP3   OH238411   1.617   6.650  18.907  0.5090 -0.0747 -0.5636
 4739TIP3    H138412   1.526   6.676  18.920  0.5194  0.7649 -1.8944
 4739TIP3    H238413   1.646   6.620  18.993 -1.2719 -1.2314 -0.3189
 4740TIP3   OH238414   6.288   5.702  17.556  0.0925 -0.6332  0.1232
 4740TIP3    H138415   6.342   5.649  17.498  0.0225 -0.3398 -0.2118
 4740TIP3    H238416   6.228   5.748  17.498  1.0906  0.9193  0.2834
 4741TIP3   OH238417   1.421   4.376  16.382  0.2166 -0.4756 -0.4274
 4741TIP3    H138418   1.439   4.469  16.372 -0.7145 -0.3413 -1.0228
 4741TIP3    H238419   1.503   4.333  16.359  0.5869  0.1879 -0.3717
 4742TIP3   OH238420   7.087   3.383  16.843 -0.6093 -0.1444 -0.3901
 4742TIP3    H138421   7.179   3.364  16.864 -1.3092 -0.9177  2.4389
 4742TIP3    H238422   7.061   3.450  16.906 -2.3911 -1.0776 -0.0695
 4743TIP3   OH238423   0.265   1.581  18.408  0.0331 -0.3600  0.3203
 4743TIP3    H138424   0.248   1.676  18.409 -1.5501 -0.4990 -2.5729
 4743TIP3    H238425   0.269   1.557  18.501  1.9479  2.7184  1.1731
 4744TIP3   OH238426   4.311   2.101  17.936  0.4543 -0.3362  0.0403
 4744TIP3    H138427   4.238   2.161  17.949 -0.4950 -1.3898 -0.2262
 4744TIP3    H238428   4.384   2.142  17.980  0.4384  2.0896 -1.9888
 4745TIP3   OH238429   4.938   7.212  18.921 -0.3341  0.1826 -0.1919
 4745TIP3    H138430   4.867   7.183  18.978  1.0422 -2.4390  0.3659
 4745TIP3    H238431   4.896   7.227  18.836 -2.1563  2.6165  1.0214
 4746TIP3   OH238432   4.363   2.338  17.369 -0.5881  0.5501 -0.1667
 4746TIP3    H138433   4.310   2.262  17.396 -0.3240  0.4352  0.0291
 4746TIP3    H238434   4.349   2.344  17.275  0.7010 -0.7559 -0.4659
 4747TIP3   OH238435   0.045   7.236  18.251 -0.3766 -0.6482  1.0226
 4747TIP3    H138436   0.064   7.307  18.191  0.8044 -2.1403 -0.4470
 4747TIP3    H238437  -0.021   7.272  18.311 -0.6519  1.2862 -0.3666
 4748TIP3   OH238438   6.958   0.316  17.274  0.1046  0.2185  0.1463
 4748TIP3    H138439   7.052   0.326  17.282  0.0121  0.7830  0.5434
 4748TIP3    H238440   6.947   0.249  17.206  0.7681  1.7062 -1.4963
 4749TIP3   OH238441   0.212   6.966  18.997  0.3673 -0.1592 -0.4429
 4749TIP3    H138442   0.225   7.053  19.033  0.9789 -0.0150 -0.9917
 4749TIP3    H238443   0.223   6.977  18.902 -1.1645 -0.5351 -0.6849
 4750TIP3   OH238444   6.284   5.313  17.576 -0.1968 -0.1811 -0.3358
 4750TIP3    H138445   6.300   5.335  17.668 -0.1363 -0.2779 -0.3230
 4750TIP3    H238446   6.197   5.350  17.558 -0.6910 -1.1133  0.0770
 4751TIP3   OH238447   0.694   2.645  16.750 -0.0852  0.2703  0.0421
 4751TIP3    H138448   0.606   2.609  16.765  0.2966 -0.7167 -0.0211
 4751TIP3    H238449   0.690   2.733  16.787 -1.2069  0.3657 -0.2722
 4752TIP3   OH238450   7.490   0.327  17.571 -0.3710  0.2828  0.0574
 4752TIP3    H138451   7.529   0.319  17.658 -1.0118  0.2204  0.3472
 4752TIP3    H238452   7.440   0.409  17.575 -0.2537  0.3747 -0.3151
 4753TIP3   OH238453   6.009   6.071  18.386 -0.8709  0.2871  0.1268
 4753TIP3    H138454   6.042   5.994  18.434 -0.6976  0.1098 -0.2737
 4753TIP3    H238455   6.049   6.145  18.430 -0.5340  0.1122  0.1207
 4754TIP3   OH238456   6.590   2.375  18.466 -0.0690  0.1759  0.1266
 4754TIP3    H138457   6.679   2.350  18.487  0.2282  1.4196  0.4013
 4754TIP3    H238458   6.535   2.313  18.514  0.6255 -0.7264 -0.2071
 4755TIP3   OH238459   4.586   6.597  16.927 -0.3766  0.0200  0.3149
 4755TIP3    H138460   4.518   6.664  16.931  0.4593  1.1261 -2.2119
 4755TIP3    H238461   4.644   6.618  17.000 -0.7521  1.3271  0.2678
 4756TIP3   OH238462   2.021   6.499  16.839  0.0755  0.9410 -0.3468
 4756TIP3    H138463   1.956   6.473  16.904 -3.5134  2.4412 -3.0178
 4756TIP3    H238464   2.021   6.428  16.775  0.7913  1.1543 -0.5992
 4757TIP3   OH238465   3.584   3.004  17.569 -0.3288 -0.1339  0.6428
 4757TIP3    H138466   3.540   3.073  17.619  1.3314  0.3226  1.5492
 4757TIP3    H238467   3.590   2.930  17.630 -0.0247 -0.2561  0.4702
 4758TIP3   OH238468   4.644   4.408  18.042 -0.1039 -0.3295 -0.3374
 4758TIP3    H138469   4.611   4.345  17.977  1.8434  0.6159 -2.4242
 4758TIP3    H238470   4.680   4.479  17.989  2.3874  0.1122  1.7456
 4759TIP3   OH238471   5.884   2.685  16.940 -0.3450  0.0705 -0.7705
 4759TIP3    H138472   5.905   2.600  16.977  1.3858  0.2440 -1.2389
 4759TIP3    H238473   5.926   2.685  16.854  1.2152  1.9790 -0.1073
 4760TIP3   OH238474   4.716   3.912  18.125 -0.2611 -0.4655  0.0638
 4760TIP3    H138475   4.748   3.833  18.166  1.5487  0.6778  0.9850
 4760TIP3    H238476   4.726   3.980  18.191 -1.7185  0.5664 -0.7085
 4761TIP3   OH238477   5.253   3.884  19.105  0.1221  0.0844 -0.3147
 4761TIP3    H138478   5.252   3.843  19.018  0.5991 -0.4713 -0.0713
 4761TIP3    H238479   5.195   3.959  19.097  0.8213  0.5447 -1.3686
 4762TIP3   OH238480   2.691   4.177  17.328 -0.4447  0.4814 -0.3191
 4762TIP3    H138481   2.748   4.244  17.365 -0.2474  0.4960 -0.6453
 4762TIP3    H238482   2.630   4.225  17.273 -0.9581  0.4959  0.2447
 4763TIP3   OH238483   1.122   0.811  17.357  0.3495 -0.2517 -0.7437
 4763TIP3    H138484   1.121   0.897  17.315  1.9056 -0.5781 -1.5086
 4763TIP3    H238485   1.167   0.754  17.294 -1.3418 -1.8348 -0.6056
 4764TIP3   OH238486   4.898   3.408  17.473 -0.0706  0.1166  0.3212
 4764TIP3    H138487   4.989   3.379  17.483  0.9250  2.1677 -1.8722
 4764TIP3    H238488   4.889   3.481  17.534  0.1435  0.6834 -0.3204
 4765TIP3   OH238489   5.660   3.503  17.958 -0.3723 -0.3617 -0.3780
 4765TIP3    H138490   5.672   3.554  17.878 -0.4380 -2.5160 -1.8698
 4765TIP3    H238491   5.586   3.445  17.938 -0.9070 -0.4350  1.5620
 4766TIP3   OH238492   3.554   4.945  18.896  0.3377 -0.3967  0.2950
 4766TIP3    H138493   3.551   5.040  18.898  0.4787 -0.3248 -1.3371
 4766TIP3    H238494   3.476   4.920  18.845  0.7509 -1.0962 -0.0051
 4767TIP3   OH238495   0.872   3.112  18.135  0.2294  0.1029  0.4222
 4767TIP3    H138496   0.911   3.188  18.179  0.5827  0.1589  0.0160
 4767TIP3    H238497   0.791   3.146  18.097  1.1324  0.6664 -1.0677
 4768TIP3   OH238498   7.197   4.153  17.236 -0.1976  0.3305  0.1105
 4768TIP3    H138499   7.142   4.083  17.271  0.3736 -1.2034 -1.8321
 4768TIP3    H238500   7.155   4.177  17.153  1.9172 -0.8789 -1.4245
 4769TIP3   OH238501   7.028   3.440  17.498  0.3896 -0.7430 -0.3361
 4769TIP3    H138502   7.088   3.380  17.454  0.6659  0.8024 -2.2115
 4769TIP3    H238503   7.078   3.521  17.508  0.2325 -0.9372  2.6932
 4770TIP3   OH238504   2.752   6.643  19.218  0.1260  0.9041 -0.1535
 4770TIP3    H138505   2.676   6.648  19.277 -0.0880  0.0893 -0.3541
 4770TIP3    H238506   2.762   6.733  19.185 -1.3523  0.8316 -0.8837
 4771TIP3   OH238507   0.454   4.619  16.167 -0.2877 -0.4095 -0.3449
 4771TIP3    H138508   0.418   4.540  16.126  0.5442  0.0712 -2.1249
 4771TIP3    H238509   0.502   4.587  16.243  1.2113 -1.8551 -1.8045
 4772TIP3   OH238510   5.430   3.133  19.281 -0.0424  0.4585 -0.2090
 4772TIP3    H138511   5.367   3.138  19.209  0.3720 -1.5497 -0.7642
 4772TIP3    H238512   5.377   3.145  19.360 -1.2917 -1.7347 -0.6203
 4773TIP3   OH238513   6.159   5.352  19.587  0.0959 -0.0281 -0.1090
 4773TIP3    H138514   6.159   5.365  19.492 -0.1002  1.2472  0.0498
 4773TIP3    H238515   6.089   5.288  19.602 -0.3478  0.2894 -0.7659
 4774TIP3   OH238516   6.263   2.150  19.139  0.2536 -0.0998 -0.1425
 4774TIP3    H138517   6.177   2.114  19.120 -0.3147  0.3630  1.4027
 4774TIP3    H238518   6.270   2.147  19.234  0.7316  2.5386 -0.0140
 4775TIP3   OH238519   5.067   7.003  17.204 -0.1110 -0.4376  0.8857
 4775TIP3    H138520   5.049   6.914  17.233  1.3625 -0.5099  1.6643
 4775TIP3    H238521   5.060   7.000  17.109 -0.3158 -1.3227  0.9232
 4776TIP3   OH238522   5.069   2.724  19.355 -0.3099  0.2675  0.0893
 4776TIP3    H138523   5.098   2.814  19.340  0.1648 -0.1903 -2.1080
 4776TIP3    H238524   4.984   2.719  19.312 -0.0418 -0.4771 -0.3822
 4777TIP3   OH238525   0.367   1.976  18.394  0.1907 -0.3233  0.5876
 4777TIP3    H138526   0.298   1.918  18.425  0.1664  0.3442  1.8658
 4777TIP3    H238527   0.386   2.033  18.469  0.4584  1.0809 -0.5032
 4778TIP3   OH238528   3.389   5.295  17.701  0.0971  0.4406  0.2137
 4778TIP3    H138529   3.468   5.346  17.687  0.3165  0.5366  1.6380
 4778TIP3    H238530   3.339   5.345  17.766 -0.8501  0.0738 -0.2007
 4779TIP3   OH238531   0.794   5.507  17.127 -0.0848 -0.5175  0.2648
 4779TIP3    H138532   0.811   5.573  17.059 -0.8335  0.6078  1.1279
 4779TIP3    H238533   0.880   5.489  17.165  0.2859 -0.8708 -0.7004
 4780TIP3   OH238534   4.063   3.037  18.176 -0.1260  0.1119  0.3144
 4780TIP3    H138535   4.062   2.942  18.180  0.5760  0.0766 -0.2282
 4780TIP3    H238536   4.154   3.061  18.193 -0.0298  0.6206 -0.8374
 4781TIP3   OH238537   0.731   2.974  19.023 -0.8701  0.2928  0.1008
 4781TIP3    H138538   0.713   2.916  18.949  1.6909  0.5000 -0.7675
 4781TIP3    H238539   0.743   2.915  19.098 -0.2715 -0.1470 -0.3410
 4782TIP3   OH238540   5.814   5.699  17.375  0.1759 -0.2956 -0.5481
 4782TIP3    H138541   5.786   5.783  17.340  0.2345  0.0494  0.2149
 4782TIP3    H238542   5.859   5.656  17.302 -1.1379 -0.2978 -1.3798
 4783TIP3   OH238543   1.792   2.215  16.369 -0.4187  0.5577  0.2960
 4783TIP3    H138544   1.713   2.180  16.411 -1.2533  1.8185 -0.1590
 4783TIP3    H238545   1.846   2.138  16.352 -3.1300 -0.9166 -2.7269
 4784TIP3   OH238546   0.482   1.236  17.579 -0.1000  0.0818 -0.1474
 4784TIP3    H138547   0.455   1.291  17.506  0.4816  0.4050 -0.1230
 4784TIP3    H238548   0.421   1.259  17.650 -2.3100 -2.0479 -1.2495
 4785TIP3   OH238549   7.128   2.378  17.848  0.5080 -0.2430  0.2013
 4785TIP3    H138550   7.082   2.459  17.826 -1.3469 -1.5560 -1.1194
 4785TIP3    H238551   7.088   2.349  17.931  2.8225  1.2991  1.9762
 4786TIP3   OH238552   5.502   1.751  19.368  0.5014  0.3852  0.2011
 4786TIP3    H138553   5.454   1.814  19.422 -1.0839 -2.7792  2.8988
 4786TIP3    H238554   5.442   1.730  19.297 -0.1448 -0.0168  0.8461
 4787TIP3   OH238555   0.761   4.997  18.921  0.2818  0.0992 -0.0782
 4787TIP3    H138556   0.796   4.938  18.854  2.2796  0.3285  0.6746
 4787TIP3    H238557   0.689   4.949  18.961  1.4592 -1.5973  0.0936
 4788TIP3   OH238558   2.240   5.917  18.591 -0.3863 -0.0184 -0.3847
 4788TIP3    H138559   2.232   5.829  18.627 -1.1570  0.2781  0.1898
 4788TIP3    H238560   2.156   5.935  18.550  0.2753 -0.1254 -1.8844
 4789TIP3   OH238561   5.457   2.827  17.842  0.5418  0.0214  0.1457
 4789TIP3    H138562   5.374   2.844  17.886  1.0371 -0.2826  1.2337
 4789TIP3    H238563   5.494   2.752  17.889  1.7322  0.5741  0.1290
 4790TIP3   OH238564   6.458   1.976  18.155 -0.0482 -0.3105  0.1946
 4790TIP3    H138565   6.491   2.059  18.187  0.3692  0.2036 -1.4984
 4790TIP3    H238566   6.369   1.995  18.126 -0.5323 -0.8411  1.2561
 4791TIP3   OH238567   0.297   5.420  18.673 -0.5296  0.0885 -0.1354
 4791TIP3    H138568   0.286   5.468  18.591  2.1026  2.3559  0.6564
 4791TIP3    H238569   0.388   5.436  18.697 -0.1759 -3.4516  1.4970
 4792TIP3   OH238570   4.124   0.009  18.920  0.0056  0.4137 -0.1830
 4792TIP3    H138571   4.211  -0.019  18.948  0.7654 -0.3751 -3.0598
 4792TIP3    H238572   4.135   0.101  18.895 -0.5996  1.0205  1.5889
 4793TIP3   OH238573   5.001   4.192  17.640 -0.0542 -0.1925 -0.0956
 4793TIP3    H138574   5.008   4.277  17.683  2.1784  0.6348 -1.8615
 4793TIP3    H238575   5.075   4.141  17.674  0.2225 -0.4326 -1.0212
 4794TIP3   OH238576   1.758   2.262  17.813  0.0290  0.2854  0.3235
 4794TIP3    H138577   1.732   2.176  17.781  0.6751  0.6687 -1.3622
 4794TIP3    H238578   1.850   2.252  17.837 -0.0090  0.4002  0.5155
 4795TIP3   OH238579   4.994   2.425  18.819  0.2782  0.9443  0.1601
 4795TIP3    H138580   4.966   2.460  18.734 -0.3020 -2.2979 -1.1002
 4795TIP3    H238581   4.914   2.417  18.870 -0.0763 -1.0604 -0.6158
 4796TIP3   OH238582   4.397   4.418  18.307  0.3140 -0.7182  0.2349
 4796TIP3    H138583   4.406   4.334  18.262  0.3443 -0.3312 -0.4986
 4796TIP3    H238584   4.448   4.480  18.254 -0.6673  0.0038  0.0946
 4797TIP3   OH238585   2.571   0.872  18.076  0.2520 -0.1138  0.3107
 4797TIP3    H138586   2.577   0.908  18.165 -3.9118  0.2733  0.6044
 4797TIP3    H238587   2.534   0.785  18.088 -0.6896  0.0765 -1.0560
 4798TIP3   OH238588   1.002   1.111  17.185 -0.0207  0.4098  0.0645
 4798TIP3    H138589   0.952   1.190  17.163 -1.1606  0.2390  1.8283
 4798TIP3    H238590   1.093   1.139  17.184 -0.3828  1.6620  0.2659
 4799TIP3   OH238591   7.322   4.588  17.958  0.2735  0.2347 -0.4604
 4799TIP3    H138592   7.250   4.647  17.940  0.0536 -0.6297 -2.8116
 4799TIP3    H238593   7.389   4.610  17.892  1.9503  0.6313  1.2797
 4800TIP3   OH238594   4.505   3.286  18.710 -0.2045 -0.1351 -0.2317
 4800TIP3    H138595   4.512   3.381  18.714 -0.6883 -0.1081  0.0774
 4800TIP3    H238596   4.490   3.260  18.801  2.1827 -0.7092  0.0676
 4801TIP3   OH238597   1.990   2.418  19.429  0.2147 -0.1114  0.7041
 4801TIP3    H138598   2.056   2.352  19.410  0.6589  0.4586  0.2641
 4801TIP3    H238599   2.021   2.497  19.385 -0.1598  0.4751  1.4731
 4802TIP3   OH238600   3.483   6.092  17.144  0.8465  0.6212 -0.0490
 4802TIP3    H138601   3.416   6.085  17.076  0.2718  1.1314  0.4530
 4802TIP3    H238602   3.457   6.168  17.197  0.9383 -0.1072  1.0946
 4803TIP3   OH238603   0.161   6.661  17.585  0.1502  0.3055 -0.2314
 4803TIP3    H138604   0.125   6.694  17.503 -0.8729  0.8082  0.4103
 4803TIP3    H238605   0.248   6.702  17.591 -0.4342  1.5851 -0.2591
 4804TIP3   OH238606   3.587   3.250  17.730 -0.5473  0.0259  0.4546
 4804TIP3    H138607   3.637   3.324  17.697  0.0217 -0.6351 -0.1802
 4804TIP3    H238608   3.634   3.222  17.809 -0.5599  0.1040  0.4891
 4805TIP3   OH238609   2.067   3.146  18.994  0.1555 -0.3401  0.5682
 4805TIP3    H138610   2.140   3.208  18.994 -0.2934  0.1902  0.9546
 4805TIP3    H238611   2.046   3.133  19.086 -0.0501 -0.7272  0.4706
 4806TIP3   OH238612   5.917   4.125  17.579  0.5165 -0.2844 -0.0667
 4806TIP3    H138613   6.006   4.103  17.605  0.4752  1.0658  1.3087
 4806TIP3    H238614   5.863   4.057  17.619  0.6398  0.7328  1.9222
 4807TIP3   OH238615   7.175   3.674  17.542 -0.3564  0.0305 -0.4051
 4807TIP3    H138616   7.229   3.670  17.464  0.0437 -1.0852 -0.0796
 4807TIP3    H238617   7.236   3.664  17.615 -0.9122 -0.5932 -0.0128
 4808TIP3   OH238618   6.831   7.324  16.962  0.2782 -0.0161 -0.0954
 4808TIP3    H138619   6.901   7.268  16.999 -0.5783 -1.4857 -0.6050
 4808TIP3    H238620   6.751   7.274  16.976 -0.7579  1.7807  0.7439
 4809TIP3   OH238621   4.972   1.821  17.859 -0.1557 -0.9596  0.3531
 4809TIP3    H138622   4.983   1.757  17.789 -0.3656  0.2069 -0.7745
 4809TIP3    H238623   4.924   1.773  17.927  0.2065 -2.1652 -0.2028
 4810TIP3   OH238624   0.450   2.876  17.459  0.3726  0.0365  0.2471
 4810TIP3    H138625   0.449   2.802  17.397  1.9223 -0.4368  0.7512
 4810TIP3    H238626   0.424   2.836  17.542  0.7590  0.1606  0.4237
 4811TIP3   OH238627   6.907   1.316  17.327 -0.5964  0.3318 -0.6003
 4811TIP3    H138628   6.925   1.402  17.364 -0.8871  0.4073 -0.6328
 4811TIP3    H238629   6.836   1.331  17.264 -1.1865 -0.0554 -0.0478
 4812TIP3   OH238630   3.785   2.818  17.886  0.3428  0.3213  0.3116
 4812TIP3    H138631   3.736   2.801  17.966 -2.2387 -2.8815 -1.7140
 4812TIP3    H238632   3.860   2.758  17.891  0.4225  0.4297  0.4605
 4813TIP3   OH238633   0.894   4.828  18.708 -0.2818  0.4363  0.2668
 4813TIP3    H138634   0.885   4.734  18.721  1.3835  0.2882  0.5850
 4813TIP3    H238635   0.986   4.840  18.685  0.1871  2.2338  2.6990
 4814TIP3   OH238636   3.022   3.209  17.330  0.2434 -0.1659  0.0895
 4814TIP3    H138637   3.019   3.220  17.235  0.9543  1.0496  0.1887
 4814TIP3    H238638   2.973   3.128  17.346  2.6740 -2.1173 -1.5779
 4815TIP3   OH238639   0.030   2.362  16.790 -0.1592 -0.1344  0.3914
 4815TIP3    H138640   0.079   2.284  16.816 -0.0665  0.1627  1.1395
 4815TIP3    H238641  -0.060   2.332  16.783  0.0214 -0.5286 -0.3073
 4816TIP3   OH238642   0.721   3.406  19.382  0.0773 -0.4151 -0.4605
 4816TIP3    H138643   0.716   3.499  19.407 -1.2034 -0.5969 -0.0042
 4816TIP3    H238644   0.725   3.407  19.286 -0.2570  0.1009 -0.4730
 4817TIP3   OH238645   1.791   3.371  17.544 -0.5864  0.4747  0.3740
 4817TIP3    H138646   1.861   3.436  17.537 -0.1990 -0.0050 -0.3126
 4817TIP3    H238647   1.811   3.307  17.477  1.5249 -2.7682  3.7311
 4818TIP3   OH238648   5.789   2.712  17.718  0.4666 -0.0942  0.3783
 4818TIP3    H138649   5.821   2.796  17.684  1.5690 -0.6887 -0.0759
 4818TIP3    H238650   5.727   2.682  17.652 -1.3067  1.1674  1.3701
 4819TIP3   OH238651   6.415   3.172  18.575  0.2519 -0.1120 -0.0021
 4819TIP3    H138652   6.374   3.255  18.598  1.3157 -0.0967  2.0189
 4819TIP3    H238653   6.343   3.119  18.539 -0.9468  0.8448  0.9108
 4820TIP3   OH238654   1.706   5.250  17.040 -0.5424 -0.2481  0.0822
 4820TIP3    H138655   1.635   5.309  17.062 -0.2143 -0.1013  0.7890
 4820TIP3    H238656   1.764   5.252  17.117 -1.4896 -2.9358  0.9816
 4821TIP3   OH238657   6.543   3.710  19.201 -0.6799  0.0544  0.0043
 4821TIP3    H138658   6.595   3.697  19.122 -2.1897 -0.3038 -0.9893
 4821TIP3    H238659   6.541   3.804  19.214  0.5628  0.0477  0.3256
 4822TIP3   OH238660   7.521   6.528  18.438  0.0958  0.7888 -0.7637
 4822TIP3    H138661   7.520   6.580  18.518  1.7697 -0.3182  0.0322
 4822TIP3    H238662   7.515   6.438  18.468 -1.3109  0.4238 -2.0313
 4823TIP3   OH238663   5.606   6.353  16.891 -0.1371 -0.0237  0.6382
 4823TIP3    H138664   5.651   6.341  16.807 -0.5055  0.0597  0.4271
 4823TIP3    H238665   5.621   6.271  16.937  0.4880  0.1182  0.6915
 4824TIP3   OH238666   4.790   1.664  18.298 -0.2690 -0.0248  0.2190
 4824TIP3    H138667   4.885   1.656  18.300 -0.3341 -1.1431 -0.4451
 4824TIP3    H238668   4.773   1.727  18.228  0.0124  0.9002  0.9737
 4825TIP3   OH238669   5.786   4.039  18.107 -0.1143  0.6204 -0.1463
 4825TIP3    H138670   5.726   4.065  18.177 -0.7124  0.7098 -0.6806
 4825TIP3    H238671   5.734   4.048  18.027  0.3031 -0.2751 -0.5288
 4826TIP3   OH238672   6.090   3.418  17.392 -0.0081  0.3098  0.1767
 4826TIP3    H138673   6.182   3.391  17.392  0.3655  1.5073  1.2123
 4826TIP3    H238674   6.077   3.462  17.308 -0.1288 -1.3103 -0.7165
 4827TIP3   OH238675   1.322   7.517  19.391  0.0469 -0.1186  0.2082
 4827TIP3    H138676   1.267   7.468  19.331 -2.1035  1.3351  0.8741
 4827TIP3    H238677   1.319   7.468  19.473 -2.1598  1.0583  0.8962
 4828TIP3   OH238678   1.911   0.941  18.609  0.0946  0.9587 -0.2261
 4828TIP3    H138679   1.987   0.971  18.559  0.1342  1.2712  0.0161
 4828TIP3    H238680   1.942   0.863  18.654  0.1894  0.9248 -0.3505
 4829TIP3   OH238681   2.055   4.044  18.709 -0.1454  0.5630  0.3450
 4829TIP3    H138682   2.133   4.019  18.758 -1.8195 -0.4617  2.6880
 4829TIP3    H238683   2.078   4.027  18.618  1.9558 -0.8503  1.0579
 4830TIP3   OH238684   2.952   0.067  18.216  0.1119 -0.6988  0.0042
 4830TIP3    H138685   2.976   0.092  18.305 -2.3186  0.2138  0.4692
 4830TIP3    H238686   2.948   0.149  18.168 -2.2113 -0.7448  0.0384
 4831TIP3   OH238687   0.995   4.461  16.524  0.0145  0.1098 -0.2038
 4831TIP3    H138688   1.003   4.430  16.434  0.3908  1.7575 -0.7797
 4831TIP3    H238689   0.937   4.398  16.567 -0.1029 -0.7385 -1.5753
 4832TIP3   OH238690   0.617   5.765  16.955  0.1398 -0.8916  1.0003
 4832TIP3    H138691   0.707   5.736  16.970 -0.0417 -1.1556  1.6355
 4832TIP3    H238692   0.622   5.818  16.876  1.0815  0.1108  1.6926
 4833TIP3   OH238693   2.351   1.719  18.709 -0.2507 -0.0794 -0.3618
 4833TIP3    H138694   2.434   1.757  18.737 -1.0270  1.1888  0.2959
 4833TIP3    H238695   2.311   1.786  18.655  0.1776 -1.5902 -2.7278
 4834TIP3   OH238696   0.781   3.825  18.450  0.6554 -0.0475 -0.2882
 4834TIP3    H138697   0.861   3.824  18.502 -0.1096 -0.2353  0.9217
 4834TIP3    H238698   0.753   3.734  18.448  0.1539  0.1019 -0.1910
 4835TIP3   OH238699   2.436   2.963  17.685  0.0349 -0.1809  0.1007
 4835TIP3    H138700   2.371   3.000  17.625  0.0103  1.6071  1.1615
 4835TIP3    H238701   2.430   3.017  17.764  2.2710 -0.4510  0.5293
 4836TIP3   OH238702   4.045   5.131  18.326 -0.4824 -0.3115  0.3323
 4836TIP3    H138703   3.966   5.132  18.273 -1.5868  3.3803  1.7003
 4836TIP3    H238704   4.035   5.056  18.384 -1.7261 -1.3759 -1.1780
 4837TIP3   OH238705   6.066   0.428  18.744 -0.4192 -0.3127  0.2550
 4837TIP3    H138706   6.106   0.395  18.663 -1.4719 -1.4340  0.1739
 4837TIP3    H238707   6.134   0.419  18.810  0.5499  0.8699 -0.5422
 4838TIP3   OH238708   2.057   5.533  18.766  0.0620  0.3372 -0.3864
 4838TIP3    H138709   1.990   5.565  18.705 -1.2197 -0.7981  0.3750
 4838TIP3    H238710   2.140   5.545  18.719 -0.8454 -0.1798 -2.2278
 4839TIP3   OH238711   1.285   5.874  18.241  0.0447 -0.2448  0.5367
 4839TIP3    H138712   1.259   5.790  18.201  0.1037  0.2991 -0.7139
 4839TIP3    H238713   1.278   5.859  18.335  0.7967 -1.8895  0.3720
 4840TIP3   OH238714   3.162   1.922  18.901 -0.5426 -0.5041 -0.0673
 4840TIP3    H138715   3.085   1.940  18.954 -1.4680 -1.5604 -0.9956
 4840TIP3    H238716   3.131   1.923  18.811  0.7220 -0.0583 -0.5233
 4841TIP3   OH238717   1.049   3.313  19.115  0.4600  0.3694 -0.0516
 4841TIP3    H138718   1.029   3.224  19.142  1.2342 -0.0797 -0.9055
 4841TIP3    H238719   1.097   3.303  19.033  0.1983  1.5924 -0.3704
 4842TIP3   OH238720   7.004   0.886  18.207 -0.0337 -0.1771  0.2685
 4842TIP3    H138721   6.946   0.862  18.135 -0.5643 -1.0667  0.9618
 4842TIP3    H238722   7.057   0.958  18.173  0.5728 -1.3475 -1.4157
 4843TIP3   OH238723   4.933   0.216  18.967 -0.1435 -0.5941  0.2113
 4843TIP3    H138724   4.951   0.250  18.879 -1.2396  2.0668  0.9045
 4843TIP3    H238725   5.020   0.199  19.004  0.4621  0.8402 -0.4763
 4844TIP3   OH238726   2.301   3.011  18.747 -0.1784  0.3400  0.3211
 4844TIP3    H138727   2.267   2.951  18.814  0.0066  1.2926  1.2895
 4844TIP3    H238728   2.315   3.093  18.793  0.8957  0.7399 -0.6687
 4845TIP3   OH238729   5.364   2.648  18.244  0.1399 -0.3614 -0.0242
 4845TIP3    H138730   5.329   2.679  18.327 -0.9256  1.1357 -0.9620
 4845TIP3    H238731   5.290   2.655  18.183  0.8242 -1.6350 -1.0505
 4846TIP3   OH238732   1.584   4.094  17.209  0.3504 -0.2554 -0.8093
 4846TIP3    H138733   1.528   4.081  17.133 -0.4296 -1.1628 -0.0960
 4846TIP3    H238734   1.670   4.063  17.180  0.6660  1.6099 -2.0719
 4847TIP3   OH238735   5.309   1.129  19.357  0.2109  0.6553 -0.6995
 4847TIP3    H138736   5.228   1.179  19.347 -0.4106 -0.1362  0.2767
 4847TIP3    H238737   5.308   1.068  19.283 -0.8639 -0.3829  0.1307
 4848TIP3   OH238738   7.234   3.926  18.252  0.3338 -0.7761  0.2429
 4848TIP3    H138739   7.289   3.957  18.180 -0.4492 -0.4295 -0.2100
 4848TIP3    H238740   7.175   3.999  18.271  0.1039 -1.0997  0.8084
 4849TIP3   OH238741   3.170   4.686  18.055  0.2042  0.2341 -0.3633
 4849TIP3    H138742   3.105   4.615  18.055  1.2045 -0.7175 -0.5876
 4849TIP3    H238743   3.172   4.717  17.965 -1.0579  1.3508 -0.0270
 4850TIP3   OH238744   2.995   5.929  17.742 -0.2538 -0.1772  0.1708
 4850TIP3    H138745   2.945   6.011  17.736  0.4310  0.3739  1.4851
 4850TIP3    H238746   2.930   5.860  17.738 -0.9240  0.4606 -0.1768
 4851TIP3   OH238747   0.216   6.587  18.705  0.5817  0.1468  0.1144
 4851TIP3    H138748   0.177   6.569  18.619 -0.6947 -2.3137  1.0911
 4851TIP3    H238749   0.295   6.533  18.707  1.7963  1.8377 -0.2473
 4852TIP3   OH238750   1.309   1.103  17.723  0.2497 -0.2275 -0.2307
 4852TIP3    H138751   1.347   1.086  17.637  1.3719  2.1397 -0.2854
 4852TIP3    H238752   1.364   1.172  17.760 -2.1317  1.1161  1.0384
 4853TIP3   OH238753   1.377   0.105  16.972  0.4316  0.4625 -0.3871
 4853TIP3    H138754   1.365   0.089  16.878  2.0110 -0.5288 -0.4579
 4853TIP3    H238755   1.462   0.149  16.978 -0.1658  1.5564  0.5137
 4854TIP3   OH238756   6.369   5.741  18.853 -0.0848 -0.6281 -0.0594
 4854TIP3    H138757   6.377   5.821  18.802  0.3652 -0.7345 -0.1561
 4854TIP3    H238758   6.431   5.751  18.925  0.5486 -1.2214 -0.5162
 4855TIP3   OH238759   4.150   1.216  18.567 -0.0701 -0.2133  0.8317
 4855TIP3    H138760   4.161   1.165  18.486  0.6649 -1.5114  1.7085
 4855TIP3    H238761   4.203   1.294  18.554 -1.3788  0.4990 -0.6286
 4856TIP3   OH238762   2.070   2.804  17.261 -0.1673  0.1787  0.2940
 4856TIP3    H138763   2.033   2.718  17.279 -2.9160  1.1370 -0.3657
 4856TIP3    H238764   2.036   2.827  17.175  1.2368  1.5850  0.0724
 4857TIP3   OH238765   6.758   2.110  18.096 -0.0095 -0.2122 -0.3026
 4857TIP3    H138766   6.778   2.026  18.136  0.7916  1.1400  2.3451
 4857TIP3    H238767   6.844   2.145  18.071 -0.0749  0.8158  0.8298
 4858TIP3   OH238768   3.829   4.038  18.802  0.3812 -0.7853 -0.0431
 4858TIP3    H138769   3.853   4.129  18.787  1.9898 -1.1724 -0.0927
 4858TIP3    H238770   3.913   3.993  18.809 -0.3665 -2.4116 -0.9157
 4859TIP3   OH238771   7.456   5.359  18.830 -0.0503  0.4966 -0.1475
 4859TIP3    H138772   7.429   5.435  18.778 -0.6112  0.7521  0.4976
 4859TIP3    H238773   7.552   5.364  18.833 -0.0142  0.5188 -1.0799
 4860TIP3   OH238774   6.100   1.737  19.563  0.6871 -0.1309 -0.1884
 4860TIP3    H138775   6.091   1.820  19.610  1.1626  0.4613 -1.1058
 4860TIP3    H238776   6.018   1.727  19.516  0.0430 -0.9345  1.0635
 4861TIP3   OH238777   4.550   3.591  18.693 -0.6332  0.4708  0.2301
 4861TIP3    H138778   4.609   3.666  18.687  1.4024 -0.9634  1.1752
 4861TIP3    H238779   4.532   3.581  18.786 -0.3022 -0.6281  0.1874
 4862TIP3   OH238780   5.384   6.213  18.792 -0.1239  0.1362  0.5931
 4862TIP3    H138781   5.404   6.125  18.823 -2.2698 -0.3203  0.8513
 4862TIP3    H238782   5.296   6.205  18.754  0.5918  1.6472 -1.5746
 4863TIP3   OH238783   4.786   4.210  17.227  0.8376  0.0590  0.7219
 4863TIP3    H138784   4.745   4.278  17.281  2.2414  1.4642  0.1056
 4863TIP3    H238785   4.748   4.128  17.258 -1.9389  1.1980  0.5936
 4864TIP3   OH238786   0.579   0.971  19.363  0.1576 -0.2761  0.0272
 4864TIP3    H138787   0.596   1.056  19.403 -0.2118  0.1427 -0.6943
 4864TIP3    H238788   0.638   0.967  19.288 -0.9898  0.0548 -0.9112
 4865TIP3   OH238789   2.328   2.348  18.700  0.4702  0.0150  0.2135
 4865TIP3    H138790   2.333   2.415  18.768  0.5236 -0.6511  0.8675
 4865TIP3    H238791   2.351   2.395  18.619  1.8536  0.4773  0.8576
 4866TIP3   OH238792   0.054   1.469  18.793 -0.2349 -0.6507 -0.4276
 4866TIP3    H138793   0.128   1.478  18.734  0.4803  0.2142  0.5779
 4866TIP3    H238794   0.011   1.388  18.764  0.5025 -0.6345 -1.6553
 4867TIP3   OH238795   0.799   4.502  19.037 -0.3912 -0.1613  0.0197
 4867TIP3    H138796   0.781   4.555  18.959 -0.6112 -1.3052 -0.7149
 4867TIP3    H238797   0.733   4.432  19.035 -0.1123 -0.4699  0.9937
 4868TIP3   OH238798   1.145   1.758  17.641 -0.4418  0.0361 -0.4387
 4868TIP3    H138799   1.073   1.810  17.676  1.4537  2.1304  0.5724
 4868TIP3    H238800   1.180   1.711  17.716 -0.1956 -0.2593 -0.7333
 4869TIP3   OH238801   2.818   3.188  17.684 -0.0822  0.0708  0.1106
 4869TIP3    H138802   2.895   3.243  17.669 -1.0737  0.8473 -2.9951
 4869TIP3    H238803   2.775   3.184  17.598 -3.5327 -0.2752  1.6771
 4870TIP3   OH238804   6.706   1.679  19.189  0.3532  0.0968 -0.2513
 4870TIP3    H138805   6.722   1.597  19.144 -1.0273  0.2963 -1.1360
 4870TIP3    H238806   6.652   1.656  19.265  0.6533  0.0831 -0.0392
 4871TIP3   OH238807   4.959   4.819  19.012 -0.1732  0.3523  0.4432
 4871TIP3    H138808   4.930   4.802  18.923  2.1073  2.1344 -0.7584
 4871TIP3    H238809   4.879   4.817  19.064 -1.7390  0.3451 -1.8057
 4872TIP3   OH238810   5.190   4.251  17.919 -0.0892 -0.2962 -0.4699
 4872TIP3    H138811   5.254   4.319  17.899  1.2359 -0.8975  1.4280
 4872TIP3    H238812   5.225   4.172  17.878 -0.7911 -0.1980 -1.2921
 4873TIP3   OH238813   5.269   5.003  16.791 -0.3558  0.4167 -0.1780
 4873TIP3    H138814   5.363   5.005  16.771  0.0507  0.9688  1.6169
 4873TIP3    H238815   5.242   4.913  16.771  0.7648 -0.0011  0.1289
 4874TIP3   OH238816   4.389   2.127  16.691  0.5327 -0.6780  0.1952
 4874TIP3    H138817   4.453   2.198  16.702 -0.2228  0.2528 -1.1282
 4874TIP3    H238818   4.416   2.084  16.610 -0.2696 -0.5316 -0.1580
 4875TIP3   OH238819   6.227   6.206  18.564 -0.3432 -0.2748  0.0875
 4875TIP3    H138820   6.242   6.261  18.487  0.2260 -1.5071 -0.7091
 4875TIP3    H238821   6.210   6.268  18.634  2.4903  1.0984 -0.2722
 4876TIP3   OH238822   2.115   4.819  17.709  0.3512  0.2113 -0.3341
 4876TIP3    H138823   2.122   4.880  17.636 -1.4381 -0.0605 -0.7957
 4876TIP3    H238824   2.074   4.870  17.779  1.3635  0.2628  0.2363
 4877TIP3   OH238825   6.408   2.447  19.274  0.2013  0.0724  0.8030
 4877TIP3    H138826   6.394   2.427  19.181 -0.1312 -0.7823  1.0287
 4877TIP3    H238827   6.499   2.475  19.279  0.4380 -0.5852  0.3312
 4878TIP3   OH238828   5.576   7.295  17.962  0.6681 -0.1362 -0.3252
 4878TIP3    H138829   5.560   7.343  18.044  0.6862 -2.0076  0.8498
 4878TIP3    H238830   5.531   7.346  17.895 -0.8979  0.5312  1.1465
 4879TIP3   OH238831   1.045   1.557  18.284  0.1964 -0.1963 -0.0267
 4879TIP3    H138832   1.087   1.642  18.266 -1.4810  0.8283  0.6222
 4879TIP3    H238833   1.024   1.560  18.377 -0.9388 -0.8133 -0.2466
 4880TIP3   OH238834   4.833   4.607  17.256 -0.2546  0.0843  0.5943
 4880TIP3    H138835   4.771   4.658  17.307 -1.2111  1.1898 -1.5525
 4880TIP3    H238836   4.793   4.600  17.169  1.7591 -0.7901 -0.3288
 4881TIP3   OH238837   3.460   1.391  18.164 -0.4763 -0.0917 -0.1564
 4881TIP3    H138838   3.371   1.404  18.195 -0.2842 -1.8869  1.3111
 4881TIP3    H238839   3.464   1.298  18.140  1.4891 -0.5371  1.6539
 4882TIP3   OH238840   6.981   1.754  17.978 -0.1182  0.6996 -0.1500
 4882TIP3    H138841   7.022   1.763  18.064  0.5809  1.4406 -0.5423
 4882TIP3    H238842   6.980   1.843  17.943 -0.1599  0.3661 -1.0114
 4883TIP3   OH238843   1.322   5.369  18.207  0.5473 -0.2177  1.0675
 4883TIP3    H138844   1.367   5.292  18.173  1.3780  0.7993 -0.2504
 4883TIP3    H238845   1.392   5.423  18.244  0.3279  0.9533 -0.1350
 4884TIP3   OH238846   2.414   7.468  17.841 -0.1245 -0.4611 -0.3051
 4884TIP3    H138847   2.381   7.557  17.827 -1.0599 -0.9449 -1.3697
 4884TIP3    H238848   2.362   7.414  17.781  1.1539 -1.5766 -0.4492
 4885TIP3   OH238849   5.069   5.167  19.558 -0.2273  0.1848 -0.0688
 4885TIP3    H138850   5.127   5.241  19.537  0.0727 -0.3771 -1.3196
 4885TIP3    H238851   5.122   5.109  19.612  0.7001 -0.7192 -1.8777
 4886TIP3   OH238852   6.169   4.463  18.873  0.1453 -0.6840 -0.5536
 4886TIP3    H138853   6.226   4.397  18.912  1.5890  1.7303  1.7410
 4886TIP3    H238854   6.111   4.413  18.815  0.1576 -4.1287  2.0739
 4887TIP3   OH238855   6.990   3.850  18.752 -0.1548  0.3833 -0.3167
 4887TIP3    H138856   6.938   3.771  18.767  0.4182  0.3163  1.5214
 4887TIP3    H238857   7.068   3.820  18.705 -1.8921  0.5627 -3.6738
 4888TIP3   OH238858   3.316   5.849  18.948  0.4671 -0.2420  0.0656
 4888TIP3    H138859   3.295   5.799  18.869 -0.0561 -1.8898  1.2042
 4888TIP3    H238860   3.406   5.823  18.970  0.1288 -0.8644  0.7625
 4889TIP3   OH238861   5.905   5.353  16.975 -0.5853  0.0641  0.0880
 4889TIP3    H138862   5.866   5.435  17.004  0.1290  0.5348 -0.2590
 4889TIP3    H238863   5.831   5.301  16.944 -0.8223  1.4845 -1.9028
 4890TIP3   OH238864   6.527   3.378  18.941 -0.0968  0.3694  1.0034
 4890TIP3    H138865   6.521   3.285  18.961  0.6784 -0.0396 -0.5092
 4890TIP3    H238866   6.448   3.416  18.979 -0.1235 -0.7802  2.1834
 4891TIP3   OH238867   2.266   2.150  18.176 -0.5828  0.2182 -0.2488
 4891TIP3    H138868   2.341   2.151  18.235 -0.7596  2.1231 -0.0094
 4891TIP3    H238869   2.192   2.130  18.234 -0.5685  0.6996 -0.0588
 4892TIP3   OH238870   4.632   7.432  17.812 -0.0685 -0.6989  0.1199
 4892TIP3    H138871   4.547   7.420  17.770  0.1800  4.2239 -2.5235
 4892TIP3    H238872   4.693   7.384  17.757 -0.4248  1.5112 -2.4186
 4893TIP3   OH238873   5.972   3.110  16.678 -0.5553 -0.1544  0.3696
 4893TIP3    H138874   5.910   3.052  16.722 -1.0402 -0.3416 -0.5405
 4893TIP3    H238875   5.935   3.197  16.688 -1.0195 -0.2756 -0.2467
 4894TIP3   OH238876   4.126   3.674  19.417  0.2721 -0.0333  0.0888
 4894TIP3    H138877   4.150   3.722  19.339 -1.7265 -0.2458 -0.7009
 4894TIP3    H238878   4.195   3.608  19.427  0.7488  0.2425 -1.2729
 4895TIP3   OH238879   0.551   4.230  17.355 -0.2997  0.0910  0.1088
 4895TIP3    H138880   0.529   4.323  17.344  0.9791  0.8064  2.8036
 4895TIP3    H238881   0.594   4.206  17.273  1.0850  2.4636  0.0268
 4896TIP3   OH238882   0.344   5.111  19.505  0.1151 -0.0285 -0.7512
 4896TIP3    H138883   0.411   5.173  19.532 -0.1439 -0.0836  0.0582
 4896TIP3    H238884   0.263   5.162  19.505  0.0582 -0.1181 -1.0787
 4897TIP3   OH238885   0.280   4.749  19.224  0.0450 -0.0865 -0.7804
 4897TIP3    H138886   0.327   4.681  19.176 -0.5358 -0.1570 -1.2636
 4897TIP3    H238887   0.349   4.801  19.264  0.5247 -0.4470 -1.1149
 4898TIP3   OH238888   7.227   3.114  17.123 -0.2006 -0.2835  0.4200
 4898TIP3    H138889   7.187   3.043  17.074 -0.7519 -0.6271  1.3448
 4898TIP3    H238890   7.284   3.158  17.060  0.1671 -1.5526 -0.1648
 4899TIP3   OH238891   5.857   1.229  18.829  0.2827  0.2190 -0.4674
 4899TIP3    H138892   5.808   1.229  18.912  0.6041  0.3938 -0.2776
 4899TIP3    H238893   5.823   1.306  18.782 -0.1014 -0.0404 -0.6201
 4900TIP3   OH238894   4.965   6.878  18.783  0.0425  0.1886 -0.1547
 4900TIP3    H138895   4.877   6.884  18.821  0.7860  1.4608  1.5244
 4900TIP3    H238896   5.006   6.962  18.804  1.3052  0.0695 -1.9056
 4901TIP3   OH238897   3.752   0.329  17.246 -0.2026 -0.6326  0.2391
 4901TIP3    H138898   3.686   0.299  17.309 -1.9516  0.1681 -1.1145
 4901TIP3    H238899   3.744   0.267  17.173 -0.0728 -0.0098 -0.3091
 4902TIP3   OH238900   5.675   5.279  17.821  0.4231  0.3539  0.2740
 4902TIP3    H138901   5.756   5.285  17.871 -0.0221  1.0417  0.9307
 4902TIP3    H238902   5.637   5.367  17.825 -1.1790 -0.3286  1.4223
 4903TIP3   OH238903   6.145   4.923  18.615  0.2334  0.7272 -0.5872
 4903TIP3    H138904   6.107   4.955  18.533  0.1227 -1.6582 -1.5551
 4903TIP3    H238905   6.191   4.843  18.590 -0.3907 -0.4666  1.7892
 4904TIP3   OH238906   7.117   5.791  17.466  0.1101 -0.0058  0.4467
 4904TIP3    H138907   7.211   5.799  17.448  0.2757 -1.0874  0.7224
 4904TIP3    H238908   7.107   5.701  17.498 -0.5563  0.9890  3.3150
 4905TIP3   OH238909   2.633   5.641  17.090 -0.1962 -0.2115  0.0971
 4905TIP3    H138910   2.727   5.658  17.104 -0.5399 -0.0058  2.5619
 4905TIP3    H238911   2.598   5.725  17.058  0.2625  0.0285  0.2115
 4906TIP3   OH238912   5.619   4.878  18.705 -0.4497 -0.4586  0.7023
 4906TIP3    H138913   5.578   4.822  18.638  0.5371  1.4336 -1.6294
 4906TIP3    H238914   5.640   4.818  18.776  0.2536 -3.0354 -1.4919
 4907TIP3   OH238915   6.474   4.474  17.242 -0.7671 -0.2567 -0.0759
 4907TIP3    H138916   6.565   4.452  17.257  0.1747  2.2314 -1.4240
 4907TIP3    H238917   6.449   4.423  17.165 -0.2584 -0.3549 -0.1769
 4908TIP3   OH238918   4.113   3.116  19.226  0.1164 -0.6447 -0.5757
 4908TIP3    H138919   4.026   3.151  19.204  0.0386 -1.7184 -2.1752
 4908TIP3    H238920   4.140   3.070  19.147  1.6797 -1.2717  0.2914
 4909TIP3   OH238921   2.667   3.698  18.893 -0.3565  0.3740  0.1147
 4909TIP3    H138922   2.671   3.794  18.894  1.5376  0.3917 -1.7255
 4909TIP3    H238923   2.755   3.671  18.865 -1.4295 -1.8093 -1.4405
 4910TIP3   OH238924   6.353   0.113  17.917 -0.1672  0.3381  1.1789
 4910TIP3    H138925   6.274   0.140  17.963 -0.2063  0.2213  1.1813
 4910TIP3    H238926   6.377   0.029  17.958 -0.2263  0.2131  0.9587
 4911TIP3   OH238927   1.759   2.010  18.009 -0.2178 -0.3022 -0.6257
 4911TIP3    H138928   1.815   1.956  18.065 -0.0101 -0.7114 -1.2063
 4911TIP3    H238929   1.819   2.045  17.943  0.6868  4.4915  2.2298
 4912TIP3   OH238930   2.333   4.732  18.685 -0.2629  0.1604  0.4416
 4912TIP3    H138931   2.248   4.690  18.695  0.2527 -0.7957  0.8687
 4912TIP3    H238932   2.334   4.762  18.594 -0.3263 -1.4583 -0.1212
 4913TIP3   OH238933   2.598   5.509  18.092 -0.0791 -0.6819 -0.1681
 4913TIP3    H138934   2.654   5.580  18.124  0.4285 -0.6283 -1.1236
 4913TIP3    H238935   2.530   5.554  18.043 -0.1200 -0.8220 -0.2386
 4914TIP3   OH238936   0.731   3.921  17.671  0.7892  0.5386 -0.3455
 4914TIP3    H138937   0.677   3.997  17.691 -0.0866 -0.1288 -0.1171
 4914TIP3    H238938   0.820   3.955  17.670  0.5162  1.3567  0.8234
 4915TIP3   OH238939   2.520   0.548  18.101 -0.3044 -0.1636 -0.8374
 4915TIP3    H138940   2.541   0.531  18.009 -1.5862 -1.1898 -0.9530
 4915TIP3    H238941   2.427   0.569  18.101 -0.0540  1.0683  0.0902
 4916TIP3   OH238942   4.290   2.685  17.947  0.1703 -0.1398 -0.0276
 4916TIP3    H138943   4.266   2.695  18.039  1.5081 -2.9265  0.7473
 4916TIP3    H238944   4.354   2.754  17.930 -1.4837  1.5893  0.5144
 4917TIP3   OH238945   7.678   4.480  18.086  0.4500 -0.0714  0.1036
 4917TIP3    H138946   7.630   4.446  18.010  0.7637  0.3056 -0.2760
 4917TIP3    H238947   7.652   4.572  18.091  0.4192 -0.1003  0.4636
 4918TIP3   OH238948   1.072   6.049  17.717  0.0260 -0.3893 -0.7587
 4918TIP3    H138949   0.977   6.043  17.718  0.0093 -0.1705 -0.0232
 4918TIP3    H238950   1.101   5.975  17.664 -0.6180  0.7585 -2.8046
 4919TIP3   OH238951   5.237   3.946  18.391 -0.2876 -0.6545 -0.1479
 4919TIP3    H138952   5.238   3.946  18.295 -1.1272 -0.5120 -0.1638
 4919TIP3    H238953   5.145   3.948  18.414 -0.0821  0.9965  0.6606
 4920TIP3   OH238954   6.764   5.192  17.026 -0.4366  0.0320 -0.3809
 4920TIP3    H138955   6.859   5.191  17.018 -0.4033  1.3812 -0.2685
 4920TIP3    H238956   6.734   5.249  16.955 -1.1751 -0.4827 -0.4971
 4921TIP3   OH238957   3.204   5.831  19.215  0.0064 -0.0677 -0.3939
 4921TIP3    H138958   3.206   5.741  19.249 -0.7357  0.3556  0.7934
 4921TIP3    H238959   3.235   5.822  19.125 -0.7358 -1.6307 -0.5343
 4922TIP3   OH238960   2.899   5.829  19.218  0.0663 -0.0861 -0.1518
 4922TIP3    H138961   2.916   5.744  19.176 -0.1391  0.0098 -0.4328
 4922TIP3    H238962   2.979   5.848  19.266  0.2684 -0.2459 -0.4212
 4923TIP3   OH238963   5.985   0.756  18.546  0.4102  0.0088 -0.2600
 4923TIP3    H138964   6.037   0.836  18.544  0.4241 -0.0071 -0.9596
 4923TIP3    H238965   5.938   0.759  18.629 -0.3634  1.2487 -0.7098
 4924TIP3   OH238966   4.811   4.512  19.583 -0.1912 -0.1492  0.2054
 4924TIP3    H138967   4.887   4.478  19.630  0.8779 -0.8357 -1.9162
 4924TIP3    H238968   4.737   4.467  19.622  0.7155 -1.1897  0.7802
 4925TIP3   OH238969   5.056   5.090  19.287 -0.0180 -0.0117 -0.3551
 4925TIP3    H138970   5.052   5.123  19.377  0.9099  0.3796 -0.4399
 4925TIP3    H238971   4.995   5.145  19.238  0.8103  1.0043 -0.3053
 4926TIP3   OH238972   5.795   7.403  19.665  0.6141  0.5322  0.2681
 4926TIP3    H138973   5.744   7.364  19.736 -0.0503  2.9757  1.2469
 4926TIP3    H238974   5.875   7.351  19.661  0.7191  0.3424  2.9009
 4927TIP3   OH238975   6.310   5.942  18.417 -0.2323 -0.0806 -0.2576
 4927TIP3    H138976   6.368   5.911  18.348  1.6084 -1.9074  1.9726
 4927TIP3    H238977   6.328   6.036  18.422  0.8315 -0.2105 -1.1391
 4928TIP3   OH238978   6.927   2.121  18.755 -0.1905  0.1920 -0.1103
 4928TIP3    H138979   6.897   2.188  18.693 -1.6562 -0.1538  0.1904
 4928TIP3    H238980   6.863   2.050  18.748  1.5667 -1.4000 -0.7229
 4929TIP3   OH238981   3.824   5.337  17.507  0.0711  0.0241 -0.2301
 4929TIP3    H138982   3.846   5.295  17.590 -0.8922 -0.4447 -0.1960
 4929TIP3    H238983   3.903   5.330  17.454  0.1389 -1.2856  0.0064
 4930TIP3   OH238984   1.121   2.528  17.237 -0.1833  0.2846 -0.1286
 4930TIP3    H138985   1.144   2.620  17.249 -0.8173  0.4999 -0.5174
 4930TIP3    H238986   1.039   2.530  17.187 -0.6206 -0.4767  0.5400
 4931TIP3   OH238987   1.141   3.667  18.000  0.4303  0.6341 -0.0263
 4931TIP3    H138988   1.200   3.700  17.931 -0.8623 -0.2422 -1.6373
 4931TIP3    H238989   1.094   3.745  18.029  2.0547  1.2777  1.0017
 4932TIP3   OH238990   7.614   7.110  19.474 -0.5749 -0.4417  0.2911
 4932TIP3    H138991   7.552   7.131  19.544 -2.6218 -0.8542 -1.2897
 4932TIP3    H238992   7.635   7.018  19.488 -3.0830 -1.3059 -1.0621
 4933TIP3   OH238993   1.042   0.688  19.455  0.3603 -0.1535 -0.6364
 4933TIP3    H138994   1.091   0.684  19.373  1.6841 -0.7298  0.1554
 4933TIP3    H238995   1.109   0.688  19.523 -0.5977  2.5553  0.4418
 4934TIP3   OH238996   6.538   2.818  18.815  0.1295  0.4891  0.4006
 4934TIP3    H138997   6.552   2.729  18.783  1.4822  1.7594 -3.0484
 4934TIP3    H238998   6.554   2.813  18.909 -0.2827 -2.9306  0.4199
 4935TIP3   OH238999   1.822   4.344  17.307  0.7986  0.0827 -0.2284
 4935TIP3    H139000   1.782   4.274  17.254  0.1132  1.0612 -1.0654
 4935TIP3    H239001   1.779   4.336  17.392  2.0406 -1.6311  0.2894
 4936TIP3   OH239002   6.651   3.316  17.803 -0.2131  0.2067 -0.3258
 4936TIP3    H139003   6.740   3.338  17.778 -0.3578  0.7699 -0.3607
 4936TIP3    H239004   6.631   3.237  17.752  0.5531 -0.4230  0.3266
 4937TIP3   OH239005   7.328   0.069  17.243 -0.7006  0.0768  0.3895
 4937TIP3    H139006   7.344   0.084  17.336  0.3335 -0.9453  0.4022
 4937TIP3    H239007   7.415   0.063  17.204 -0.9886 -2.8750 -0.0344
 4938TIP3   OH239008   6.536   7.482  19.258  0.3502  0.4447 -0.0698
 4938TIP3    H139009   6.475   7.416  19.224  1.2218  0.0601 -0.9254
 4938TIP3    H239010   6.502   7.565  19.225 -0.2887  0.3475  0.3275
 4939TIP3   OH239011   3.013   3.889  19.086  0.5309  0.5860  0.2658
 4939TIP3    H139012   2.991   3.806  19.128 -0.1850  0.7050  0.1472
 4939TIP3    H239013   3.083   3.867  19.025 -0.8142 -0.2992 -1.0367
 4940TIP3   OH239014   6.615   7.647  19.693  0.2243  0.0752  0.1014
 4940TIP3    H139015   6.666   7.704  19.636 -0.1798  0.4437  0.0954
 4940TIP3    H239016   6.529   7.641  19.650  0.2316 -0.4662  0.1501
 4941TIP3   OH239017   0.256   5.027  16.900  0.1015 -0.2175  0.4164
 4941TIP3    H139018   0.263   4.954  16.839 -1.0765 -0.0136  0.0133
 4941TIP3    H239019   0.175   5.011  16.949  0.3286  0.3258  0.9900
 4942TIP3   OH239020   5.094   3.245  18.989 -0.2159  0.5620  0.2433
 4942TIP3    H139021   5.040   3.279  19.061 -0.3901  1.9686 -0.5300
 4942TIP3    H239022   5.152   3.317  18.967  0.3315 -0.1162 -0.5519
 4943TIP3   OH239023   2.798   2.587  17.201  0.0804 -0.6771  0.1590
 4943TIP3    H139024   2.785   2.593  17.107 -0.2376 -1.8461  0.1089
 4943TIP3    H239025   2.859   2.657  17.222 -1.6460  1.1384 -0.5529
 4944TIP3   OH239026   2.443   5.156  19.072  0.0753  0.6564 -0.2276
 4944TIP3    H139027   2.535   5.136  19.053 -0.0387 -0.5914  0.3756
 4944TIP3    H239028   2.394   5.099  19.013 -0.2989  0.6713  0.0655
 4945TIP3   OH239029   0.217   7.335  17.666  0.4716 -0.3984  0.6057
 4945TIP3    H139030   0.255   7.327  17.578  1.1381 -1.3876  0.9780
 4945TIP3    H239031   0.271   7.279  17.721 -1.0489 -1.2513  1.2938
 4946TIP3   OH239032   0.977   6.692  18.121 -0.6348 -0.4391  0.3401
 4946TIP3    H139033   0.907   6.744  18.161  0.2892  1.2819 -0.1507
 4946TIP3    H239034   0.997   6.739  18.040 -1.0057 -2.6373 -1.1020
 4947TIP3   OH239035   7.677   1.595  17.907 -0.5240 -0.3558  0.1272
 4947TIP3    H139036   7.700   1.608  17.999 -1.3308  0.0316  0.2811
 4947TIP3    H239037   7.676   1.682  17.869  1.7790 -0.6477 -0.7719
 4948TIP3   OH239038   1.653   5.105  17.593 -0.7694  0.3131  0.0381
 4948TIP3    H139039   1.656   5.129  17.685 -2.9426 -0.1662  0.2932
 4948TIP3    H239040   1.597   5.027  17.590  1.3798 -1.2818 -1.4256
 4949TIP3   OH239041   1.459   7.313  17.186 -0.7187 -0.0167  0.3695
 4949TIP3    H139042   1.426   7.237  17.138 -0.3276 -0.0927  0.2210
 4949TIP3    H239043   1.550   7.322  17.159 -0.8305  0.6661  0.1856
 4950TIP3   OH239044   1.238   6.417  18.633 -0.0686 -0.3651 -0.4085
 4950TIP3    H139045   1.193   6.462  18.704  0.6592 -0.8733  0.4011
 4950TIP3    H239046   1.212   6.325  18.643  0.0825 -0.4492 -0.7658
 4951TIP3   OH239047   0.604   3.800  17.865  0.6895 -0.4546  0.3080
 4951TIP3    H139048   0.640   3.867  17.808  0.3729  1.6350  2.3909
 4951TIP3    H239049   0.510   3.800  17.847  0.7858 -0.8773 -0.2073
 4952TIP3   OH239050   5.701   6.029  19.451  0.5427 -0.3046 -0.6048
 4952TIP3    H139051   5.654   6.030  19.535  0.3307  0.9890 -0.7194
 4952TIP3    H239052   5.682   5.942  19.415 -1.9561  0.1942 -0.7148
 4953TIP3   OH239053   2.074   4.811  17.335  0.6755 -0.1160 -0.6139
 4953TIP3    H139054   2.053   4.903  17.350 -1.1368 -0.5285 -0.4307
 4953TIP3    H239055   2.019   4.785  17.262 -0.7338 -1.6792  0.9213
 4954TIP3   OH239056   5.329   3.285  18.706  0.1047 -0.5778 -0.1923
 4954TIP3    H139057   5.236   3.306  18.718  0.1766 -1.1968  1.8279
 4954TIP3    H239058   5.374   3.369  18.713 -0.1042 -0.5925  1.5539
 4955TIP3   OH239059   2.729   5.681  16.762  0.3939  0.0847  0.1165
 4955TIP3    H139060   2.774   5.721  16.837  0.7982  0.9682 -0.5734
 4955TIP3    H239061   2.653   5.738  16.747 -0.9154 -1.3246  1.1929
 4956TIP3   OH239062   5.265   7.103  18.331 -0.0002  0.1487 -0.4761
 4956TIP3    H139063   5.320   7.181  18.335  0.7278 -0.3911  0.4589
 4956TIP3    H239064   5.230   7.094  18.420  0.0619 -0.6809 -0.5242
 4957TIP3   OH239065   1.346   2.158  17.211 -0.0548  0.1139 -0.6029
 4957TIP3    H139066   1.270   2.143  17.154  0.1063 -0.9843 -0.5454
 4957TIP3    H239067   1.312   2.142  17.299 -0.1325  1.1569 -0.4255
 4958TIP3   OH239068   6.226   2.147  19.433  0.6166  0.0726 -1.2791
 4958TIP3    H139069   6.213   2.053  19.419  0.1624  0.0374 -0.6778
 4958TIP3    H239070   6.320   2.156  19.446  0.4756 -0.5790  0.4665
 4959TIP3   OH239071   5.579   5.222  18.424  0.5129  0.2152  0.1035
 4959TIP3    H139072   5.507   5.285  18.423  1.2212  1.0636  0.5478
 4959TIP3    H239073   5.545   5.145  18.379 -0.1115  1.2052 -1.1678
 4960TIP3   OH239074   6.323   4.465  19.412  0.3944  0.0329  0.0828
 4960TIP3    H139075   6.316   4.371  19.396  1.2537  0.0002 -0.1441
 4960TIP3    H239076   6.412   4.477  19.446  0.5182  0.8472 -0.5011
 4961TIP3   OH239077   0.888   2.924  17.719  0.3145  0.4460  0.3998
 4961TIP3    H139078   0.858   2.856  17.659  0.6279 -0.4659  1.2449
 4961TIP3    H239079   0.807   2.955  17.761  0.2600 -0.0915  0.7047
 4962TIP3   OH239080   3.612   3.168  19.259  0.0231 -0.2840 -0.2009
 4962TIP3    H139081   3.530   3.171  19.209 -0.0731  2.3953 -0.0403
 4962TIP3    H239082   3.584   3.162  19.350  0.0977 -1.5146 -0.2453
 4963TIP3   OH239083   4.812   6.495  17.573  0.0349  0.3538 -0.4813
 4963TIP3    H139084   4.727   6.456  17.593  0.9537 -2.0064 -0.8221
 4963TIP3    H239085   4.815   6.499  17.478  1.2056 -1.9900 -0.6230
 4964TIP3   OH239086   6.340   1.831  17.593  0.3079  0.0341 -0.2322
 4964TIP3    H139087   6.363   1.781  17.671  0.8311  1.7631  0.7834
 4964TIP3    H239088   6.424   1.855  17.555  0.1747  2.1191  0.6627
 4965TIP3   OH239089   2.372   0.225  17.629 -0.8256  0.0667 -0.1945
 4965TIP3    H139090   2.414   0.157  17.681 -0.7789  0.9358  0.9580
 4965TIP3    H239091   2.339   0.180  17.551  1.6711 -0.7749 -0.8734
 4966TIP3   OH239092   3.821   6.277  19.008 -0.2853  0.3576  0.2781
 4966TIP3    H139093   3.830   6.293  19.102 -1.6364  0.4354  0.4181
 4966TIP3    H239094   3.822   6.364  18.969  0.9565  0.2962  0.1281
 4967TIP3   OH239095   1.136   5.040  16.768 -0.0202 -0.4211 -0.2060
 4967TIP3    H139096   1.193   4.976  16.725 -0.0414  0.7779 -2.1443
 4967TIP3    H239097   1.181   5.124  16.756 -0.3678  0.0636  1.5925
 4968TIP3   OH239098   1.700   1.598  18.388  0.3690 -0.1861  0.0642
 4968TIP3    H139099   1.757   1.523  18.372  1.2272  0.4577  0.0201
 4968TIP3    H239100   1.759   1.667  18.419 -0.4520  0.3587  0.4637
 4969TIP3   OH239101   1.444   1.792  17.292 -0.0695 -0.1149 -0.1012
 4969TIP3    H139102   1.491   1.851  17.233  1.2752 -0.4250  0.6408
 4969TIP3    H239103   1.418   1.846  17.366  1.4310 -0.4642  0.7266
 4970TIP3   OH239104   6.320   0.411  19.329  0.7549 -0.2305  0.3052
 4970TIP3    H139105   6.389   0.394  19.264 -1.1080 -2.4093 -1.2731
 4970TIP3    H239106   6.317   0.331  19.382 -2.2972 -1.4193 -1.4449
 4971TIP3   OH239107   3.526   0.291  17.384 -0.0806  0.0801  0.1544
 4971TIP3    H139108   3.506   0.341  17.463 -1.3443  0.6854 -0.5301
 4971TIP3    H239109   3.454   0.310  17.324 -0.4893 -2.3354 -0.2450
 4972TIP3   OH239110   3.537   3.371  19.509  0.2671  0.5431 -0.1831
 4972TIP3    H139111   3.443   3.350  19.509  0.4373 -0.4446 -2.5521
 4972TIP3    H239112   3.578   3.295  19.551  0.1466  0.0247 -0.9732
 4973TIP3   OH239113   2.512   6.688  19.281 -0.0864  0.7205  0.5520
 4973TIP3    H139114   2.418   6.668  19.287 -0.0845  0.4976 -0.1201
 4973TIP3    H239115   2.525   6.715  19.190  0.5673  0.4273  0.5548
 4974TIP3   OH239116   1.770   7.654  19.097 -0.3552 -0.7015 -0.2023
 4974TIP3    H139117   1.741   7.742  19.072 -0.2311 -0.5954  0.0221
 4974TIP3    H239118   1.751   7.649  19.191  1.6629 -0.0932  0.2999
 4975TIP3   OH239119   2.833   6.451  17.677 -0.1169 -0.1999 -0.6152
 4975TIP3    H139120   2.816   6.546  17.677 -1.0346 -0.3485 -0.3068
 4975TIP3    H239121   2.928   6.444  17.668  0.2008  0.8058  1.2561
 4976TIP3   OH239122   7.151   7.036  17.765  0.4237  0.2783 -0.2641
 4976TIP3    H139123   7.215   6.968  17.784 -0.8944 -0.5618  1.4657
 4976TIP3    H239124   7.078   6.989  17.723 -0.4768  0.5998  0.8868
 4977TIP3   OH239125   0.756   5.696  17.458  0.4490 -0.3320 -0.6954
 4977TIP3    H139126   0.847   5.711  17.435  0.4060 -0.0169 -0.6681
 4977TIP3    H239127   0.743   5.602  17.447  0.7443 -0.3584 -0.8151
 4978TIP3   OH239128   6.918   3.144  18.757  0.5700 -0.0801  0.1317
 4978TIP3    H139129   6.934   3.057  18.795 -0.3953  0.1989  1.2213
 4978TIP3    H239130   6.833   3.136  18.715  1.0429 -0.0010 -0.8743
 4979TIP3   OH239131   4.178   2.706  18.448 -0.0849  0.2513  0.1694
 4979TIP3    H139132   4.132   2.654  18.514  0.1779 -2.5662 -1.6910
 4979TIP3    H239133   4.207   2.784  18.496 -0.7357 -1.1427  3.1195
 4980TIP3   OH239134   7.114   1.323  16.960 -0.5904  0.4853  0.3415
 4980TIP3    H139135   7.063   1.385  17.012 -1.5642 -1.5369  1.9371
 4980TIP3    H239136   7.204   1.336  16.989 -0.8055  1.0029  0.7999
 4981TIP3   OH239137   0.854   4.196  18.471  0.7816  0.4531 -0.2013
 4981TIP3    H139138   0.773   4.243  18.453  0.1519 -1.1410 -1.9003
 4981TIP3    H239139   0.848   4.173  18.564 -1.5979 -1.0676 -0.6343
 4982TIP3   OH239140   6.214   4.615  18.052  0.2286 -0.3066 -0.0666
 4982TIP3    H139141   6.204   4.524  18.024 -1.6663 -0.3594  0.6239
 4982TIP3    H239142   6.304   4.620  18.086  1.3652 -1.1370 -2.6940
 4983TIP3   OH239143   1.225   3.109  19.319  0.0301  0.5842 -0.0880
 4983TIP3    H139144   1.282   3.041  19.284  2.3368  2.1101  0.4857
 4983TIP3    H239145   1.155   3.118  19.255  1.4748 -0.0584 -1.8244
 4984TIP3   OH239146   1.306   0.666  19.494  0.0940 -0.3895  0.4118
 4984TIP3    H139147   1.392   0.703  19.510 -0.1005 -0.0072  0.5734
 4984TIP3    H239148   1.320   0.571  19.498  0.2165 -0.3360  2.0708
 4985TIP3   OH239149   5.582   5.366  17.222  0.2350 -0.3244 -0.0190
 4985TIP3    H139150   5.551   5.378  17.132  0.9742  0.7895 -0.1426
 4985TIP3    H239151   5.677   5.367  17.215  0.3005 -0.2786  0.7728
 4986TIP3   OH239152   7.128   7.148  19.567  0.6308 -0.0494 -0.0371
 4986TIP3    H139153   7.054   7.198  19.533  0.0006 -1.1359 -0.2878
 4986TIP3    H239154   7.188   7.139  19.493  0.3876 -0.3211 -0.2012
 4987TIP3   OH239155   5.845   5.331  17.241 -0.6738 -0.1003 -0.3215
 4987TIP3    H139156   5.913   5.380  17.287 -1.9976  3.1494 -1.5698
 4987TIP3    H239157   5.885   5.308  17.157  0.0388 -1.5545  0.3692
 4988TIP3   OH239158   0.799   2.390  16.709  0.4086  0.0573  0.2121
 4988TIP3    H139159   0.722   2.345  16.744 -0.2522  0.4056 -0.7693
 4988TIP3    H239160   0.791   2.480  16.742 -0.2977  0.4268 -0.9233
 4989TIP3   OH239161   6.027   6.857  17.415 -0.0888  0.1251 -0.0442
 4989TIP3    H139162   6.077   6.927  17.372 -0.7422  0.3794 -0.4099
 4989TIP3    H239163   6.076   6.839  17.495  0.3493  0.6766 -0.1766
 4990TIP3   OH239164   3.634   5.422  17.345 -0.2939 -0.5834 -0.1449
 4990TIP3    H139165   3.694   5.397  17.415 -0.6478 -2.8199 -0.5676
 4990TIP3    H239166   3.618   5.341  17.297 -1.7981  0.4488 -1.4884
 4991TIP3   OH239167   3.480   4.324  17.970 -0.4702 -0.2897  0.0197
 4991TIP3    H139168   3.529   4.355  17.894  0.9333 -0.7611  0.7055
 4991TIP3    H239169   3.425   4.253  17.936 -2.0655  1.4100 -1.1094
 4992TIP3   OH239170   7.306   6.118  19.153  0.2340 -0.6841 -0.2143
 4992TIP3    H139171   7.352   6.199  19.173 -0.8195  0.2025 -1.1990
 4992TIP3    H239172   7.366   6.068  19.097  0.0805  0.4151 -1.4108
 4993TIP3   OH239173   5.756   5.194  19.179  0.5712  0.0843  0.3699
 4993TIP3    H139174   5.685   5.163  19.235 -0.2956  1.5196  0.1168
 4993TIP3    H239175   5.729   5.282  19.152  2.3511  0.5877  0.0872
 4994TIP3   OH239176   2.882   5.821  18.674 -0.1013  0.1859 -0.2635
 4994TIP3    H139177   2.969   5.783  18.669 -0.0556  0.2292  0.1733
 4994TIP3    H239178   2.893   5.900  18.727 -0.4846 -0.0460  0.1652
 4995TIP3   OH239179   1.237   6.104  17.090  0.1533 -0.0674 -0.4084
 4995TIP3    H139180   1.205   6.146  17.170 -1.4928  1.0711 -1.5943
 4995TIP3    H239181   1.163   6.051  17.059  0.7949 -0.5635 -1.1500
 4996TIP3   OH239182   4.656   3.170  17.034 -0.5244  0.6114  0.1005
 4996TIP3    H139183   4.590   3.236  17.017 -0.7414  0.7778  1.5015
 4996TIP3    H239184   4.609   3.087  17.029 -0.1643  0.4879 -2.1017
 4997TIP3   OH239185   5.146   4.255  18.186 -0.1135 -0.4764 -0.1369
 4997TIP3    H139186   5.161   4.270  18.093  1.0855 -0.2101  0.0731
 4997TIP3    H239187   5.154   4.160  18.197  0.8054 -0.4111 -0.1529
 4998TIP3   OH239188   6.024   0.538  19.082 -0.5919 -0.8684  0.4388
 4998TIP3    H139189   6.082   0.570  19.152  1.5878 -0.4894 -1.4000
 4998TIP3    H239190   5.961   0.609  19.069  1.0779  0.6014 -0.1798
 4999TIP3   OH239191   7.325   1.084  17.046 -0.4120  0.3575  0.2679
 4999TIP3    H139192   7.392   1.152  17.058  0.5294 -0.5787  0.4551
 4999TIP3    H239193   7.293   1.065  17.134 -1.4338  1.2893  0.1110
 5000TIP3   OH239194   4.030   2.762  18.221 -0.3655  0.6706  0.0334
 5000TIP3    H139195   3.976   2.684  18.206 -0.7890  0.5268  1.9630
 5000TIP3    H239196   4.102   2.730  18.277  1.4064  0.9996 -1.9514
 5001TIP3   OH239197   2.235   2.502  16.975 -0.2859 -0.4034 -0.4297
 5001TIP3    H139198   2.223   2.572  16.910  0.6020 -0.0610 -0.2274
 5001TIP3    H239199   2.297   2.441  16.933  0.0170 -0.3607 -0.0429
 5002TIP3   OH239200   2.241   0.372  18.126 -0.5117 -0.3688  0.1298
 5002TIP3    H139201   2.158   0.407  18.093 -0.2059  0.3465  0.1105
 5002TIP3    H239202   2.245   0.402  18.217  1.5351  3.0179 -0.9096
 5003TIP3   OH239203   3.169   4.241  17.750 -0.3282 -0.0732  0.3260
 5003TIP3    H139204   3.185   4.167  17.809  0.0593 -0.7998 -0.6592
 5003TIP3    H239205   3.166   4.318  17.807 -0.9885 -0.8710  1.4001
 5004TIP3   OH239206   4.708   5.703  19.043  0.4975  0.2260 -0.5299
 5004TIP3    H139207   4.703   5.768  19.113  0.0036 -0.8647  0.4808
 5004TIP3    H239208   4.623   5.710  18.998  1.0986  1.4485 -1.5360
 5005TIP3   OH239209   3.801   1.786  17.809  0.2966  0.0015 -0.9652
 5005TIP3    H139210   3.844   1.853  17.861  0.4510 -0.3026 -0.6996
 5005TIP3    H239211   3.714   1.823  17.789  0.3313  0.2215 -0.7086
 5006TIP3   OH239212   0.133   6.697  19.002  0.5895 -0.4134 -0.2840
 5006TIP3    H139213   0.181   6.659  18.929  1.8159  0.1113  0.2304
 5006TIP3    H239214   0.161   6.789  19.004 -1.0673  0.1410 -0.4866
 5007TIP3   OH239215   4.340   4.978  18.482 -0.4931  0.1391  0.8264
 5007TIP3    H139216   4.278   4.963  18.554 -1.0332  2.1608  0.8607
 5007TIP3    H239217   4.397   4.901  18.483 -2.0798 -1.0898  1.7494
 5008TIP3   OH239218   2.348   6.648  17.605 -0.4099 -0.3603  0.0850
 5008TIP3    H139219   2.418   6.680  17.548 -0.2149 -0.7076  0.1236
 5008TIP3    H239220   2.366   6.689  17.690 -1.2442  0.9142 -0.3188
 5009TIP3   OH239221   4.695   0.663  18.386 -0.2134  0.1697  0.1499
 5009TIP3    H139222   4.752   0.630  18.456 -1.6100 -0.7477  0.9032
 5009TIP3    H239223   4.656   0.585  18.347 -2.4054  0.7751  0.9380
 5010TIP3   OH239224   7.048   4.153  16.971  0.2755  0.5392  0.3217
 5010TIP3    H139225   7.029   4.146  16.877 -1.2140 -1.7764  0.7121
 5010TIP3    H239226   7.020   4.241  16.995 -0.9362  0.5839 -1.1011
 5011TIP3   OH239227   2.119   1.243  16.864 -0.1651  0.0150  0.6563
 5011TIP3    H139228   2.061   1.236  16.787  0.1302  1.3143  0.2854
 5011TIP3    H239229   2.063   1.223  16.938 -1.3152  1.9150  0.3642
 5012TIP3   OH239230   2.537   5.819  18.194 -0.1320  0.1098  0.3143
 5012TIP3    H139231   2.541   5.828  18.289 -1.9872  2.2497  0.3017
 5012TIP3    H239232   2.454   5.773  18.178 -0.0922  0.2379 -0.2772
 5013TIP3   OH239233   2.421   0.820  17.281 -0.0943 -0.1581  0.3167
 5013TIP3    H139234   2.353   0.886  17.298 -1.4381 -1.3943 -0.1146
 5013TIP3    H239235   2.490   0.869  17.235 -1.2884  0.8557 -0.4658
 5014TIP3   OH239236   7.676   5.283  19.284 -0.4787  0.0157  0.0317
 5014TIP3    H139237   7.702   5.267  19.194  0.0874  1.1982 -0.0258
 5014TIP3    H239238   7.737   5.350  19.316 -1.3359  0.3918  0.9518
 5015TIP3   OH239239   7.292   5.186  19.116  0.2661 -0.2405 -0.1740
 5015TIP3    H139240   7.301   5.196  19.210  1.4251 -1.3730 -0.1416
 5015TIP3    H239241   7.337   5.104  19.096 -0.9499 -0.6202 -1.5627
 5016TIP3   OH239242   1.908   6.610  18.220  0.0820 -0.6074 -0.4531
 5016TIP3    H139243   1.964   6.599  18.296  1.5899  0.5489 -1.3402
 5016TIP3    H239244   1.819   6.615  18.255  0.6644 -0.9758  1.1222
 5017TIP3   OH239245   0.005   2.969  16.680 -0.4788  0.2942  0.3243
 5017TIP3    H139246  -0.089   2.967  16.698 -0.1923  0.0673  1.9892
 5017TIP3    H239247   0.014   3.031  16.608 -1.9632 -0.1911 -0.3224
 5018TIP3   OH239248   6.167   2.502  17.560  0.0404  0.2627 -0.2189
 5018TIP3    H139249   6.117   2.445  17.501 -0.6287 -1.3920  1.8488
 5018TIP3    H239250   6.256   2.466  17.559 -0.3008 -0.6452  0.8196
 5019TIP3   OH239251   4.251   7.125  18.998 -0.2522  0.2070  0.0533
 5019TIP3    H139252   4.284   7.057  18.940  1.4724  1.0845 -0.0782
 5019TIP3    H239253   4.188   7.173  18.945  0.9015  0.6656 -0.9530
 5020TIP3   OH239254   6.948   7.603  17.515 -0.1377  0.3257 -0.6505
 5020TIP3    H139255   6.906   7.679  17.474 -2.3560  0.2820  1.2973
 5020TIP3    H239256   6.993   7.640  17.591  0.6820 -0.0485 -0.9520
 5021TIP3   OH239257   7.592   1.629  16.723  0.2664 -0.0303  0.2225
 5021TIP3    H139258   7.667   1.686  16.744  1.7305 -1.8299  0.1192
 5021TIP3    H239259   7.590   1.565  16.793 -2.0081  0.6778  0.8884
 5022TIP3   OH239260   4.534   6.143  17.989 -0.3406 -0.5271  0.1448
 5022TIP3    H139261   4.607   6.135  17.928 -1.3988  1.5101 -1.5080
 5022TIP3    H239262   4.554   6.222  18.040 -0.9741 -0.4298  0.2538
 5023TIP3   OH239263   1.429   4.221  17.980 -0.0281  0.2695 -0.1233
 5023TIP3    H139264   1.518   4.256  17.986 -0.1777  0.5940  0.2229
 5023TIP3    H239265   1.374   4.289  18.018 -0.5881  0.7210 -1.6733
 5024TIP3   OH239266   3.293   4.612  17.335  0.2541 -0.8007 -0.0850
 5024TIP3    H139267   3.247   4.600  17.417  1.7385 -0.7484  0.7969
 5024TIP3    H239268   3.354   4.538  17.331  2.8474  1.1285  0.7565
 5025TIP3   OH239269   1.471   4.390  16.705  0.0890  0.1776  0.4981
 5025TIP3    H139270   1.482   4.485  16.714 -0.8893  0.1828  1.9402
 5025TIP3    H239271   1.389   4.379  16.658  1.0103  0.0327 -1.1447
 5026TIP3   OH239272   7.265   0.664  16.603  0.3629 -0.8504 -0.5273
 5026TIP3    H139273   7.241   0.572  16.606  2.1674 -1.3344  0.3004
 5026TIP3    H239274   7.280   0.688  16.694 -0.5593  0.4351 -0.6786
 5027TIP3   OH239275   3.375   4.482  18.559 -0.7067  0.4255  0.4771
 5027TIP3    H139276   3.305   4.459  18.498 -0.5162  0.6728  0.1665
 5027TIP3    H239277   3.343   4.451  18.644 -0.2688 -1.4226  0.0182
 5028TIP3   OH239278   0.721   0.896  17.115 -0.0908 -0.1740 -0.1557
 5028TIP3    H139279   0.727   0.966  17.180  1.3819  1.3827 -1.8543
 5028TIP3    H239280   0.784   0.831  17.144 -0.3239 -0.0791  0.5928
 5029TIP3   OH239281   6.154   3.735  18.676 -0.6835  0.2584  0.2702
 5029TIP3    H139282   6.170   3.759  18.584 -0.6033  0.6642  0.3887
 5029TIP3    H239283   6.098   3.658  18.671  0.5325 -0.6432 -0.1488
 5030TIP3   OH239284   6.270   2.240  17.035 -0.1821  0.0453 -0.2025
 5030TIP3    H139285   6.212   2.164  17.042 -0.7891  0.5687  0.7092
 5030TIP3    H239286   6.281   2.270  17.125  1.1195  0.2590 -0.4075
 5031TIP3   OH239287   0.644   5.983  16.765  0.0418 -0.1197  0.8029
 5031TIP3    H139288   0.712   5.934  16.720 -0.4891 -0.3347  0.2162
 5031TIP3    H239289   0.665   6.075  16.746  0.2930 -0.1755  0.8066
 5032TIP3   OH239290   4.303   2.478  18.799 -0.0430  0.9381 -0.1791
 5032TIP3    H139291   4.267   2.566  18.788 -0.3816  0.8656  0.3385
 5032TIP3    H239292   4.227   2.423  18.816  0.2978  0.7893  0.9393
 5033TIP3   OH239293   4.985   6.311  19.115  0.0299 -0.4027 -0.1022
 5033TIP3    H139294   5.018   6.246  19.178 -1.5508 -3.1555 -1.9048
 5033TIP3    H239295   5.064   6.347  19.074  0.9797 -0.4992  1.5292
 5034TIP3   OH239296   2.297   4.234  18.438 -0.2500 -0.0797  0.0639
 5034TIP3    H139297   2.319   4.218  18.530  1.0702 -1.1039 -0.3958
 5034TIP3    H239298   2.353   4.307  18.412 -0.1453 -0.2155 -0.0950
 5035TIP3   OH239299   2.628   0.933  17.164 -0.5348 -0.2836  0.3954
 5035TIP3    H139300   2.700   0.988  17.195 -0.3034 -0.4777  0.2057
 5035TIP3    H239301   2.667   0.881  17.094 -0.4844 -1.4033  1.2277
 5036TIP3   OH239302   3.475   6.921  17.188  0.4978 -0.6476  0.3769
 5036TIP3    H139303   3.525   6.986  17.139  3.0692 -3.3040 -0.8073
 5036TIP3    H239304   3.528   6.903  17.266  0.2060 -1.7876  0.3323
 5037TIP3   OH239305   4.398   1.186  19.016  0.2024 -1.0656 -0.2960
 5037TIP3    H139306   4.461   1.154  19.081 -1.4995 -2.5426  0.6918
 5037TIP3    H239307   4.453   1.218  18.944  2.0963 -1.4788  0.8880
 5038TIP3   OH239308   1.891   0.522  16.923 -0.2821 -0.3143  0.2245
 5038TIP3    H139309   1.871   0.459  16.993  0.4553  0.2883  0.9979
 5038TIP3    H239310   1.829   0.594  16.938 -1.8944 -1.3031 -1.3372
 5039TIP3   OH239311   7.577   6.867  16.892 -0.0278 -0.1250  0.3103
 5039TIP3    H139312   7.601   6.941  16.836  1.0581  0.0733  0.9972
 5039TIP3    H239313   7.546   6.800  16.831  0.9753  0.1470 -0.5352
 5040TIP3   OH239314   2.855   4.626  18.755 -0.0511 -0.3958 -0.5733
 5040TIP3    H139315   2.925   4.690  18.767 -0.3010 -0.2663  0.2630
 5040TIP3    H239316   2.879   4.578  18.676  0.0394  0.8646 -1.3251
 5041TIP3   OH239317   4.956   0.348  17.543  0.0724 -0.1717 -0.1479
 5041TIP3    H139318   4.867   0.377  17.562 -0.4321 -0.3209 -2.0771
 5041TIP3    H239319   4.979   0.290  17.617 -1.5680 -0.4334  0.1862
 5042TIP3   OH239320   2.345   4.907  16.615  0.3859  0.5295  0.0846
 5042TIP3    H139321   2.262   4.863  16.594  0.6399 -0.1737  0.5031
 5042TIP3    H239322   2.318   4.993  16.647 -0.1120  0.7868 -0.9730
 5043TIP3   OH239323   3.765   4.574  17.340  0.2333 -0.3123 -0.3744
 5043TIP3    H139324   3.744   4.602  17.251  1.7939  0.0906 -0.6455
 5043TIP3    H239325   3.802   4.652  17.381  2.7954 -1.3638 -0.5038
 5044TIP3   OH239326   1.551   3.050  17.594 -0.1316  0.1749  0.1248
 5044TIP3    H139327   1.490   3.005  17.653  0.5341  1.4676  1.8819
 5044TIP3    H239328   1.637   3.020  17.621  0.1959  1.0037  0.0146
 5045TIP3   OH239329   7.412   3.146  18.081  0.0747  0.4965 -0.3273
 5045TIP3    H139330   7.454   3.226  18.113  1.2440  0.4560 -1.6705
 5045TIP3    H239331   7.483   3.083  18.072 -0.7940 -0.6514  0.4588
 5046TIP3   OH239332   5.291   4.617  18.088  0.4652  0.1828  0.2425
 5046TIP3    H139333   5.231   4.691  18.074 -0.8690 -1.0115 -0.7147
 5046TIP3    H239334   5.367   4.638  18.035  0.2643  1.0311  0.2626
 5047TIP3   OH239335   2.100   7.634  18.646 -0.2944  0.0032  0.0057
 5047TIP3    H139336   2.027   7.694  18.630 -1.0626 -0.7994  0.4689
 5047TIP3    H239337   2.146   7.630  18.562 -1.2549 -0.1151 -0.5254
 5048TIP3   OH239338   0.923   3.112  19.465  0.5458  0.5401 -0.5302
 5048TIP3    H139339   0.834   3.122  19.432 -0.3167 -1.2724  1.0183
 5048TIP3    H239340   0.979   3.145  19.395 -1.2496 -0.7074 -2.6935
 5049TIP3   OH239341   5.253   3.894  17.238 -0.2037 -0.0828 -0.2086
 5049TIP3    H139342   5.317   3.961  17.212  0.9119 -1.3503 -0.8281
 5049TIP3    H239343   5.200   3.937  17.306  0.3636  1.4757 -0.7064
 5050TIP3   OH239344   0.060   6.789  18.389  0.1558  0.0563  0.2348
 5050TIP3    H139345   0.080   6.696  18.387 -0.0539  0.0149  0.0878
 5050TIP3    H239346  -0.030   6.794  18.422  0.0568  0.1896 -0.0598
 5051TIP3   OH239347   1.652   1.247  19.173 -0.0640 -0.6035 -0.4243
 5051TIP3    H139348   1.742   1.261  19.145 -0.3936 -0.1235 -1.3075
 5051TIP3    H239349   1.651   1.160  19.212  0.8462 -0.4709 -0.0846
 5052TIP3   OH239350   0.446   0.652  17.936  0.2474  0.3753 -0.3103
 5052TIP3    H139351   0.509   0.716  17.903  3.0694 -1.4008  1.2299
 5052TIP3    H239352   0.415   0.689  18.018  0.3546  0.6535 -0.3944
 5053TIP3   OH239353   6.483   6.112  19.377 -0.3265  0.4217 -0.0689
 5053TIP3    H139354   6.554   6.168  19.348  0.1490 -0.1445 -0.0009
 5053TIP3    H239355   6.522   6.025  19.387 -0.4599  0.5523  2.2123
 5054TIP3   OH239356   0.734   7.501  17.549  0.2581 -0.7812 -0.2088
 5054TIP3    H139357   0.706   7.592  17.535  0.1000 -0.7932  0.0204
 5054TIP3    H239358   0.740   7.464  17.461  0.0413 -0.6297 -0.2887
 5055TIP3   OH239359   7.228   2.871  17.377 -0.0584 -0.4104 -0.1440
 5055TIP3    H139360   7.289   2.941  17.397 -1.1804 -0.1501  2.9750
 5055TIP3    H239361   7.276   2.812  17.319  2.3423  0.8898  0.4156
 5056TIP3   OH239362   5.733   0.712  17.298 -0.5695 -0.5287  0.1289
 5056TIP3    H139363   5.803   0.743  17.241 -1.0048 -1.7261 -1.1133
 5056TIP3    H239364   5.741   0.616  17.297 -1.9651 -0.6752  0.2809
 5057TIP3   OH239365   2.423   2.035  16.476 -0.6354 -0.3746 -0.0839
 5057TIP3    H139366   2.454   2.103  16.536  0.1637  0.5558 -1.4894
 5057TIP3    H239367   2.432   2.074  16.389 -0.3199 -2.2121 -0.9283
 5058TIP3   OH239368   6.922   1.997  16.924  0.3620  0.2135 -0.1951
 5058TIP3    H139369   6.995   1.943  16.954 -0.6614 -1.6989 -1.0149
 5058TIP3    H239370   6.964   2.068  16.876  1.6965 -0.7966 -0.5836
 5059TIP3   OH239371   1.660   3.749  18.451 -0.3360  0.3898 -0.4362
 5059TIP3    H139372   1.620   3.725  18.367 -2.5641  0.3175  0.5710
 5059TIP3    H239373   1.600   3.812  18.490  0.7039  0.5232  1.0669
 5060TIP3   OH239374   1.179   5.303  17.446  0.0979 -0.2653 -0.2174
 5060TIP3    H139375   1.158   5.318  17.354 -0.3635  2.2803  0.2363
 5060TIP3    H239376   1.265   5.344  17.458  1.1842 -2.4718  0.0560
 5061TIP3   OH239377   5.706   1.265  19.053 -0.3475  0.1871  0.1623
 5061TIP3    H139378   5.711   1.349  19.099 -0.1763  0.7289 -0.8260
 5061TIP3    H239379   5.688   1.202  19.123 -1.9141  1.2083  0.7609
 5062TIP3   OH239380   4.289   1.267  19.289  0.2394 -1.0310  0.0622
 5062TIP3    H139381   4.281   1.358  19.261 -0.5788 -0.6735  1.3862
 5062TIP3    H239382   4.215   1.223  19.247  1.5652 -1.4971 -1.9476
 5063TIP3   OH239383   4.266   0.316  18.778  0.8105 -0.2762  0.2860
 5063TIP3    H139384   4.281   0.258  18.704  1.0330 -0.7426  0.6854
 5063TIP3    H239385   4.326   0.389  18.765  0.7842 -0.3130 -0.0376
 5064TIP3   OH239386   1.886   2.836  19.312 -0.2136 -0.3039  0.0256
 5064TIP3    H139387   1.962   2.893  19.315 -0.6952  0.5298 -1.9902
 5064TIP3    H239388   1.911   2.764  19.254  0.1924 -1.9484  2.0987
 5065TIP3   OH239389   7.038   3.741  18.179  0.3441 -0.3829 -0.5074
 5065TIP3    H139390   7.071   3.747  18.090  1.0203 -0.7981 -0.2957
 5065TIP3    H239391   7.077   3.815  18.225 -1.0775  0.6271 -0.8685
 5066TIP3   OH239392   0.101   7.195  16.686 -0.2452  0.9458 -0.6715
 5066TIP3    H139393   0.108   7.290  16.679  1.9344  0.9216  0.1621
 5066TIP3    H239394   0.149   7.174  16.767 -0.8090 -0.8444 -0.7648
 5067TIP3   OH239395   4.070   0.545  18.380  0.3676 -0.2222  0.0122
 5067TIP3    H139396   3.987   0.552  18.428 -0.1122 -0.7443 -0.7270
 5067TIP3    H239397   4.136   0.568  18.445 -0.3013 -0.5189  0.8234
 5068TIP3   OH239398   5.467   5.414  16.950 -0.3740 -0.1900  0.1444
 5068TIP3    H139399   5.397   5.349  16.950 -0.9383  0.4101 -0.5405
 5068TIP3    H239400   5.422   5.498  16.944  0.4119  0.1948 -0.4309
 5069TIP3   OH239401   2.529   4.191  17.581 -0.4512  0.5145  0.2732
 5069TIP3    H139402   2.550   4.163  17.492 -0.3752  0.3037  0.3569
 5069TIP3    H239403   2.444   4.234  17.574  0.1089  1.5788 -0.1131
 5070TIP3   OH239404   7.363   3.428  17.152  0.0861  0.1414 -0.8675
 5070TIP3    H139405   7.345   3.379  17.072 -0.2074 -1.1163 -0.0427
 5070TIP3    H239406   7.449   3.398  17.180 -1.9236 -3.6095  2.1936
 5071TIP3   OH239407   3.748   5.585  19.073 -0.0750  0.0109 -0.0323
 5071TIP3    H139408   3.675   5.566  19.131  1.2721 -1.0013  1.4244
 5071TIP3    H239409   3.757   5.505  19.020  0.4574 -0.2076  0.3715
 5072TIP3   OH239410   1.055   0.975  17.769 -0.3647 -0.0105 -0.3239
 5072TIP3    H139411   1.127   1.031  17.738  0.2592 -0.8546 -0.4349
 5072TIP3    H239412   0.984   1.036  17.787  0.5186  0.9059  0.2190
 5073TIP3   OH239413   6.819   3.723  18.449  0.5995  0.0346 -0.3974
 5073TIP3    H139414   6.842   3.757  18.363  2.7567 -1.1668 -0.3679
 5073TIP3    H239415   6.804   3.629  18.435  0.9405 -0.1714  0.5040
 5074TIP3   OH239416   5.714   1.507  19.197  0.5298  0.6915 -0.0805
 5074TIP3    H139417   5.807   1.488  19.193  0.7062  1.6866 -1.4613
 5074TIP3    H239418   5.695   1.518  19.291  1.6606 -0.0631  0.2513
 5075TIP3   OH239419   1.896   0.380  19.071 -0.4133 -0.0903  0.1392
 5075TIP3    H139420   1.984   0.405  19.099 -1.7358  2.0070  3.0043
 5075TIP3    H239421   1.865   0.455  19.020 -0.2205 -1.3144 -1.8887
 5076TIP3   OH239422   4.203   2.959  18.549  0.7081  0.0358 -0.4805
 5076TIP3    H139423   4.255   3.009  18.487  0.5068 -3.7771 -4.1187
 5076TIP3    H239424   4.114   2.993  18.539  0.6580 -0.5671 -2.5167
 5077TIP3   OH239425   4.895   1.806  19.193  0.2656 -0.3736 -0.4703
 5077TIP3    H139426   4.865   1.893  19.219  4.2082  0.9618  0.3489
 5077TIP3    H239427   4.815   1.758  19.172 -2.1622  3.1007 -0.0103
 5078TIP3   OH239428   6.493   3.957  19.193  0.4003 -0.3647  0.4429
 5078TIP3    H139429   6.482   4.010  19.272 -0.7416 -0.1040  0.1341
 5078TIP3    H239430   6.491   4.021  19.121  1.3105 -0.6130  0.1847
 5079TIP3   OH239431   0.191   2.769  19.003  0.6283  0.1770 -0.1892
 5079TIP3    H139432   0.242   2.690  19.023 -1.9552 -1.5037  0.1493
 5079TIP3    H239433   0.191   2.774  18.907  0.6074 -0.3823 -0.2213
 5080TIP3   OH239434   3.615   1.364  18.588  0.5605 -0.0618 -0.3940
 5080TIP3    H139435   3.679   1.354  18.518 -0.6298 -0.7836 -1.4057
 5080TIP3    H239436   3.666   1.356  18.668  1.6063 -1.5308 -1.1748
 5081TIP3   OH239437   0.967   4.871  17.663  0.7043  0.3288 -0.3739
 5081TIP3    H139438   0.935   4.959  17.645  1.5119  1.2394  2.2282
 5081TIP3    H239439   1.063   4.879  17.662  0.8852 -1.1385 -2.6106
 5082TIP3   OH239440   1.647   0.051  17.981 -0.1951 -0.1164  0.4578
 5082TIP3    H139441   1.735   0.060  17.944 -0.8105 -0.0371 -1.0864
 5082TIP3    H239442   1.626  -0.041  17.971 -1.2295  0.2866 -1.5585
 5083TIP3   OH239443   0.574   7.429  18.138  0.0103  0.1680  0.1168
 5083TIP3    H139444   0.539   7.344  18.114 -1.0634  0.0246  1.9283
 5083TIP3    H239445   0.512   7.492  18.101 -0.3849  0.0493  0.5638
 5084TIP3   OH239446   3.910   4.280  19.364 -0.0592 -0.2187 -0.4843
 5084TIP3    H139447   3.879   4.289  19.274 -0.6502 -1.1197 -0.3750
 5084TIP3    H239448   3.839   4.237  19.411  0.5666 -0.5072  0.2307
 5085TIP3   OH239449   4.196   4.340  17.325 -0.8227 -0.6387  0.2359
 5085TIP3    H139450   4.102   4.334  17.338 -0.7249 -0.7419  0.9414
 5085TIP3    H239451   4.228   4.251  17.339 -0.2616 -0.0769  3.2143
 5086TIP3   OH239452   3.065   5.593  18.954  0.2587  0.0221 -0.6205
 5086TIP3    H139453   3.125   5.540  19.006  0.4706  0.3883 -0.4871
 5086TIP3    H239454   3.115   5.615  18.875  0.5350  0.8621 -0.2229
 5087TIP3   OH239455   4.170   3.373  17.211 -0.1381 -0.1558  0.1108
 5087TIP3    H139456   4.192   3.347  17.301 -0.1166 -1.5528 -0.2776
 5087TIP3    H239457   4.146   3.466  17.218  0.4829 -0.0699  1.4512
 5088TIP3   OH239458   4.056   7.099  19.222  0.2920 -0.6435  0.4430
 5088TIP3    H139459   4.120   7.120  19.154 -1.9082  1.9266 -1.0567
 5088TIP3    H239460   4.083   7.149  19.298 -0.0853  0.8010 -0.3268
 5089TIP3   OH239461   0.894   4.774  17.919 -0.6833  0.7055 -0.6559
 5089TIP3    H139462   0.921   4.819  17.838 -0.4850  1.5906 -0.1051
 5089TIP3    H239463   0.968   4.787  17.979 -0.3932 -0.8016 -0.6403
 5090TIP3   OH239464   5.757   1.066  18.233 -0.3961 -0.5182 -0.3806
 5090TIP3    H139465   5.831   1.063  18.172  0.7168  1.1464  0.7726
 5090TIP3    H239466   5.767   0.988  18.287  1.1087  0.1227  0.3377
 5091TIP3   OH239467   6.797   5.462  19.178  0.0169  0.0086 -0.1339
 5091TIP3    H139468   6.715   5.511  19.188 -0.3849 -0.3780 -1.3495
 5091TIP3    H239469   6.786   5.414  19.096  2.0805  1.1530 -1.1548
 5092TIP3   OH239470   0.811   7.122  18.758  0.6296  0.3337  0.1269
 5092TIP3    H139471   0.762   7.200  18.783  0.5307  0.3643 -0.1582
 5092TIP3    H239472   0.815   7.126  18.662 -0.3388 -0.5967  0.0367
 5093TIP3   OH239473   2.927   4.505  18.080  0.2477 -0.3529  0.1085
 5093TIP3    H139474   2.868   4.506  18.156  0.8545  1.7384  0.6102
 5093TIP3    H239475   2.940   4.412  18.062 -2.4893 -0.9082  0.4993
 5094TIP3   OH239476   7.405   4.852  19.075 -0.1617 -0.3626 -0.1267
 5094TIP3    H139477   7.348   4.872  19.149 -2.0162 -1.7764 -1.0772
 5094TIP3    H239478   7.445   4.768  19.097  0.5299 -0.0186 -0.0486
 5095TIP3   OH239479   6.294   7.248  18.120 -0.0986 -1.0351  0.9149
 5095TIP3    H139480   6.349   7.316  18.161  0.0137 -0.6818  0.1894
 5095TIP3    H239481   6.240   7.215  18.192 -0.7254  0.3711  1.1343
 5096TIP3   OH239482   2.984   6.592  17.926  0.5564 -0.3528  0.1174
 5096TIP3    H139483   2.889   6.582  17.913  0.7007 -1.8762  0.1207
 5096TIP3    H239484   2.996   6.584  18.021  0.7305 -0.4944  0.0843
 5097TIP3   OH239485   0.082   0.981  19.640  0.1829  0.6103  0.4333
 5097TIP3    H139486   0.155   0.989  19.578 -0.3035  0.3795 -0.1923
 5097TIP3    H239487   0.123   0.960  19.723  0.7577 -1.9142 -0.3751
 5098TIP3   OH239488   5.249   3.835  17.646 -0.5503  0.7748  0.6186
 5098TIP3    H139489   5.177   3.881  17.689  0.6142  2.2994  1.0137
 5098TIP3    H239490   5.290   3.901  17.590  0.2713 -0.1828  0.0584
 5099TIP3   OH239491   2.343   5.641  16.771  0.1403 -0.0224 -0.2049
 5099TIP3    H139492   2.403   5.716  16.774 -0.7037  0.7047 -0.9816
 5099TIP3    H239493   2.350   5.608  16.681  1.0005 -1.3293  0.2947
 5100TIP3   OH239494   0.634   5.449  16.812 -0.0162 -0.3061 -0.0120
 5100TIP3    H139495   0.580   5.527  16.795 -0.9724 -1.3450 -2.0772
 5100TIP3    H239496   0.724   5.480  16.800 -0.4287  0.2497 -2.2626
 5101TIP3   OH239497   6.580   2.580  18.027 -0.7030  0.0976  0.1868
 5101TIP3    H139498   6.582   2.605  18.120  1.3031  0.9311 -0.0315
 5101TIP3    H239499   6.496   2.613  17.995 -1.8536 -0.9946  1.8773
 5102TIP3   OH239500   5.324   0.686  16.782 -0.2406  0.2615 -0.4153
 5102TIP3    H139501   5.277   0.612  16.742 -2.7257  1.3357  0.3068
 5102TIP3    H239502   5.309   0.759  16.722  0.0724  0.7620  0.1057
 5103TIP3   OH239503   5.633   4.691  17.985 -0.3393 -0.0270  0.0627
 5103TIP3    H139504   5.609   4.697  17.892 -2.0457  2.4851  0.5535
 5103TIP3    H239505   5.703   4.756  17.995  0.1009 -0.5603  0.4805
 5104TIP3   OH239506   1.945   1.833  18.243  0.0292  0.1332 -0.7283
 5104TIP3    H139507   1.992   1.892  18.302  0.2553 -0.5653 -0.1874
 5104TIP3    H239508   1.853   1.859  18.251 -0.2031 -1.0570  1.3334
 5105TIP3   OH239509   6.591   4.323  18.180  0.1394 -0.3075 -0.0189
 5105TIP3    H139510   6.602   4.303  18.087  0.5797 -0.2053  0.0128
 5105TIP3    H239511   6.659   4.272  18.224  0.9533  0.8496  0.1026
 5106TIP3   OH239512   6.707   6.572  18.615 -0.1962  0.6067  0.2521
 5106TIP3    H139513   6.747   6.506  18.672 -0.2548 -1.8387 -2.3056
 5106TIP3    H239514   6.613   6.555  18.622 -0.1463 -0.6477 -1.4757
 5107TIP3   OH239515   5.405   3.613  17.631  0.2179  0.1707  0.3822
 5107TIP3    H139516   5.335   3.663  17.588 -1.1761 -0.8991  1.3017
 5107TIP3    H239517   5.423   3.662  17.711  0.1031  0.1331  0.4310
 5108TIP3   OH239518   4.615   4.539  18.786 -0.5666  0.5279 -0.0576
 5108TIP3    H139519   4.611   4.542  18.690  0.9406 -2.7424 -0.3656
 5108TIP3    H239520   4.684   4.602  18.809 -2.8320  3.4667 -0.7408
 5109TIP3   OH239521   3.821   5.929  19.610  0.0492 -0.0392  0.2784
 5109TIP3    H139522   3.903   5.949  19.565 -0.8348  2.7804 -0.2998
 5109TIP3    H239523   3.834   5.961  19.699 -0.5727  0.9635  0.0269
 5110TIP3   OH239524   4.964   5.818  19.379 -0.0092  0.5402  0.0380
 5110TIP3    H139525   5.028   5.771  19.326  0.1522  1.5283 -0.6522
 5110TIP3    H239526   4.920   5.749  19.430 -0.4890 -0.4902 -1.7013
 5111TIP3   OH239527   0.873   0.487  17.806  0.4256  0.2247  0.0554
 5111TIP3    H139528   0.841   0.550  17.742 -1.2444  0.3914  1.0012
 5111TIP3    H239529   0.958   0.522  17.833  0.5745  0.8166 -1.1096
 5112TIP3   OH239530   2.242   0.919  18.338 -0.2570  0.4689 -0.2049
 5112TIP3    H139531   2.243   0.847  18.402 -2.2731 -1.3634 -2.0455
 5112TIP3    H239532   2.217   0.996  18.389 -0.0263 -0.5374  1.5101
 5113TIP3   OH239533   3.506   1.592  18.732 -0.5085 -0.2960  0.3955
 5113TIP3    H139534   3.468   1.634  18.809 -0.2142 -0.6282  0.7242
 5113TIP3    H239535   3.598   1.581  18.753 -0.3288  0.0170 -0.1866
 5114TIP3   OH239536   5.755   1.684  18.159  0.2478  0.6799  0.2358
 5114TIP3    H139537   5.764   1.717  18.248 -0.5162  1.8285 -0.0869
 5114TIP3    H239538   5.841   1.649  18.138  0.3557  0.1093  1.5252
 5115TIP3   OH239539   1.165   3.563  18.913  0.5106  0.0529 -0.6709
 5115TIP3    H139540   1.198   3.637  18.964  0.0717  0.5743 -1.1351
 5115TIP3    H239541   1.237   3.499  18.915 -0.4471 -1.1406  2.8816
 5116TIP3   OH239542   5.600   3.802  16.803  0.2042  0.2769 -0.4496
 5116TIP3    H139543   5.691   3.814  16.829 -0.5614  0.4151  2.5163
 5116TIP3    H239544   5.576   3.884  16.760  0.7822  1.2998  1.0933
 5117TIP3   OH239545   3.845   2.837  17.436  0.2397  0.3141  0.5375
 5117TIP3    H139546   3.894   2.865  17.359 -0.3471  1.2906  0.5015
 5117TIP3    H239547   3.824   2.918  17.482 -0.1987 -0.1881  1.2500
 5118TIP3   OH239548   5.230   3.158  17.169  0.5309 -0.0670 -0.2385
 5118TIP3    H139549   5.148   3.144  17.121 -0.2781 -0.0800  1.1174
 5118TIP3    H239550   5.290   3.091  17.135 -0.3525 -0.7415 -0.4912
 5119TIP3   OH239551   4.287   6.960  17.574 -0.2053 -0.4143  0.4027
 5119TIP3    H139552   4.259   7.027  17.512  1.5378  0.8541  0.8942
 5119TIP3    H239553   4.316   6.887  17.520  1.7596  0.8621 -0.3645
 5120TIP3   OH239554   4.801   2.495  16.781 -0.0808 -0.0972 -0.4367
 5120TIP3    H139555   4.806   2.540  16.866 -2.8027 -1.3988  0.5211
 5120TIP3    H239556   4.868   2.427  16.786 -0.4688 -0.4046  0.8261
 5121TIP3   OH239557   5.686   3.173  18.568  0.3250  0.3613  0.4354
 5121TIP3    H139558   5.776   3.151  18.594 -0.0944  0.1604  1.7886
 5121TIP3    H239559   5.675   3.129  18.484  1.5323  0.4987  0.1802
 5122TIP3   OH239560   6.922   2.434  18.901  0.0480 -0.0189 -0.6344
 5122TIP3    H139561   6.840   2.484  18.907 -1.1890 -1.6321 -2.6445
 5122TIP3    H239562   6.919   2.375  18.976 -1.3786 -1.0407 -1.4515
 5123TIP3   OH239563   3.782   2.186  18.369 -0.0438 -0.4593  0.0317
 5123TIP3    H139564   3.744   2.160  18.285 -0.5669  0.2929  0.0237
 5123TIP3    H239565   3.755   2.118  18.430 -0.7425 -0.3449 -0.1462
 5124TIP3   OH239566   5.798   7.020  17.987  0.0781  1.0278 -0.2115
 5124TIP3    H139567   5.781   7.061  17.902  2.3363  1.9986 -0.2566
 5124TIP3    H239568   5.861   6.950  17.968 -2.0091 -1.0984  0.2166
 5125TIP3   OH239569   3.200   1.747  19.427 -0.1180  0.7674 -0.5279
 5125TIP3    H139570   3.182   1.727  19.335  0.5778 -1.9331 -0.1597
 5125TIP3    H239571   3.142   1.688  19.476  0.5697  1.1116  0.7379
 5126TIP3   OH239572   5.485   0.494  18.156  0.4430 -0.0143  0.1666
 5126TIP3    H139573   5.399   0.474  18.193  0.7880 -1.7476  0.1554
 5126TIP3    H239574   5.510   0.414  18.110  1.6126  0.8281 -0.7209
 5127TIP3   OH239575   0.133   4.067  19.147  0.1484 -0.5439  0.0749
 5127TIP3    H139576   0.079   4.146  19.142 -0.1282 -0.6888  0.7221
 5127TIP3    H239577   0.128   4.040  19.238  0.6904 -1.0011 -0.0237
 5128TIP3   OH239578   4.640   0.433  18.596  0.1362  0.1313  0.2012
 5128TIP3    H139579   4.553   0.473  18.590  0.1731  0.2705  0.5638
 5128TIP3    H239580   4.674   0.463  18.680  1.1235  1.2699 -0.5579
 5129TIP3   OH239581   4.224   4.573  19.248  0.2442  0.4241 -0.1775
 5129TIP3    H139582   4.133   4.567  19.279  0.2043  1.9134  0.0797
 5129TIP3    H239583   4.230   4.508  19.178 -0.5506 -0.8184  0.8508
 5130TIP3   OH239584   0.753   6.254  18.613  0.0797  0.3910 -0.3381
 5130TIP3    H139585   0.807   6.182  18.579  0.3206  0.4684 -0.1259
 5130TIP3    H239586   0.814   6.327  18.621 -0.1041  0.5384 -0.2940
 5131TIP3   OH239587   3.877   1.841  18.431 -0.0784  0.0167 -0.2414
 5131TIP3    H139588   3.871   1.890  18.349 -0.7686  1.2262  0.4931
 5131TIP3    H239589   3.928   1.897  18.489  0.6402 -0.9528  0.0871
 5132TIP3   OH239590   2.998   1.137  16.928  0.2878 -0.1582  0.2084
 5132TIP3    H139591   3.064   1.099  16.870 -1.1428  0.3213 -1.8563
 5132TIP3    H239592   2.915   1.110  16.890 -0.7326 -0.5780  2.6230
 5133TIP3   OH239593   6.102   0.940  17.733 -0.4604 -0.5303  0.1097
 5133TIP3    H139594   6.146   0.885  17.667 -1.4004 -1.1980  0.0140
 5133TIP3    H239595   6.032   0.884  17.767  0.9991 -0.8098  2.9073
 5134TIP3   OH239596   7.136   6.982  18.212  1.0008  0.1616 -0.8661
 5134TIP3    H139597   7.191   7.051  18.249  0.7574 -0.4553  0.7261
 5134TIP3    H239598   7.095   7.023  18.135  1.8973  1.3419 -0.7492
 5135TIP3   OH239599   2.492   0.473  17.544  0.2596  0.0331  0.0973
 5135TIP3    H139600   2.586   0.478  17.529  0.5974  0.3393  2.1402
 5135TIP3    H239601   2.476   0.382  17.569 -0.0398 -0.0709 -0.4420
 5136TIP3   OH239602   4.548   5.600  18.134 -0.3590  0.0467 -0.5232
 5136TIP3    H139603   4.637   5.568  18.116 -0.1878 -0.0011  0.3604
 5136TIP3    H239604   4.506   5.530  18.183 -0.1066  0.9671  1.0872
 5137TIP3   OH239605   2.941   5.064  18.531  0.4038 -0.1162  0.5336
 5137TIP3    H139606   2.853   5.035  18.508  1.2954 -0.5635 -2.7416
 5137TIP3    H239607   2.971   5.000  18.596 -0.9218 -1.1894  0.1352
 5138TIP3   OH239608   3.745   7.513  17.732  0.1488  0.0149  0.1456
 5138TIP3    H139609   3.762   7.536  17.641  2.4091  0.4609  0.6338
 5138TIP3    H239610   3.683   7.579  17.762  0.0990  0.4177 -0.8111
 5139TIP3   OH239611   3.271   1.779  18.199 -0.2804 -0.1720 -0.6782
 5139TIP3    H139612   3.327   1.717  18.152 -0.4810  0.3080 -1.5709
 5139TIP3    H239613   3.205   1.805  18.135 -0.0854  1.1110 -0.3816
 5140TIP3   OH239614   6.012   2.512  17.200 -0.0962  0.5184  0.1232
 5140TIP3    H139615   5.964   2.434  17.230  3.1074 -1.3797  0.8319
 5140TIP3    H239616   5.990   2.579  17.265 -0.0978 -0.9513  1.7430
 5141TIP3   OH239617   4.372   4.499  17.964 -0.0101 -0.1256  0.8031
 5141TIP3    H139618   4.393   4.406  17.955  0.3973 -0.1319  1.6600
 5141TIP3    H239619   4.360   4.530  17.875  0.5024 -0.8490  0.4716
 5142TIP3   OH239620   1.616   1.415  17.276 -0.2576  0.4239 -0.1995
 5142TIP3    H139621   1.569   1.493  17.248 -2.0617  0.1002  1.6567
 5142TIP3    H239622   1.576   1.392  17.360  3.3195  0.1938  1.6585
 5143TIP3   OH239623   3.384   4.096  17.882  0.4124 -0.0263 -0.0653
 5143TIP3    H139624   3.305   4.049  17.910  1.1294 -1.9810 -1.1791
 5143TIP3    H239625   3.401   4.064  17.794  1.6732  1.4286 -0.3792
 5144TIP3   OH239626   0.681   2.529  19.140  0.7460  0.4672 -0.1488
 5144TIP3    H139627   0.645   2.551  19.054  2.2992  3.1143 -0.2521
 5144TIP3    H239628   0.771   2.560  19.136  0.8985  0.5137  2.3817
 5145TIP3   OH239629   5.501   3.504  18.711  0.3936 -0.2739 -0.4236
 5145TIP3    H139630   5.521   3.556  18.633  0.8572 -1.8889 -1.4160
 5145TIP3    H239631   5.585   3.494  18.755  0.1296  0.6459  0.3208
 5146TIP3   OH239632   5.968   4.762  17.574  0.1172  0.0808  0.6246
 5146TIP3    H139633   6.057   4.764  17.538  0.3745  1.3983  1.2810
 5146TIP3    H239634   5.942   4.854  17.580 -2.1414 -0.2901 -1.5678
 5147TIP3   OH239635   5.393   2.552  19.279  0.3892  0.5318  0.0082
 5147TIP3    H139636   5.438   2.507  19.207  0.0685  1.0785 -0.5492
 5147TIP3    H239637   5.456   2.618  19.308 -0.5702  2.3880 -1.8429
 5148TIP3   OH239638   6.176   7.073  17.361  0.7219 -0.2945 -0.2340
 5148TIP3    H139639   6.248   7.117  17.316 -0.8786  1.5871 -1.1381
 5148TIP3    H239640   6.173   7.113  17.448  2.1147 -1.9877  0.6451
 5149TIP3   OH239641   2.522   6.444  18.956 -0.1304 -0.2219 -0.4556
 5149TIP3    H139642   2.514   6.515  19.020  0.3869 -0.4860 -0.0875
 5149TIP3    H239643   2.616   6.431  18.946 -0.1734 -2.1678  0.9853
 5150TIP3   OH239644   7.089   7.061  19.037 -0.4759 -0.0117  0.0525
 5150TIP3    H139645   7.037   7.134  19.002 -0.7969 -0.3812 -0.2545
 5150TIP3    H239646   7.112   7.009  18.961 -3.2567 -2.1792  0.5351
 5151TIP3   OH239647   2.500   1.984  18.863 -0.5032 -0.1844  0.0441
 5151TIP3    H139648   2.496   1.962  18.956  0.9152  1.3153  0.5122
 5151TIP3    H239649   2.567   2.052  18.857  1.1338 -1.8212 -2.3739
 5152TIP3   OH239650   1.193   0.279  17.626 -0.2290  0.0456 -0.1572
 5152TIP3    H139651   1.164   0.199  17.669  0.6718  0.3196  1.0463
 5152TIP3    H239652   1.164   0.270  17.535 -0.4776 -1.4615  0.0416
 5153TIP3   OH239653   2.418   2.574  18.493 -0.8513  0.2315  0.6487
 5153TIP3    H139654   2.469   2.562  18.573  0.3399  0.5403 -0.0462
 5153TIP3    H239655   2.475   2.544  18.422 -2.6509 -2.0545  0.0371
 5154TIP3   OH239656   6.521   1.725  18.163 -0.3262  0.0487 -0.1173
 5154TIP3    H139657   6.490   1.815  18.150 -1.2522 -0.0452  1.2216
 5154TIP3    H239658   6.584   1.711  18.093  0.4438  2.0353  0.1214
 5155TIP3   OH239659   5.158   2.975  19.295 -0.0028  0.1452 -0.4968
 5155TIP3    H139660   5.072   3.002  19.264 -0.6572 -1.2852 -0.0448
 5155TIP3    H239661   5.168   3.017  19.381  0.4736  1.5978 -1.2254
 5156TIP3   OH239662   5.148   5.911  18.626  0.1435 -0.0840 -0.1667
 5156TIP3    H139663   5.155   5.830  18.677  0.9163  0.3980  0.5106
 5156TIP3    H239664   5.235   5.925  18.589 -0.0114  0.3818 -0.3667
 5157TIP3   OH239665   5.514   5.020  18.267  0.5901  0.1814  0.3135
 5157TIP3    H139666   5.566   4.942  18.290 -0.1046 -0.5471 -0.5213
 5157TIP3    H239667   5.423   4.990  18.269  0.4171  0.4212 -1.9936
 5158TIP3   OH239668   6.453   2.613  16.965  0.3467  0.9899 -0.5230
 5158TIP3    H139669   6.511   2.688  16.978  0.1479  0.7749  2.0056
 5158TIP3    H239670   6.439   2.578  17.052 -1.5417 -0.5412 -1.3730
 5159TIP3   OH239671   2.134   5.767  18.039  0.5396 -0.0250  0.3382
 5159TIP3    H139672   2.138   5.732  18.128 -1.2067  1.4626  1.0685
 5159TIP3    H239673   2.047   5.741  18.007  0.7800  0.2727 -0.5872
 5160TIP3   OH239674   0.171   0.087  19.461 -0.1316 -0.2828 -0.3194
 5160TIP3    H139675   0.116   0.087  19.382  0.3504  0.3979 -0.6590
 5160TIP3    H239676   0.145   0.007  19.507 -4.1040  1.7231  1.4178
 5161TIP3   OH239677   6.328   5.238  17.898 -0.8840 -0.2151  0.2407
 5161TIP3    H139678   6.297   5.255  17.987 -0.2991  0.3573  0.3379
 5161TIP3    H239679   6.419   5.266  17.898 -0.9214 -0.0635 -0.5830
 5162TIP3   OH239680   4.004   0.377  18.849 -0.2406  0.4927 -0.1426
 5162TIP3    H139681   3.945   0.302  18.852  1.3120 -0.7560  1.2689
 5162TIP3    H239682   4.083   0.344  18.806 -0.3136  1.9840 -1.5398
 5163TIP3   OH239683   7.674   4.691  17.123 -0.0492  0.0811  0.3985
 5163TIP3    H139684   7.744   4.642  17.165 -1.7386 -0.5297  2.7300
 5163TIP3    H239685   7.610   4.705  17.193 -2.5763 -0.0051 -1.7470
 5164TIP3   OH239686   6.000   7.232  19.694 -0.4187 -0.1202 -0.5715
 5164TIP3    H139687   6.084   7.219  19.739  0.6999 -0.0144 -2.4726
 5164TIP3    H239688   5.941   7.168  19.733  0.5399 -0.1789  0.8438
 5165TIP3   OH239689   5.477   3.290  16.413  0.3123  0.0988 -0.2556
 5165TIP3    H139690   5.563   3.255  16.386  0.2618 -1.0865  1.0095
 5165TIP3    H239691   5.492   3.383  16.425  1.5316 -0.1380  0.2417
 5166TIP3   OH239692   1.192   5.940  19.542 -0.0026  0.1834 -0.0490
 5166TIP3    H139693   1.153   6.019  19.580  1.7809  0.3624  1.5793
 5166TIP3    H239694   1.159   5.869  19.597  2.1787  0.3848  1.6338
 5167TIP3   OH239695   1.140   5.000  19.284  0.0775 -0.2978 -0.0249
 5167TIP3    H139696   1.068   5.060  19.262  0.0627  0.4829  1.9262
 5167TIP3    H239697   1.108   4.914  19.257 -0.9542  0.2467 -0.6190
 5168TIP3   OH239698   0.271   5.678  17.816  0.6048 -0.1458  0.1857
 5168TIP3    H139699   0.255   5.768  17.842  0.9784  0.2523 -0.8956
 5168TIP3    H239700   0.232   5.625  17.886 -0.4501  0.8291  0.3615
 5169TIP3   OH239701   4.187   1.242  18.300  0.5986  0.3883 -0.1818
 5169TIP3    H139702   4.150   1.329  18.314 -1.2857 -0.3601 -0.2547
 5169TIP3    H239703   4.139   1.207  18.225  2.1932 -0.2689 -0.9403
 5170TIP3   OH239704   0.883   7.324  18.123 -0.7441 -0.0848  0.0463
 5170TIP3    H139705   0.851   7.349  18.036 -0.9307 -0.7545 -0.0818
 5170TIP3    H239706   0.969   7.365  18.130 -1.2693  1.0577  0.0676
 5171TIP3   OH239707   0.416   3.566  18.903  0.2788  0.3405  0.2763
 5171TIP3    H139708   0.356   3.632  18.938  0.7411  0.4317  0.9248
 5171TIP3    H239709   0.482   3.556  18.971  0.6115 -0.2690 -0.1282
 5172TIP3   OH239710   6.701   4.651  18.300 -0.3640 -0.8604  0.3637
 5172TIP3    H139711   6.791   4.625  18.280 -0.4745 -0.9897  0.0210
 5172TIP3    H239712   6.675   4.593  18.372  0.5128  0.5497  1.8739
 5173TIP3   OH239713   7.443   6.685  16.513 -0.3688 -0.9908 -0.1937
 5173TIP3    H139714   7.431   6.592  16.530 -1.6496 -1.2720 -2.3096
 5173TIP3    H239715   7.537   6.696  16.503 -0.0643 -1.7490  1.4195
 5174TIP3   OH239716   6.581   6.505  17.524 -0.2083  0.8812  1.0288
 5174TIP3    H139717   6.496   6.530  17.561 -0.3084  0.9716  0.7417
 5174TIP3    H239718   6.635   6.485  17.600 -0.1420  1.9086  1.2594
 5175TIP3   OH239719   1.514   4.321  19.244  0.0575  0.1390  1.2213
 5175TIP3    H139720   1.464   4.245  19.216 -2.0970  1.7306  0.5136
 5175TIP3    H239721   1.464   4.358  19.317  0.2858  1.6370  0.6663
 5176TIP3   OH239722   7.513   2.110  18.460  0.0904 -0.1554  0.7789
 5176TIP3    H139723   7.452   2.179  18.486 -1.0133 -1.7357  2.6758
 5176TIP3    H239724   7.549   2.078  18.542  3.4772  0.6005 -0.2670
 5177TIP3   OH239725   2.478   5.232  17.565  0.2963  0.0896 -0.5812
 5177TIP3    H139726   2.398   5.236  17.512  0.7433  0.4373 -1.2409
 5177TIP3    H239727   2.543   5.193  17.507  0.3957 -1.0034  0.2380
 5178TIP3   OH239728   0.748   1.091  18.785  0.2469  0.0656  0.0182
 5178TIP3    H139729   0.682   1.022  18.776  0.7115 -0.3374 -0.3848
 5178TIP3    H239730   0.709   1.168  18.745  0.6558 -0.6061 -1.7735
 5179TIP3   OH239731   7.453   4.745  18.833  0.7119  0.0239  0.5451
 5179TIP3    H139732   7.436   4.795  18.913  0.0998 -1.7994  1.6120
 5179TIP3    H239733   7.544   4.717  18.842  0.6289 -0.2204  0.6291
 5180TIP3   OH239734   6.570   2.809  19.243  0.3295  0.1257 -0.2822
 5180TIP3    H139735   6.639   2.782  19.304 -0.3072 -0.5098  0.1722
 5180TIP3    H239736   6.507   2.856  19.298 -0.6702 -1.1812 -0.2748
 5181TIP3   OH239737   1.964   3.919  17.991  0.1619  0.1131  0.5909
 5181TIP3    H139738   1.926   3.937  17.905  0.7896  3.5223  0.8754
 5181TIP3    H239739   1.897   3.868  18.037 -0.4437 -1.2474 -1.6704
 5182TIP3   OH239740   0.500   6.154  18.696  0.1321 -0.0594 -0.0772
 5182TIP3    H139741   0.586   6.192  18.678 -0.4735  0.8510 -1.2467
 5182TIP3    H239742   0.497   6.145  18.791  0.9650  1.2732  0.1073
 5183TIP3   OH239743   4.813   6.583  19.488 -0.0599 -0.2258  0.1231
 5183TIP3    H139744   4.865   6.552  19.414  0.4193  0.9875 -0.0708
 5183TIP3    H239745   4.811   6.509  19.549  0.9610 -0.6651 -0.3586
 5184TIP3   OH239746   4.467   6.143  17.672 -0.1908  0.1290 -0.3396
 5184TIP3    H139747   4.395   6.178  17.725  0.0094  1.7007 -1.0249
 5184TIP3    H239748   4.481   6.054  17.704 -0.6642  0.7160  1.6236
 5185TIP3   OH239749   4.971   6.264  17.724  0.6680  0.2077 -0.5267
 5185TIP3    H139750   4.883   6.231  17.744  0.8927  0.0816  0.2734
 5185TIP3    H239751   4.996   6.217  17.644  0.7813 -1.2059  0.3078
 5186TIP3   OH239752   6.689   1.992  18.747 -0.0249 -0.0574  0.4138
 5186TIP3    H139753   6.633   2.069  18.737  0.2212  0.3404  1.8318
 5186TIP3    H239754   6.633   1.926  18.789 -0.0396 -0.4170 -0.1604
 5187TIP3   OH239755   7.625   3.690  17.278 -0.8008 -0.0238 -0.1682
 5187TIP3    H139756   7.667   3.642  17.207  1.9571  0.3891  1.0943
 5187TIP3    H239757   7.532   3.666  17.271 -0.3413 -1.4042 -2.7455
 5188TIP3   OH239758   1.910   2.581  17.323 -0.1728 -0.2849 -0.0303
 5188TIP3    H139759   1.866   2.550  17.244 -2.4995  0.2010  0.9922
 5188TIP3    H239760   1.874   2.669  17.337  1.0503  0.0866  0.9822
 5189TIP3   OH239761   3.536   7.022  18.436  0.5544  0.4239  0.3745
 5189TIP3    H139762   3.562   6.930  18.435  1.1165  0.5834 -0.0724
 5189TIP3    H239763   3.534   7.045  18.529 -2.5548 -0.8443  0.7631
 5190TIP3   OH239764   6.578   0.686  18.269 -0.1388  0.1562 -0.3056
 5190TIP3    H139765   6.649   0.659  18.210  0.8190  0.1853  0.7816
 5190TIP3    H239766   6.604   0.651  18.354 -1.9142 -0.6381 -0.0367
 5191TIP3   OH239767   0.715   2.200  18.660  0.4585  0.3614 -0.0919
 5191TIP3    H139768   0.686   2.252  18.735 -0.1606 -0.3109  0.1456
 5191TIP3    H239769   0.806   2.227  18.646  1.7579 -1.7496  2.9860
 5192TIP3   OH239770   3.070   5.598  18.038  0.4219  1.1211 -0.3665
 5192TIP3    H139771   3.102   5.550  18.115  0.5962 -0.2735 -1.2661
 5192TIP3    H239772   3.135   5.667  18.024  0.7241  0.9906  0.3635
 5193TIP3   OH239773   0.439   4.879  18.206 -0.5293  0.2882 -0.0485
 5193TIP3    H139774   0.354   4.835  18.209 -0.8422  0.7000 -1.8409
 5193TIP3    H239775   0.448   4.920  18.292 -2.7583  1.3085 -0.2310
 5194TIP3   OH239776   4.483   2.745  18.592 -0.2767  0.3598  0.7985
 5194TIP3    H139777   4.473   2.794  18.674 -0.3166  0.7043  0.5903
 5194TIP3    H239778   4.472   2.811  18.523  3.4023  0.8834  0.4770
 5195TIP3   OH239779   6.945   7.213  17.479 -0.4739  0.2771  0.2925
 5195TIP3    H139780   7.030   7.235  17.517 -1.1888  0.4847  1.8620
 5195TIP3    H239781   6.951   7.120  17.457  0.7073  0.6657 -1.2287
 5196TIP3   OH239782   7.637   0.703  17.413  0.9939  0.4455  0.1613
 5196TIP3    H139783   7.571   0.744  17.468  0.6406  1.4694 -0.9715
 5196TIP3    H239784   7.633   0.610  17.435  0.0173  0.6672  0.9679
 5197TIP3   OH239785   0.252   0.239  18.354  0.4199  0.2496 -0.3882
 5197TIP3    H139786   0.336   0.243  18.401  0.3341 -1.3651 -0.0510
 5197TIP3    H239787   0.227   0.147  18.358 -1.1715  0.6407 -0.8566
 5198TIP3   OH239788   0.581   6.926  19.305  0.3914  0.2673 -0.5527
 5198TIP3    H139789   0.672   6.903  19.288 -0.0036 -0.3286 -2.1043
 5198TIP3    H239790   0.531   6.864  19.252 -0.9079  0.8111 -0.0078
 5199TIP3   OH239791   1.165   7.578  18.530  0.3223 -0.0438  0.1708
 5199TIP3    H139792   1.172   7.486  18.505 -0.0597 -0.0313  0.0073
 5199TIP3    H239793   1.222   7.587  18.606 -0.2777 -0.6143  0.6982
 5200TIP3   OH239794   0.525   0.545  18.357  0.5200  0.0048 -0.2081
 5200TIP3    H139795   0.466   0.607  18.314 -1.2596  0.1887  2.3059
 5200TIP3    H239796   0.485   0.459  18.340  0.8309 -0.1014 -0.4197
 5201TIP3   OH239797   1.212   5.609  19.102 -0.7055 -0.2332  0.5939
 5201TIP3    H139798   1.231   5.653  19.185 -1.8928  0.0003  0.7533
 5201TIP3    H239799   1.134   5.557  19.119  0.1419 -1.6954  0.1366
 5202TIP3   OH239800   2.151   6.471  18.087  0.2778 -0.1067  0.2927
 5202TIP3    H139801   2.127   6.497  18.176  0.1402  0.8926 -0.0278
 5202TIP3    H239802   2.177   6.379  18.096 -0.1402 -0.1470  1.2859
 5203TIP3   OH239803   5.465   1.498  17.390 -0.3496  0.2758 -0.0238
 5203TIP3    H139804   5.422   1.414  17.371 -0.0966  0.3898 -1.1680
 5203TIP3    H239805   5.558   1.476  17.396 -0.3083  0.4286 -0.0915
 5204TIP3   OH239806   5.601   1.877  18.778  0.6693  0.0102  0.1805
 5204TIP3    H139807   5.534   1.828  18.731  2.5372  0.8090 -3.7217
 5204TIP3    H239808   5.678   1.821  18.774  1.9898  1.8142 -1.6278
 5205TIP3   OH239809   7.050   7.098  17.074  0.1216  0.2851  0.3968
 5205TIP3    H139810   6.961   7.070  17.096  0.0205  0.1838 -0.1188
 5205TIP3    H239811   7.076   7.156  17.146 -1.5069  2.8071 -0.8963
 5206TIP3   OH239812   1.605   2.708  18.690 -0.2158 -0.1551 -0.4319
 5206TIP3    H139813   1.570   2.797  18.684 -0.5772 -0.3260 -0.8870
 5206TIP3    H239814   1.697   2.721  18.715 -0.2615  0.3447 -0.5043
 5207TIP3   OH239815   2.256   1.061  17.331 -0.1251  0.2626  0.1355
 5207TIP3    H139816   2.313   1.123  17.285  0.1020  0.4811  0.7017
 5207TIP3    H239817   2.236   1.104  17.414  0.7450 -0.7744  0.9101
 5208TIP3   OH239818   7.191   5.823  16.906 -0.2878 -0.2639  0.0518
 5208TIP3    H139819   7.199   5.811  17.001  1.3104  0.5530  0.0452
 5208TIP3    H239820   7.106   5.784  16.885 -0.3509 -1.1259  1.6972
 5209TIP3   OH239821   5.321   7.616  18.904  0.0567 -0.1923 -0.2264
 5209TIP3    H139822   5.292   7.525  18.897 -0.3114 -0.2303  1.3502
 5209TIP3    H239823   5.385   7.614  18.976  1.7617  0.4158 -1.6705
 5210TIP3   OH239824   2.116   5.037  18.095  0.1379  0.4765 -0.3977
 5210TIP3    H139825   2.106   5.126  18.128  3.0920  0.6170  0.4324
 5210TIP3    H239826   2.094   5.043  18.002  3.8713  3.0789 -1.3426
 5211TIP3   OH239827   3.381   4.104  19.453 -0.1824  0.0560  0.7239
 5211TIP3    H139828   3.323   4.179  19.464  0.3777  0.3796  1.5999
 5211TIP3    H239829   3.325   4.035  19.417 -1.0015  0.4861  1.1464
 5212TIP3   OH239830   1.706   1.151  18.596  0.0454  0.3893  0.1322
 5212TIP3    H139831   1.762   1.216  18.638 -0.9698  1.6727 -0.4204
 5212TIP3    H239832   1.750   1.067  18.611  2.6928  1.4234 -1.1873
 5213TIP3   OH239833   7.572   6.680  19.155 -0.1912 -0.2332 -0.4919
 5213TIP3    H139834   7.663   6.687  19.127  1.0443 -2.5542  2.4431
 5213TIP3    H239835   7.560   6.749  19.220 -0.6209  0.1694 -0.9835
 5214TIP3   OH239836   0.787   1.478  18.533 -0.4020 -0.5849 -0.2386
 5214TIP3    H139837   0.835   1.444  18.458 -1.0648 -0.5992 -0.6578
 5214TIP3    H239838   0.852   1.530  18.581  0.5943 -2.3039  0.3565
 5215TIP3   OH239839   7.415   2.689  18.628 -0.4538 -0.2667  0.4399
 5215TIP3    H139840   7.444   2.769  18.672 -1.6040  0.1955  0.3998
 5215TIP3    H239841   7.402   2.716  18.537  0.2396 -0.7872  0.1821
 5216TIP3   OH239842   0.940   6.028  18.549  0.2450  0.2803  0.3972
 5216TIP3    H139843   0.930   5.948  18.601  0.0532  0.0886  0.0644
 5216TIP3    H239844   0.926   6.000  18.459 -0.9986  0.9049  0.3868
 5217TIP3   OH239845   0.510   7.450  18.573  0.4295  0.5603 -0.1629
 5217TIP3    H139846   0.539   7.540  18.558  1.7390  0.3328  0.8599
 5217TIP3    H239847   0.415   7.458  18.589  0.2291  1.5339 -1.7190
 5218TIP3   OH239848   6.439   0.675  18.690  0.3892  0.6888 -0.2523
 5218TIP3    H139849   6.417   0.701  18.600 -0.5343  0.2395 -0.1712
 5218TIP3    H239850   6.494   0.598  18.679 -2.4362 -1.4732 -0.4728
 5219TIP3   OH239851   5.396   3.002  19.537  0.0474  0.4934 -0.3689
 5219TIP3    H139852   5.309   3.041  19.546 -0.7303 -1.2172 -0.0860
 5219TIP3    H239853   5.385   2.912  19.566  1.6510 -0.0948 -1.4518
 5220TIP3   OH239854   2.393   3.437  17.988  0.4333  0.6643  0.1934
 5220TIP3    H139855   2.423   3.351  17.960 -0.0383  1.0601 -1.6769
 5220TIP3    H239856   2.465   3.496  17.966  0.0814  0.9799 -0.1296
 5221TIP3   OH239857   4.357   5.648  18.446 -0.6065  0.4486 -0.0490
 5221TIP3    H139858   4.345   5.743  18.442 -2.6458  0.2114 -3.3111
 5221TIP3    H239859   4.364   5.621  18.354  4.3452 -2.2156  0.7460
 5222TIP3   OH239860   2.026   4.025  19.526 -0.3408  0.0435 -0.0630
 5222TIP3    H139861   2.024   4.117  19.500 -0.7557  0.1174  0.2194
 5222TIP3    H239862   1.936   3.995  19.515  0.2751 -1.0903 -2.7320
 5223TIP3   OH239863   7.475   5.940  18.760 -0.8841 -0.4836  0.2783
 5223TIP3    H139864   7.469   5.946  18.855 -0.9862 -1.2357  0.3309
 5223TIP3    H239865   7.386   5.958  18.729 -0.3739  2.1884  0.1431
 5224TIP3   OH239866   4.073   2.443  17.664 -0.4682  0.2631 -0.0740
 5224TIP3    H139867   4.166   2.421  17.668 -0.8480 -1.4008  0.3903
 5224TIP3    H239868   4.067   2.511  17.597  0.7982 -1.2834 -1.8726
 5225TIP3   OH239869   1.418   0.456  18.912  0.1204  0.1683 -0.6358
 5225TIP3    H139870   1.344   0.516  18.915 -1.0895 -1.3027  0.4862
 5225TIP3    H239871   1.476   0.493  18.845 -1.4040  1.5892 -1.2496
 5226TIP3   OH239872   2.468   0.447  19.039  0.2400 -0.3012 -0.4063
 5226TIP3    H139873   2.466   0.358  19.003  0.0068 -0.8441  0.9115
 5226TIP3    H239874   2.504   0.500  18.968 -1.8897 -0.9973 -2.1361
 5227TIP3   OH239875   5.030   2.569  18.439  0.4905  0.7669 -0.4921
 5227TIP3    H139876   4.949   2.615  18.463 -0.4676  0.2321 -2.4673
 5227TIP3    H239877   5.007   2.476  18.442  1.1440  0.5909 -0.6779
 5228TIP3   OH239878   1.899   1.128  17.395  0.6020  0.2235 -0.6477
 5228TIP3    H139879   1.964   1.156  17.459 -0.5827  0.9310  0.2804
 5228TIP3    H239880   1.897   1.198  17.330 -1.0365  1.5041  0.6947
 5229TIP3   OH239881   4.719   4.221  17.660 -0.1356  0.1330  0.2403
 5229TIP3    H139882   4.773   4.214  17.581 -0.6043 -2.6726  0.0541
 5229TIP3    H239883   4.782   4.227  17.732  0.4654 -1.6345 -0.0880
 5230TIP3   OH239884   1.312   2.699  17.528  0.5834  0.5481 -0.4387
 5230TIP3    H139885   1.378   2.661  17.470  0.8576 -0.8946  0.7459
 5230TIP3    H239886   1.241   2.725  17.470  0.6842 -1.1803 -1.4107
 5231TIP3   OH239887   0.207   7.340  17.361  0.3730 -0.6026  0.6019
 5231TIP3    H139888   0.157   7.271  17.318 -0.2028 -0.0974  0.4331
 5231TIP3    H239889   0.297   7.327  17.331 -0.1460  0.2962 -1.5728
 5232TIP3   OH239890   6.918   3.340  17.724  0.5810 -0.2268 -0.0947
 5232TIP3    H139891   6.960   3.370  17.643  1.9597 -1.2049  0.2185
 5232TIP3    H239892   6.990   3.303  17.776 -0.5664 -1.2820  0.7988
 5233TIP3   OH239893   5.976   2.612  19.413  0.0107 -0.0261  0.2019
 5233TIP3    H139894   6.029   2.533  19.413  1.3030  0.8112  0.6529
 5233TIP3    H239895   6.036   2.681  19.441 -0.6024  1.4331 -1.8537
 5234TIP3   OH239896   2.521   6.751  19.022 -0.0596  0.0363 -0.2003
 5234TIP3    H139897   2.591   6.748  18.956  0.1851  0.3499  0.0404
 5234TIP3    H239898   2.459   6.815  18.989  0.8724  1.4354  0.6465
 5235TIP3   OH239899   3.841   1.298  18.252  0.4663  0.1880  0.1861
 5235TIP3    H139900   3.862   1.341  18.335  2.7735  0.1834 -0.3220
 5235TIP3    H239901   3.869   1.360  18.185  0.3661 -0.5669 -0.5739
 5236TIP3   OH239902   3.186   6.960  17.557 -0.2901  0.3032  0.4061
 5236TIP3    H139903   3.202   6.935  17.466 -0.6945 -0.9658  0.6514
 5236TIP3    H239904   3.093   6.979  17.561 -0.5695 -1.0509  0.8345
 5237TIP3   OH239905   6.337   4.702  18.558  0.4042 -0.8694 -0.5060
 5237TIP3    H139906   6.345   4.686  18.652  0.5829  1.7193  0.0108
 5237TIP3    H239907   6.258   4.655  18.532  0.6577 -2.0851  0.7932
 5238TIP3   OH239908   3.958   4.564  16.693  0.0581  0.2862 -0.0817
 5238TIP3    H139909   3.983   4.652  16.721 -0.7642  0.0800  1.3751
 5238TIP3    H239910   3.905   4.578  16.615 -1.1580  1.1889  0.8791
 5239TIP3   OH239911   5.956   5.054  18.202  0.1047 -0.0876 -0.2369
 5239TIP3    H139912   5.926   5.100  18.280  3.4181  2.9089 -0.5034
 5239TIP3    H239913   6.039   5.014  18.228  0.3264 -0.6628 -1.7394
 5240TIP3   OH239914   3.131   0.748  17.728 -0.4355 -0.6245  0.3993
 5240TIP3    H139915   3.196   0.757  17.658  0.4801 -0.7487  1.2150
 5240TIP3    H239916   3.060   0.698  17.688 -0.2347 -0.0972 -0.6398
 5241TIP3   OH239917   4.636   5.908  17.600  0.0450 -0.5323  0.1626
 5241TIP3    H139918   4.620   5.828  17.650 -0.6106  0.2042  1.1739
 5241TIP3    H239919   4.569   5.908  17.532 -0.8630 -0.1617  1.0339
 5242TIP3   OH239920   0.431   4.081  17.957 -0.0685  0.0901  0.4728
 5242TIP3    H139921   0.493   4.097  17.886 -0.3878  0.3509  0.2505
 5242TIP3    H239922   0.480   4.102  18.036  0.0716  0.4555  0.2892
 5243TIP3   OH239923   5.841   5.941  16.949  0.0618 -0.4771 -0.3583
 5243TIP3    H139924   5.919   5.997  16.941  0.8603 -1.2478  1.5371
 5243TIP3    H239925   5.870   5.855  16.919 -0.3101 -0.5851 -0.4129
 5244TIP3   OH239926   4.549   4.228  19.170 -0.3173  0.4727 -0.3979
 5244TIP3    H139927   4.568   4.140  19.203 -0.2476  0.3115 -0.8581
 5244TIP3    H239928   4.483   4.262  19.231 -1.0524 -0.2653 -0.7515
 5245TIP3   OH239929   5.563   0.639  17.740  0.1236  0.0850  0.0224
 5245TIP3    H139930   5.519   0.565  17.782  2.2958 -1.3631 -0.0634
 5245TIP3    H239931   5.517   0.716  17.773 -2.7742 -1.2808 -0.5210
 5246TIP3   OH239932   4.862   2.150  17.031  0.1849 -0.0641 -0.7917
 5246TIP3    H139933   4.857   2.059  17.061  0.3365 -0.1840 -1.1320
 5246TIP3    H239934   4.956   2.169  17.027  0.1509  0.2352 -0.3473
 5247TIP3   OH239935   2.035   2.848  17.528 -0.0769  0.4898 -1.0148
 5247TIP3    H139936   2.057   2.874  17.438  2.5137  1.0168 -0.3182
 5247TIP3    H239937   2.102   2.890  17.582 -0.3832 -1.4281  0.9900
 5248TIP3   OH239938   3.149   3.566  18.566 -0.4804  0.3806 -0.0850
 5248TIP3    H139939   3.112   3.520  18.491 -0.6769  0.6106 -0.1309
 5248TIP3    H239940   3.086   3.636  18.585  0.4618  1.4886 -0.8725
 5249TIP3   OH239941   5.353   1.709  17.115  0.0965 -0.0920 -0.0941
 5249TIP3    H139942   5.300   1.771  17.066  0.1222 -0.9337 -1.2271
 5249TIP3    H239943   5.299   1.684  17.190 -0.6835 -0.1440 -0.6623
 5250TIP3   OH239944   0.058   7.521  17.795 -0.1540 -0.0243  0.1959
 5250TIP3    H139945   0.029   7.459  17.863 -0.4019  0.4017  0.4891
 5250TIP3    H239946   0.096   7.466  17.727 -0.3931 -0.5038  0.4392
 5251TIP3   OH239947   3.521   0.261  18.780  0.0934  0.2442  0.0506
 5251TIP3    H139948   3.428   0.281  18.789  0.1964  0.2627  1.2800
 5251TIP3    H239949   3.549   0.309  18.702 -0.6692  1.1830  0.3391
 5252TIP3   OH239950   4.589   1.438  17.967  0.0982  0.8073 -0.6225
 5252TIP3    H139951   4.628   1.463  18.051 -3.1610  0.2110  1.2731
 5252TIP3    H239952   4.570   1.344  17.976 -2.0096  1.1196 -1.1821
 5253TIP3   OH239953   6.645   3.799  17.352 -0.0437  0.4690 -0.5306
 5253TIP3    H139954   6.708   3.737  17.387  0.9770  2.3983  1.3236
 5253TIP3    H239955   6.560   3.760  17.371  0.5429  0.2018  1.8266
 5254TIP3   OH239956   1.232   2.141  18.245  0.2801 -0.5583  0.3789
 5254TIP3    H139957   1.258   2.217  18.297  0.9530 -1.2896  1.1553
 5254TIP3    H239958   1.305   2.126  18.185 -0.3927  0.1398 -0.6318
 5255TIP3   OH239959   6.193   3.461  19.535  0.3351  0.2163  0.5086
 5255TIP3    H139960   6.121   3.422  19.485  1.0860  0.7982 -1.0952
 5255TIP3    H239961   6.272   3.426  19.494  1.0320 -1.3879  3.0313
 5256TIP3   OH239962   1.732   6.277  19.260 -0.4970  0.3735  0.2867
 5256TIP3    H139963   1.652   6.312  19.219 -1.4866 -0.6816  1.2725
 5256TIP3    H239964   1.756   6.202  19.206 -0.6285  0.2106  0.4540
 5257TIP3   OH239965   0.533   0.921  18.744 -0.2784  0.0330  0.0674
 5257TIP3    H139966   0.518   0.895  18.653 -0.4532  0.4897 -0.0321
 5257TIP3    H239967   0.454   0.894  18.790  0.0046 -0.6382  0.1837
 5258TIP3   OH239968   7.647   4.440  18.347  0.3948 -0.3229 -0.2783
 5258TIP3    H139969   7.616   4.446  18.257  0.3527 -0.7127 -0.2936
 5258TIP3    H239970   7.703   4.363  18.348  1.2707  0.3030 -0.2183
 5259TIP3   OH239971   7.625   3.296  18.167 -0.0047  0.4998  0.1570
 5259TIP3    H139972   7.690   3.249  18.220 -0.8665  0.1181  0.9170
 5259TIP3    H239973   7.611   3.378  18.214 -2.1859 -0.6314  1.6888
 5260TIP3   OH239974   6.854   0.476  18.450  0.7936  0.4558  0.2556
 5260TIP3    H139975   6.838   0.555  18.502  0.7788  1.4095 -1.1449
 5260TIP3    H239976   6.841   0.504  18.360  2.8662 -0.6319 -0.4284
 5261TIP3   OH239977   0.521   6.568  17.941  0.5449  0.2047  0.2452
 5261TIP3    H139978   0.568   6.502  17.992  0.4159 -0.2752 -0.2554
 5261TIP3    H239979   0.442   6.586  17.993 -0.1174 -1.0593 -0.2685
 5262TIP3   OH239980   1.113   6.807  17.061 -0.1183  0.0730 -0.0449
 5262TIP3    H139981   1.168   6.759  17.124 -1.3747  0.1699  1.1710
 5262TIP3    H239982   1.169   6.877  17.028  0.7537 -0.3463  0.5140
 5263TIP3   OH239983   2.033   5.178  17.425  0.2215  0.2181 -0.2921
 5263TIP3    H139984   2.014   5.092  17.463  2.1312  0.2050  0.7635
 5263TIP3    H239985   2.009   5.240  17.493  0.0296  0.4487 -0.5676
 5264TIP3   OH239986   5.821   5.678  18.408 -0.0805 -0.2144  0.1205
 5264TIP3    H139987   5.903   5.719  18.436 -0.9841  1.5559  0.3249
 5264TIP3    H239988   5.817   5.693  18.314 -0.3737  0.0903  0.1798
 5265TIP3   OH239989   5.981   3.557  19.782  0.3301 -0.3656  0.0356
 5265TIP3    H139990   6.027   3.558  19.698 -0.5479 -0.1662 -0.4520
 5265TIP3    H239991   5.997   3.469  19.817  2.1335  0.0931  0.4864
 5266TIP3   OH239992   0.339   5.317  18.374 -0.7647  0.0809  0.1556
 5266TIP3    H139993   0.357   5.247  18.437  0.8661  1.5192  1.4056
 5266TIP3    H239994   0.408   5.308  18.307 -1.0096  0.0311 -0.0900
 5267TIP3   OH239995   2.067   7.677  17.604 -0.7454 -0.1270  0.3298
 5267TIP3    H139996   2.113   7.632  17.675 -2.7109 -0.3046  1.5805
 5267TIP3    H239997   2.119   7.756  17.589  0.5115 -0.7908  0.9409
 5268TIP3   OH239998   3.954   0.448  19.397 -0.1423  0.0475 -0.2084
 5268TIP3    H139999   3.906   0.521  19.359  0.2691  1.1268  1.2397
 5268TIP3    H240000   4.030   0.488  19.439  0.4307 -1.2865  0.0968
 5269TIP3   OH240001   6.830   5.759  16.593 -0.5097  0.2785 -0.0180
 5269TIP3    H140002   6.756   5.783  16.537 -0.2987  0.8170 -0.0737
 5269TIP3    H240003   6.824   5.664  16.602 -1.5225  0.3741  0.4257
 5270TIP3   OH240004   1.993   7.428  17.807  0.4171  0.1817  0.2904
 5270TIP3    H140005   2.065   7.387  17.758 -0.5809  0.4478 -1.4910
 5270TIP3    H240006   1.991   7.380  17.889  1.4329 -1.0957 -0.3741
 5271TIP3   OH240007   0.246   0.053  16.829 -0.6445 -0.4363 -0.4672
 5271TIP3    H140008   0.285  -0.007  16.765 -3.2096 -2.0856 -0.6011
 5271TIP3    H240009   0.171   0.091  16.783  0.2094  2.0857  0.0271
 5272TIP3   OH240010   1.605   2.312  17.271 -0.7128  0.4271 -0.2930
 5272TIP3    H140011   1.682   2.256  17.270 -0.8933  0.0584  2.0052
 5272TIP3    H240012   1.532   2.254  17.250 -0.4938  0.6114 -1.6535
 5273TIP3   OH240013   3.120   6.593  17.216  0.3979 -0.5784 -0.5179
 5273TIP3    H140014   3.171   6.545  17.280  0.9285  0.7437  0.0908
 5273TIP3    H240015   3.102   6.530  17.147 -2.3473 -2.8469  1.9956
 5274TIP3   OH240016   3.757   0.766  18.857  0.5596 -0.4333  0.0861
 5274TIP3    H140017   3.757   0.671  18.866  0.7864 -0.4845 -0.4403
 5274TIP3    H240018   3.849   0.791  18.864  0.3873 -0.1019  1.6247
 5275TIP3   OH240019   6.751   4.139  18.346 -0.0600  0.4813 -0.2041
 5275TIP3    H140020   6.691   4.109  18.415  0.4486  0.8895  0.4311
 5275TIP3    H240021   6.710   4.110  18.264 -0.7303  0.0802  0.2607
 5276TIP3   OH240022   7.374   6.713  17.649 -0.0878 -0.4658  0.1466
 5276TIP3    H140023   7.386   6.673  17.562 -1.4660  0.3781 -0.4507
 5276TIP3    H240024   7.446   6.776  17.657  0.7434 -1.3865  0.1368
 5277TIP3   OH240025   2.202   7.049  18.761 -0.3831 -0.1128  0.2978
 5277TIP3    H140026   2.116   7.032  18.724  0.3189 -0.0545 -1.4861
 5277TIP3    H240027   2.200   7.141  18.787 -0.5524  0.1603 -0.6581
 5278TIP3   OH240028   2.201   3.332  16.317  0.2173  0.1814 -0.0221
 5278TIP3    H140029   2.268   3.265  16.330  0.6299  0.9508  2.4661
 5278TIP3    H240030   2.195   3.343  16.222  3.9935  0.4050 -0.3867
 5279TIP3   OH240031   2.898   5.902  18.379 -0.2677 -0.4071 -0.3216
 5279TIP3    H140032   2.980   5.907  18.427  0.5756  0.2218 -1.7695
 5279TIP3    H240033   2.907   5.967  18.309 -2.0754 -0.1915 -0.4048
 5280TIP3   OH240034   0.845   0.656  17.224 -0.3625 -0.3689 -0.2232
 5280TIP3    H140035   0.933   0.619  17.233 -0.8694 -1.2205  1.9281
 5280TIP3    H240036   0.787   0.580  17.222 -1.1189  0.2055 -0.3262
 5281TIP3   OH240037   1.233   0.319  17.994 -0.0304 -0.0661 -0.7548
 5281TIP3    H140038   1.191   0.353  18.073 -1.1497 -0.2428 -1.2514
 5281TIP3    H240039   1.202   0.377  17.924 -0.2780 -0.8260 -1.2893
 5282TIP3   OH240040   3.349   4.144  17.219 -0.3185  1.0436 -0.9598
 5282TIP3    H140041   3.315   4.076  17.162 -1.4959  0.6607  0.1457
 5282TIP3    H240042   3.401   4.098  17.284 -2.4019  0.9572  0.7330
 5283TIP3   OH240043   0.171   2.876  17.134  0.1455  0.0671 -0.1713
 5283TIP3    H140044   0.093   2.882  17.080  1.2063  0.5663 -1.7176
 5283TIP3    H240045   0.242   2.910  17.079  1.0597  2.0145  2.0231
 5284TIP3   OH240046   7.409   3.642  19.061 -0.0242  0.1436 -0.5893
 5284TIP3    H140047   7.480   3.598  19.108 -0.0065 -1.6276 -2.1791
 5284TIP3    H240048   7.331   3.622  19.112  0.5132  1.9732  1.0851
 5285TIP3   OH240049   7.021   4.622  18.487  0.0035 -0.0153 -0.0665
 5285TIP3    H140050   7.078   4.698  18.477 -1.4001  1.0768 -0.0920
 5285TIP3    H240051   7.042   4.566  18.412  2.1230 -0.4113  0.7711
 5286TIP3   OH240052   5.851   7.011  17.079  0.1292 -0.0073 -0.5767
 5286TIP3    H140053   5.932   7.061  17.080  0.1720 -0.0684 -0.9333
 5286TIP3    H240054   5.802   7.046  17.004 -0.4082  0.3996 -0.0501
 5287TIP3   OH240055   2.441   3.268  18.625 -0.0751  0.0936 -0.4118
 5287TIP3    H140056   2.393   3.294  18.703  0.7125 -0.1514  0.1670
 5287TIP3    H240057   2.384   3.291  18.552  0.3495  2.9750  0.0712
 5288TIP3   OH240058   6.402   7.660  19.509  0.1017  0.4974  0.4117
 5288TIP3    H140059   6.461   7.713  19.455 -1.4397  2.3195  0.4073
 5288TIP3    H240060   6.339   7.624  19.447 -0.0066  0.2769  0.6495
 5289TIP3   OH240061   1.597   4.928  18.660 -0.2936 -0.4492 -0.1625
 5289TIP3    H140062   1.636   4.898  18.578 -1.8419  1.1440 -1.5750
 5289TIP3    H240063   1.663   4.985  18.699  0.0510 -0.3734 -0.8438
 5290TIP3   OH240064   3.294   5.277  18.191 -0.2063 -0.4973  0.1011
 5290TIP3    H140065   3.250   5.272  18.275 -0.6713  0.1209 -0.1039
 5290TIP3    H240066   3.321   5.187  18.173 -1.5517 -0.9294  0.1370
 5291TIP3   OH240067   6.969   5.682  19.478 -0.6894 -0.7338 -0.7545
 5291TIP3    H140068   6.971   5.706  19.385 -1.2499 -0.0394 -0.5868
 5291TIP3    H240069   6.985   5.588  19.478  3.0146 -0.2705 -1.3472
 5292TIP3   OH240070   3.627   4.195  19.026 -0.4850 -0.0172 -0.0560
 5292TIP3    H140071   3.563   4.137  19.067 -0.2209 -0.0552  0.3003
 5292TIP3    H240072   3.604   4.193  18.933 -0.4941 -0.6746 -0.0452
 5293TIP3   OH240073   2.189   2.009  17.065 -0.4889  0.0432 -0.3810
 5293TIP3    H140074   2.283   1.994  17.056 -0.8910 -1.4761 -3.4725
 5293TIP3    H240075   2.150   1.924  17.044 -2.5909  1.3141 -1.9744
 5294TIP3   OH240076   5.563   4.196  17.499 -0.3728  0.2423 -0.6269
 5294TIP3    H140077   5.574   4.287  17.471  0.9778  0.2536 -0.1180
 5294TIP3    H240078   5.604   4.192  17.586  0.8697 -1.1541 -1.2255
 5295TIP3   OH240079   7.545   3.051  17.296  0.1308 -0.6664  0.0428
 5295TIP3    H140080   7.534   3.142  17.267  0.4100 -0.5761  0.2110
 5295TIP3    H240081   7.548   3.001  17.215  0.3723 -0.4781 -0.0671
 5296TIP3   OH240082   6.205   2.129  17.479 -0.4442 -0.2376  0.0911
 5296TIP3    H140083   6.159   2.090  17.553 -0.9755  1.8996  0.9568
 5296TIP3    H240084   6.139   2.134  17.409 -0.5335 -0.3158  0.1707
 5297TIP3   OH240085   0.490   0.271  18.502  0.1442 -0.1922 -0.1867
 5297TIP3    H140086   0.515   0.198  18.559 -0.6075 -1.2598 -1.1775
 5297TIP3    H240087   0.448   0.334  18.560  0.9537 -0.4579  0.7159
 5298TIP3   OH240088   5.622   7.160  18.382 -0.7503 -0.2348 -0.3116
 5298TIP3    H140089   5.634   7.124  18.295 -0.5485  1.2741 -0.9469
 5298TIP3    H240090   5.547   7.219  18.373 -0.2733  0.4929  0.3361
 5299TIP3   OH240091   4.537   6.753  18.678 -0.1180  0.7843 -0.1601
 5299TIP3    H140092   4.546   6.825  18.615 -0.8202  0.8088 -0.2318
 5299TIP3    H240093   4.493   6.792  18.753 -2.4066 -0.0104 -1.0023
 5300TIP3   OH240094   5.053   0.054  17.734  0.9890 -0.0246 -0.2199
 5300TIP3    H140095   5.045   0.010  17.649 -0.1867 -0.8371  0.2947
 5300TIP3    H240096   4.982   0.019  17.787  1.2654  1.0030  0.8880
 5301TIP3   OH240097   4.436   6.804  19.424  0.8149 -0.2951 -0.4856
 5301TIP3    H140098   4.524   6.812  19.459  0.8235 -0.9804 -0.3370
 5301TIP3    H240099   4.413   6.711  19.436 -1.6291  0.5713  3.6396
 5302TIP3   OH240100   3.786   2.685  19.131 -0.0077  0.2471  0.0416
 5302TIP3    H140101   3.746   2.768  19.154 -0.7281  0.8639 -2.9895
 5302TIP3    H240102   3.716   2.636  19.088  1.3603 -0.3665 -1.5899
 5303TIP3   OH240103   5.754   2.941  16.758 -0.5245  0.0340 -0.4033
 5303TIP3    H140104   5.752   2.845  16.759 -0.8879  0.0430 -0.0705
 5303TIP3    H240105   5.700   2.965  16.683 -0.2856 -0.0200 -0.5961
 5304TIP3   OH240106   2.252   3.403  17.570 -0.1647  0.1274  1.1120
 5304TIP3    H140107   2.185   3.439  17.628 -0.0994  2.1213  0.0595
 5304TIP3    H240108   2.333   3.447  17.596  0.3238 -0.6838  1.0055
 5305TIP3   OH240109   0.327   4.209  18.936  0.1509  0.1217 -0.3581
 5305TIP3    H140110   0.400   4.175  18.884 -0.2690 -0.6826 -0.4385
 5305TIP3    H240111   0.267   4.135  18.945  1.4698 -0.6532  3.6844
 5306TIP3   OH240112   5.594   0.248  17.971  0.3505 -0.0407  0.5011
 5306TIP3    H140113   5.527   0.261  17.903  1.0535  0.6337 -0.0922
 5306TIP3    H240114   5.609   0.154  17.972 -0.2119 -0.1392  0.2443
 5307TIP3   OH240115   2.486   4.495  16.536 -0.3992 -0.0415 -0.3531
 5307TIP3    H140116   2.461   4.459  16.621  0.3809  2.0257  0.8278
 5307TIP3    H240117   2.404   4.525  16.497 -0.6055  0.4317  0.4107
 5308TIP3   OH240118   5.380   5.087  18.960  0.0817  0.1150 -0.0342
 5308TIP3    H140119   5.306   5.039  18.922  1.8215 -1.8757 -1.1536
 5308TIP3    H240120   5.393   5.161  18.901 -1.0387  0.5419  0.2216
 5309TIP3   OH240121   2.895   3.110  18.931 -0.2562  0.4442 -0.3749
 5309TIP3    H140122   2.801   3.121  18.916 -0.1690  0.2931 -1.0797
 5309TIP3    H240123   2.926   3.064  18.853  0.5384  1.1798 -0.5067
 5310TIP3   OH240124   2.241   2.791  18.505  0.0486 -0.5909  0.2294
 5310TIP3    H140125   2.280   2.854  18.445 -1.4167 -0.1907 -0.3439
 5310TIP3    H240126   2.304   2.719  18.508  0.6690 -0.1231 -0.9260
 5311TIP3   OH240127   4.726   6.778  18.312  0.0152  0.5170  0.6525
 5311TIP3    H140128   4.799   6.840  18.319 -0.7540  1.7087 -1.1332
 5311TIP3    H240129   4.740   6.735  18.227 -0.1932 -0.8365  1.2798
 5312TIP3   OH240130   3.890   5.418  17.191 -0.3485 -0.0268  0.4762
 5312TIP3    H140131   3.939   5.489  17.232  0.1942 -1.0343  1.6254
 5312TIP3    H240132   3.799   5.449  17.191 -0.0115  0.9838  0.2422
 5313TIP3   OH240133   3.541   2.502  18.270  0.1106  0.4081 -0.2122
 5313TIP3    H140134   3.486   2.425  18.286 -0.6164  0.4970 -2.1004
 5313TIP3    H240135   3.500   2.572  18.322  0.7476 -0.4109  1.4756
 5314TIP3   OH240136   4.212   7.081  18.518 -0.2517  0.2521  0.6123
 5314TIP3    H140137   4.228   7.160  18.466  1.6033 -0.2722  0.3039
 5314TIP3    H240138   4.133   7.043  18.481 -0.1280  0.9908 -0.4438
 5315TIP3   OH240139   3.177   2.966  19.038  0.2244  0.0890 -0.9828
 5315TIP3    H140140   3.108   3.010  19.088  0.1811 -0.5759 -0.4463
 5315TIP3    H240141   3.132   2.929  18.962  0.0155 -0.2341 -0.7011
 5316TIP3   OH240142   3.892   1.383  18.505  0.1242  0.0780 -0.7147
 5316TIP3    H140143   3.965   1.329  18.534 -2.0779 -2.1922  0.9741
 5316TIP3    H240144   3.904   1.467  18.550  0.7809 -0.8561  0.9147
 5317TIP3   OH240145   0.330   1.296  17.786 -0.6149  0.6922 -0.2487
 5317TIP3    H140146   0.254   1.274  17.840  0.4560  0.4635  1.2546
 5317TIP3    H240147   0.347   1.388  17.806 -0.8271  0.9021 -1.0195
 5318TIP3   OH240148   0.155   5.846  18.748  0.4228 -0.5914 -0.2476
 5318TIP3    H140149   0.206   5.874  18.824  0.6507 -2.0609  0.1816
 5318TIP3    H240150   0.217   5.850  18.675  0.5427 -0.3065 -0.1315
 5319TIP3   OH240151   0.213   3.924  18.120 -0.1399 -0.1648  0.3022
 5319TIP3    H140152   0.134   3.925  18.065  0.4255  0.9087 -0.5320
 5319TIP3    H240153   0.257   4.006  18.100  0.0264  0.3532  2.4914
 5320TIP3   OH240154   4.383   6.941  17.816  0.3859  0.3089  0.0523
 5320TIP3    H140155   4.342   6.971  17.735 -0.4821 -1.3765 -0.1813
 5320TIP3    H240156   4.476   6.934  17.795  0.1011 -0.6942 -1.0339
 5321TIP3   OH240157   4.607   1.881  17.205  0.1088  0.8111  0.0201
 5321TIP3    H140158   4.569   1.801  17.170  0.4796  0.1791  1.0284
 5321TIP3    H240159   4.646   1.924  17.129  0.2880 -0.1853 -0.4624
 5322TIP3   OH240160   3.728   6.718  18.197 -0.4930  0.3236 -0.1696
 5322TIP3    H140161   3.773   6.802  18.203 -0.4709  0.4363 -1.6037
 5322TIP3    H240162   3.694   6.703  18.285 -0.2259  1.6796  0.1867
 5323TIP3   OH240163   6.059   6.655  18.549 -0.4933  0.0868 -0.6305
 5323TIP3    H140164   6.117   6.637  18.476 -1.1489  0.6122 -1.2972
 5323TIP3    H240165   6.118   6.671  18.623  0.1763 -0.3782 -1.0527
 5324TIP3   OH240166   7.448   2.431  17.352  0.0461 -0.5191  0.5119
 5324TIP3    H140167   7.499   2.426  17.271 -0.2937 -1.2634  0.3374
 5324TIP3    H240168   7.357   2.440  17.322 -0.0251 -0.2009  0.8169
 5325TIP3   OH240169   1.397   0.467  18.443 -0.1859 -0.1605 -0.5556
 5325TIP3    H140170   1.449   0.490  18.520 -1.0172 -0.7974  0.2267
 5325TIP3    H240171   1.424   0.377  18.423 -0.4308 -0.2211 -0.6124
 5326TIP3   OH240172   0.069   7.145  17.255  0.6969  0.8425  0.2795
 5326TIP3    H140173   0.115   7.081  17.201  0.8317  0.0756  1.2862
 5326TIP3    H240174  -0.019   7.150  17.217  0.8978  0.5727 -0.2227
 5327TIP3   OH240175   0.909   2.871  16.273  0.6972 -0.1164 -0.0852
 5327TIP3    H140176   0.840   2.826  16.322  0.9681 -1.4991 -0.9211
 5327TIP3    H240177   0.889   2.964  16.283 -1.4820 -0.4887 -0.5726
 5328TIP3   OH240178   2.246   3.883  17.930 -0.2287  0.4404 -0.1753
 5328TIP3    H140179   2.288   3.799  17.948  1.7176  1.4281  0.1717
 5328TIP3    H240180   2.162   3.878  17.975  0.2983 -0.9469  0.7147
 5329TIP3   OH240181   0.135   4.628  17.443  0.3820  0.2500  0.3757
 5329TIP3    H140182   0.172   4.565  17.381 -0.4543  0.5970 -0.4975
 5329TIP3    H240183   0.043   4.604  17.450  0.0950  1.2738  0.1648
 5330TIP3   OH240184   7.528   5.067  18.028 -0.0661 -0.4616 -0.3896
 5330TIP3    H140185   7.493   5.143  17.981  1.4703  0.5601  0.0241
 5330TIP3    H240186   7.539   4.999  17.961 -0.4057  0.0685 -0.9897
 5331TIP3   OH240187   3.675   1.629  19.094 -0.3855 -0.3395  0.3432
 5331TIP3    H140188   3.678   1.724  19.104 -2.1961 -0.4058  2.2826
 5331TIP3    H240189   3.692   1.614  19.001 -1.2917  1.9793 -0.2719
 5332TIP3   OH240190   6.313   5.306  18.172  0.3222 -0.2741  0.0635
 5332TIP3    H140191   6.370   5.248  18.222  1.3884  1.1474  0.5525
 5332TIP3    H240192   6.232   5.310  18.224 -0.1288 -1.9891 -0.4379
 5333TIP3   OH240193   1.787   6.792  18.749 -0.2412 -0.3259  0.1107
 5333TIP3    H140194   1.725   6.797  18.821  0.8579  0.1580  1.0507
 5333TIP3    H240195   1.795   6.881  18.717  0.0473 -0.3608  0.0785
 5334TIP3   OH240196   3.853   5.193  18.160  0.2080  0.2727  0.3029
 5334TIP3    H140197   3.900   5.262  18.113 -0.2387 -0.4413 -1.2854
 5334TIP3    H240198   3.763   5.200  18.128 -0.3117  0.2637  1.7007
 5335TIP3   OH240199   6.405   6.995  18.071  0.2557  0.1874 -0.3517
 5335TIP3    H140200   6.365   7.082  18.074 -0.5492 -0.1603 -0.6512
 5335TIP3    H240201   6.429   6.976  18.162 -0.4962  0.3062 -0.1242
 5336TIP3   OH240202   4.078   5.238  17.464 -0.3608  0.1756 -0.6222
 5336TIP3    H140203   4.103   5.226  17.373  1.2826 -0.5700 -0.1185
 5336TIP3    H240204   4.072   5.149  17.499 -0.4285  0.4599  0.1143
 5337TIP3   OH240205   6.708   2.248  17.537  0.1646  0.4833 -0.3342
 5337TIP3    H140206   6.738   2.199  17.613 -0.7003 -0.9192 -0.8537
 5337TIP3    H240207   6.613   2.246  17.542  0.1004  2.0130 -0.4606
 5338TIP3   OH240208   1.674   5.870  17.314 -0.5677  0.3010 -0.9547
 5338TIP3    H140209   1.606   5.883  17.247 -0.1822  1.0669 -1.2112
 5338TIP3    H240210   1.724   5.951  17.314  0.2299 -0.1706 -0.6229
 5339TIP3   OH240211   0.624   1.928  19.393  0.0894 -0.2591 -0.0315
 5339TIP3    H140212   0.714   1.920  19.361  0.7507 -0.2207  1.6655
 5339TIP3    H240213   0.598   1.839  19.415 -0.1040 -0.2174 -0.0926
 5340TIP3   OH240214   0.984   4.451  19.214 -0.2833  0.3432 -0.1234
 5340TIP3    H140215   0.953   4.488  19.297 -2.7784  1.4253 -1.4349
 5340TIP3    H240216   0.924   4.485  19.148  1.0931 -1.1593 -2.3083
 5341TIP3   OH240217   1.158   1.792  18.232  0.1488  0.2393  0.5795
 5341TIP3    H140218   1.103   1.837  18.168 -0.9750 -3.1426 -1.0987
 5341TIP3    H240219   1.235   1.765  18.182 -0.4185 -1.8337  0.7046
 5342TIP3   OH240220   4.726   6.114  17.776 -0.1370 -0.2182 -0.3909
 5342TIP3    H140221   4.750   6.025  17.751 -0.7582 -0.1706 -1.2229
 5342TIP3    H240222   4.656   6.137  17.715  1.1452  1.4621 -1.3039
 5343TIP3   OH240223   1.057   1.207  18.533 -0.0694  0.0674 -0.3056
 5343TIP3    H140224   1.107   1.161  18.465 -0.8809 -1.5815  0.1551
 5343TIP3    H240225   0.970   1.218  18.495  0.2620  1.7732 -0.6197
 5344TIP3   OH240226   6.360   0.262  17.079 -0.2774 -0.0174 -0.2356
 5344TIP3    H140227   6.356   0.168  17.097 -3.4223  0.3133  1.5191
 5344TIP3    H240228   6.452   0.285  17.090  0.2075 -2.4965  1.6419
 5345TIP3   OH240229   5.597   6.552  17.077 -0.2867 -0.2616  0.1934
 5345TIP3    H140230   5.602   6.483  17.010 -3.3710 -0.0917 -0.3669
 5345TIP3    H240231   5.662   6.617  17.049 -1.0098 -0.5042 -2.3178
 5346TIP3   OH240232   1.870   5.030  17.224  0.6745  0.2776 -0.6114
 5346TIP3    H140233   1.877   5.111  17.274  0.8302  1.4480 -2.4369
 5346TIP3    H240234   1.813   4.974  17.277 -0.3222  1.9753  0.2148
 5347TIP3   OH240235   2.316   3.927  18.839  0.4442  0.3136  0.1147
 5347TIP3    H140236   2.293   3.945  18.930  1.8249 -0.0713  0.5517
 5347TIP3    H240237   2.312   3.832  18.832 -1.7929  0.4071 -0.8397
 5348TIP3   OH240238   3.566   7.622  18.633  0.4661 -0.0904  0.1573
 5348TIP3    H140239   3.544   7.615  18.540 -1.6764  0.6448  0.5578
 5348TIP3    H240240   3.609   7.707  18.641  1.4375 -0.5217 -0.2661
 5349TIP3   OH240241   3.699   0.674  16.878 -0.1542 -0.0666  0.4114
 5349TIP3    H140242   3.652   0.747  16.916  1.3918  2.0736 -1.5138
 5349TIP3    H240243   3.664   0.666  16.789  0.5365 -0.8859  0.1962
 5350TIP3   OH240244   5.939   2.020  18.021  0.3896 -0.5324 -0.5857
 5350TIP3    H140245   5.891   2.061  18.093  0.1324 -2.7128  0.5449
 5350TIP3    H240246   5.872   1.997  17.957  0.2724 -1.0375 -0.2850
 5351TIP3   OH240247   4.728   4.168  18.227  0.1775 -0.5044 -0.2588
 5351TIP3    H140248   4.781   4.164  18.148 -0.5011 -2.2093 -0.6769
 5351TIP3    H240249   4.651   4.220  18.201  1.7141  2.3046  0.4607
 5352TIP3   OH240250   5.673   5.208  16.920  0.2954  0.4652 -0.3342
 5352TIP3    H140251   5.632   5.145  16.861 -1.2447  1.1559 -0.0387
 5352TIP3    H240252   5.612   5.282  16.922  2.5993  2.5647 -1.6661
 5353TIP3   OH240253   2.031   6.251  17.896 -0.5969 -0.4940 -0.3782
 5353TIP3    H140254   1.976   6.252  17.817  0.3406  0.4476 -1.0513
 5353TIP3    H240255   2.079   6.168  17.890  0.7826  0.3352 -1.8007
 5354TIP3   OH240256   4.437   7.353  18.992 -0.3550 -0.4265  0.0464
 5354TIP3    H140257   4.481   7.331  18.910  0.4346  1.1758  0.0089
 5354TIP3    H240258   4.374   7.282  19.004 -0.4397 -0.7592 -1.9027
 5355TIP3   OH240259   0.442   2.370  18.875 -0.3687 -0.0018  0.3315
 5355TIP3    H140260   0.495   2.291  18.871  0.6346  0.6996 -1.3706
 5355TIP3    H240261   0.362   2.348  18.828 -0.9151 -0.5651  1.4987
 5356TIP3   OH240262   6.807   6.944  19.657  0.5565 -0.0372  0.4876
 5356TIP3    H140263   6.894   6.915  19.684  1.0325 -0.7842 -1.6212
 5356TIP3    H240264   6.825   7.009  19.589 -0.4953 -0.9787 -0.7316
 5357TIP3   OH240265   6.359   2.311  17.294 -0.2520  0.2550  0.2512
 5357TIP3    H140266   6.399   2.394  17.320  1.0918 -0.7550  1.6068
 5357TIP3    H240267   6.360   2.259  17.373 -2.8808 -0.4166 -0.0810
 5358TIP3   OH240268   3.951   2.474  19.197  0.5886  0.1172 -0.5039
 5358TIP3    H140269   3.897   2.422  19.256 -1.4169  0.3155 -2.0626
 5358TIP3    H240270   3.897   2.549  19.174  2.5421  1.7355 -0.1452
 5359TIP3   OH240271   7.094   6.719  19.332 -0.1791 -0.1188 -0.6060
 5359TIP3    H140272   7.136   6.640  19.298  1.3787  0.7651 -0.8043
 5359TIP3    H240273   7.144   6.791  19.295  0.3648  0.9245  1.9648
 5360TIP3   OH240274   5.393   6.338  17.521  0.1341  0.0679 -0.2099
 5360TIP3    H140275   5.436   6.377  17.445  0.3267  0.6968  0.2158
 5360TIP3    H240276   5.302   6.364  17.513  0.0436 -0.3319 -0.5170
 5361TIP3   OH240277   5.934   2.006  18.880  0.1582  0.0399  0.4643
 5361TIP3    H140278   5.873   2.048  18.941 -0.1813 -0.0129  0.1645
 5361TIP3    H240279   5.905   1.915  18.875 -0.8860  0.4134 -1.0662
 5362TIP3   OH240280   2.658   4.117  19.395 -0.3889  0.4234 -0.2780
 5362TIP3    H140281   2.686   4.205  19.420  0.3527  0.2193 -0.3689
 5362TIP3    H240282   2.724   4.087  19.333 -0.1130 -0.5486  0.4551
 5363TIP3   OH240283   4.471   0.892  19.287  0.4610  0.0824  0.0996
 5363TIP3    H140284   4.476   0.906  19.193 -0.9833 -1.4366 -0.2529
 5363TIP3    H240285   4.398   0.830  19.298  0.0775  0.8421  2.2766
 5364TIP3   OH240286   5.752   5.496  19.574  0.1775  0.1388 -0.1432
 5364TIP3    H140287   5.809   5.566  19.605  0.4605  0.6432 -1.7072
 5364TIP3    H240288   5.812   5.433  19.534 -0.0132 -1.3357  1.7379
 5365TIP3   OH240289   0.890   6.483  18.738 -0.4557  0.0716 -0.4651
 5365TIP3    H140290   0.965   6.528  18.777 -0.3693 -0.3195 -0.1765
 5365TIP3    H240291   0.837   6.553  18.700 -0.6515  0.4846  0.5418
 5366TIP3   OH240292   3.374   5.010  18.093  0.3257  0.1595  0.1447
 5366TIP3    H140293   3.453   5.065  18.093  0.4356  0.0223 -0.9666
 5366TIP3    H240294   3.352   5.001  18.000  0.3636 -1.7405  0.2900
 5367TIP3   OH240295   2.230   4.153  17.915 -0.3062 -0.7195 -0.3798
 5367TIP3    H140296   2.267   4.181  17.998 -2.2790 -0.2107  0.3902
 5367TIP3    H240297   2.247   4.059  17.911 -0.2584 -0.7656  0.6503
 5368TIP3   OH240298   6.393   7.434  18.608  0.1916  0.3753 -1.0754
 5368TIP3    H140299   6.305   7.398  18.620  0.7555 -0.9381 -0.6949
 5368TIP3    H240300   6.439   7.410  18.689  0.4339  2.4961 -0.5443
 5369TIP3   OH240301   4.374   5.883  17.480 -0.0083 -0.0275 -0.2049
 5369TIP3    H140302   4.311   5.870  17.409 -0.4893 -0.4727  0.2986
 5369TIP3    H240303   4.355   5.813  17.542 -0.4969  1.1508  1.0330
 5370TIP3   OH240304   1.815   1.242  18.842 -0.4148 -0.5199 -0.1913
 5370TIP3    H140305   1.720   1.245  18.837 -0.5153 -0.3322  1.3504
 5370TIP3    H240306   1.836   1.153  18.870 -0.2158 -0.2546  0.5314
 5371TIP3   OH240307   1.463   0.657  19.161  0.0407 -0.7473 -0.7559
 5371TIP3    H140308   1.540   0.601  19.173  0.1224 -1.1890 -2.9654
 5371TIP3    H240309   1.392   0.608  19.202  0.5307 -1.3855 -0.6393
 5372TIP3   OH240310   2.372   3.402  16.695 -0.1058 -0.0752  0.0952
 5372TIP3    H140311   2.449   3.382  16.642  0.8073 -0.6961  1.6093
 5372TIP3    H240312   2.379   3.344  16.771 -1.0654  1.1937  1.2030
 5373TIP3   OH240313   3.849   0.898  19.341  0.1660  0.1705 -0.2312
 5373TIP3    H140314   3.942   0.876  19.336  0.3504 -0.0227  2.5724
 5373TIP3    H240315   3.806   0.831  19.288  1.3930 -1.8570  1.1728
 5374TIP3   OH240316   2.912   4.294  18.976 -0.0286 -0.6739  0.0139
 5374TIP3    H140317   2.839   4.355  18.970  0.4645  0.0635  1.1717
 5374TIP3    H240318   2.872   4.211  19.002 -0.6225 -0.7071 -0.9348
 5375TIP3   OH240319   4.146   3.963  17.742  0.2483  0.2072  0.3696
 5375TIP3    H140320   4.097   3.953  17.661 -1.3648  0.4621  1.2691
 5375TIP3    H240321   4.083   4.002  17.804  1.6095  0.6242  1.5606
 5376TIP3   OH240322   3.869   5.908  18.668  0.2406  0.1754 -0.2879
 5376TIP3    H140323   3.847   5.999  18.688  1.2174 -0.0639  2.3401
 5376TIP3    H240324   3.933   5.884  18.735 -1.7528 -3.1554  0.6700
 5377TIP3   OH240325   1.314   0.006  18.212  0.5507  0.4416 -0.3782
 5377TIP3    H140326   1.368  -0.060  18.256 -1.0000 -0.5881  0.0743
 5377TIP3    H240327   1.333   0.087  18.258  0.6989 -0.1722  0.6736
 5378TIP3   OH240328   4.123   4.315  18.366 -0.0544  0.0640  0.0031
 5378TIP3    H140329   4.183   4.382  18.334  0.2804  0.9391  2.2846
 5378TIP3    H240330   4.038   4.338  18.327  0.6905 -0.1413 -1.8175
 5379TIP3   OH240331   1.252   7.069  19.160 -0.6739  0.5849 -0.5325
 5379TIP3    H140332   1.244   7.116  19.077 -0.1482  1.1470 -0.2703
 5379TIP3    H240333   1.234   7.135  19.227  1.9540  0.9327 -0.0713
 5380TIP3   OH240334   5.919   3.834  17.831  0.1053  0.1885 -0.7267
 5380TIP3    H140335   5.885   3.780  17.760 -0.6634 -1.5287  0.8826
 5380TIP3    H240336   5.875   3.802  17.909  1.0780  1.8867  0.5889
 5381TIP3   OH240337   1.836   6.073  17.581  0.3335 -0.0785 -0.4301
 5381TIP3    H140338   1.905   6.138  17.593 -1.1829  1.5154  0.0718
 5381TIP3    H240339   1.797   6.095  17.496  0.1466 -0.6845 -0.5072
 5382TIP3   OH240340   4.898   3.465  19.287 -0.0914  0.5167  0.3434
 5382TIP3    H140341   4.955   3.542  19.281  0.2127  0.3291  0.7828
 5382TIP3    H240342   4.831   3.479  19.220 -0.1837  1.2876  0.5922
 5383TIP3   OH240343   7.148   3.217  18.874  0.4408 -0.3721  0.2023
 5383TIP3    H140344   7.194   3.135  18.858  0.3487 -0.3083 -0.3883
 5383TIP3    H240345   7.060   3.203  18.841  0.3178 -0.1526  0.4272
 5384TIP3   OH240346   2.585   3.660  18.389  0.0472  0.1002  0.4670
 5384TIP3    H140347   2.612   3.751  18.405  0.0122  0.3563 -0.8522
 5384TIP3    H240348   2.533   3.636  18.466 -1.5160  1.8235  0.0126
 5385TIP3   OH240349   3.026   0.550  17.980 -0.1566  0.5155 -0.4304
 5385TIP3    H140350   2.949   0.550  17.924 -1.2082 -0.9455  0.9355
 5385TIP3    H240351   3.016   0.627  18.036 -1.0247 -0.0939  0.2591
 5386TIP3   OH240352   4.625   2.572  19.342 -0.3934  0.1013 -0.3637
 5386TIP3    H140353   4.713   2.536  19.330 -0.7733 -1.0664  0.2473
 5386TIP3    H240354   4.588   2.524  19.416 -1.5950  0.4864 -0.6808
 5387TIP3   OH240355   0.203   6.150  16.992  0.0725 -0.4971  0.0581
 5387TIP3    H140356   0.179   6.074  16.940  1.9236 -0.5994 -0.7062
 5387TIP3    H240357   0.119   6.192  17.013 -0.8518 -1.7331 -1.0334
 5388TIP3   OH240358   1.492   4.632  17.803  0.1417  0.3297  0.3981
 5388TIP3    H140359   1.527   4.690  17.871 -0.0209 -0.5294  1.2354
 5388TIP3    H240360   1.410   4.600  17.840 -0.5393  0.7528 -0.7061
 5389TIP3   OH240361   3.696   7.397  16.794 -0.3374  0.1625 -0.6250
 5389TIP3    H140362   3.737   7.332  16.851 -1.1243  1.4802  1.5656
 5389TIP3    H240363   3.764   7.420  16.731  0.8853 -0.7302  0.3219
 5390TIP3   OH240364   7.265   5.580  18.679 -0.0814  0.5036  0.2936
 5390TIP3    H140365   7.175   5.592  18.651  0.0177  0.5336 -0.0178
 5390TIP3    H240366   7.315   5.575  18.597  0.0699 -0.5253  0.4273
 5391TIP3   OH240367   0.597   1.505  13.161  0.2974 -0.1687 -0.3174
 5391TIP3    H140368   0.683   1.514  13.203  0.7524 -1.5330 -0.8991
 5391TIP3    H240369   0.539   1.562  13.211  1.3362  0.0415  0.6751
 5392TIP3   OH240370   5.386   3.066  13.162  0.0695  0.6372  0.1827
 5392TIP3    H140371   5.435   3.148  13.170 -1.5553  1.5783  1.0295
 5392TIP3    H240372   5.295   3.093  13.155 -0.3108 -0.9467 -3.3335
 5393TIP3   OH240373   6.571   6.492  12.643  0.3746 -0.9752  0.6457
 5393TIP3    H140374   6.655   6.446  12.650  0.4596 -0.7369  1.2888
 5393TIP3    H240375   6.506   6.426  12.669  0.4316 -0.9470  0.8645
 5394TIP3   OH240376   2.453   4.047  11.387  0.2527  0.9465  0.3071
 5394TIP3    H140377   2.427   4.029  11.478 -0.3268 -0.3531 -0.0824
 5394TIP3    H240378   2.370   4.066  11.343  0.2426 -0.5097 -0.3680
 5395TIP3   OH240379   0.613   2.137  11.408 -0.1184 -0.1692 -0.0274
 5395TIP3    H140380   0.663   2.096  11.478  1.7570 -0.3614 -1.3930
 5395TIP3    H240381   0.665   2.122  11.329 -1.5242  1.1078 -1.2755
 5396TIP3   OH240382   2.083   0.175  11.980  0.1196  0.2826  0.3731
 5396TIP3    H140383   2.170   0.148  12.007 -0.0871 -0.6035  0.1982
 5396TIP3    H240384   2.096   0.258  11.935  1.4529 -1.5360 -2.9682
 5397TIP3   OH240385   6.811   5.666  11.658  0.2733 -0.4335  0.3808
 5397TIP3    H140386   6.823   5.758  11.633 -1.7747 -0.6406 -1.7790
 5397TIP3    H240387   6.900   5.633  11.669  1.2128  1.1505 -1.5954
 5398TIP3   OH240388   5.379   0.880  11.796  0.3877 -0.2841 -0.3625
 5398TIP3    H140389   5.374   0.824  11.718  2.3476  0.8851 -1.4180
 5398TIP3    H240390   5.441   0.836  11.854 -0.2010 -0.5894  0.0367
 5399TIP3   OH240391   4.411   4.377  12.483  0.7410 -0.6347  0.1071
 5399TIP3    H140392   4.375   4.302  12.436 -0.1859 -0.0526 -0.1492
 5399TIP3    H240393   4.355   4.450  12.456  0.8110 -0.1073  1.3579
 5400TIP3   OH240394   6.201   6.127  12.481 -0.1332 -0.1054  0.4113
 5400TIP3    H140395   6.128   6.099  12.426 -0.6078  1.7132  0.0200
 5400TIP3    H240396   6.163   6.196  12.536  1.6667  2.3861 -1.2364
 5401TIP3   OH240397   6.027   5.203  12.384  0.1997 -0.1049  0.1560
 5401TIP3    H140398   6.023   5.111  12.408  0.4563 -0.3069 -0.5776
 5401TIP3    H240399   6.118   5.218  12.361  0.0510  0.2082 -0.2323
 5402TIP3   OH240400   5.340   0.194  12.749  0.2632  0.3989  0.1275
 5402TIP3    H140401   5.269   0.253  12.722  0.2290 -0.3009 -1.4173
 5402TIP3    H240402   5.382   0.169  12.667  1.3108 -0.4383  0.8980
 5403TIP3   OH240403   3.189   2.517  12.573  0.3021  0.6795 -0.2530
 5403TIP3    H140404   3.278   2.515  12.539  0.2406  0.1378 -0.4002
 5403TIP3    H240405   3.135   2.540  12.498  0.2777  0.5765 -0.2675
 5404TIP3   OH240406   2.787   2.146  10.843  0.1102  0.5212  0.3922
 5404TIP3    H140407   2.870   2.106  10.870  0.5292  0.0380 -1.4344
 5404TIP3    H240408   2.729   2.071  10.828 -0.1583  0.7750  0.1543
 5405TIP3   OH240409   2.903   6.742  11.939  0.4099  0.6524 -0.4433
 5405TIP3    H140410   2.965   6.812  11.920  1.1129  0.1071 -0.2082
 5405TIP3    H240411   2.958   6.663  11.948 -0.4117 -0.0474 -1.3323
 5406TIP3   OH240412   6.663   5.048  11.589  0.3484 -0.5951  0.4234
 5406TIP3    H140413   6.682   4.959  11.621 -0.0339 -0.6661  0.4510
 5406TIP3    H240414   6.578   5.069  11.626  0.0207 -0.5733 -0.3292
 5407TIP3   OH240415   4.981   1.103  11.253  0.1052 -0.3274  0.2565
 5407TIP3    H140416   4.888   1.085  11.242  0.1011  0.6045 -1.6730
 5407TIP3    H240417   4.985   1.159  11.331 -0.7043 -1.8138  1.4263
 5408TIP3   OH240418   4.043   2.781  12.694  0.7501  0.0012  0.8841
 5408TIP3    H140419   4.129   2.778  12.653 -0.4827 -1.5432 -1.8290
 5408TIP3    H240420   4.000   2.701  12.665 -2.3439  1.6858  0.3946
 5409TIP3   OH240421   0.816   6.628  10.960 -0.7330 -0.1507 -0.3420
 5409TIP3    H140422   0.827   6.669  11.046 -0.8548 -1.0478  0.1094
 5409TIP3    H240423   0.746   6.564  10.972 -1.2955  0.2549 -1.3138
 5410TIP3   OH240424   5.005   2.779  11.084 -0.1677 -0.5682  0.2203
 5410TIP3    H140425   5.090   2.786  11.040  0.3265 -2.6437  0.7185
 5410TIP3    H240426   4.942   2.811  11.019  0.8737 -0.1044 -0.5996
 5411TIP3   OH240427   0.609   6.585  10.535 -0.1780  0.2538  0.4294
 5411TIP3    H140428   0.591   6.512  10.595  0.1075  0.9285  1.3542
 5411TIP3    H240429   0.523   6.619  10.512 -0.2769  0.2544  0.7905
 5412TIP3   OH240430   4.834   5.296  10.731  0.0794  0.0332  0.5039
 5412TIP3    H140431   4.927   5.293  10.706 -0.1196 -0.6341 -0.2035
 5412TIP3    H240432   4.788   5.307  10.648 -0.4304  1.5347  0.9597
 5413TIP3   OH240433   0.422   5.159  13.481  0.3403 -0.1315 -0.0887
 5413TIP3    H140434   0.488   5.151  13.551 -0.8007 -0.2845  0.9980
 5413TIP3    H240435   0.428   5.250  13.453  0.8745 -0.0884  0.1386
 5414TIP3   OH240436   1.401   7.576  10.708 -0.4706  0.3472  0.3839
 5414TIP3    H140437   1.316   7.569  10.751  0.0657 -0.8393  1.2936
 5414TIP3    H240438   1.455   7.624  10.770 -0.5346  1.3759 -0.3267
 5415TIP3   OH240439   6.778   7.192  11.280  0.0643 -0.1065 -0.1702
 5415TIP3    H140440   6.798   7.104  11.249 -1.0702 -0.9778  1.4140
 5415TIP3    H240441   6.733   7.234  11.207  2.0996 -0.1910 -1.5643
 5416TIP3   OH240442   1.849   4.646  12.248  0.5655  0.4101  1.0490
 5416TIP3    H140443   1.757   4.634  12.273  0.4499  0.6458  0.7411
 5416TIP3    H240444   1.881   4.557  12.231  0.5448  0.2794  1.6710
 5417TIP3   OH240445   6.978   1.413  11.735  0.5069 -0.6962  0.1728
 5417TIP3    H140446   6.938   1.344  11.682 -0.5284 -1.0397  1.3439
 5417TIP3    H240447   6.959   1.387  11.826 -2.3005  2.4648  0.6681
 5418TIP3   OH240448   2.151   6.833  11.572  0.0239  0.0381 -0.3401
 5418TIP3    H140449   2.119   6.865  11.488 -1.1989 -0.0489  0.0634
 5418TIP3    H240450   2.074   6.795  11.614  0.3180  1.1344  1.3219
 5419TIP3   OH240451   1.712   7.390  10.329 -0.2138 -0.0899  0.2329
 5419TIP3    H140452   1.676   7.432  10.406 -1.4796 -2.2970  0.9485
 5419TIP3    H240453   1.636   7.375  10.272 -0.1051 -2.4529  0.5906
 5420TIP3   OH240454   2.886   0.919  11.885  0.6398 -0.0510 -0.0619
 5420TIP3    H140455   2.929   0.961  11.810  1.1384  2.2704  1.4305
 5420TIP3    H240456   2.958   0.877  11.932  0.5244 -0.3330 -0.1343
 5421TIP3   OH240457   3.840   0.841  11.793 -0.9324  0.5005 -0.1649
 5421TIP3    H140458   3.838   0.932  11.824  2.4524  0.3488  0.8663
 5421TIP3    H240459   3.931   0.826  11.769 -1.6101 -2.3441 -1.3545
 5422TIP3   OH240460   7.453   5.400  12.401 -0.1334  0.5684  0.8278
 5422TIP3    H140461   7.485   5.345  12.329  2.8495  2.6621  0.3636
 5422TIP3    H240462   7.360   5.410  12.382  0.4778  1.0099 -2.8398
 5423TIP3   OH240463   3.915   3.432  10.814  0.0596  0.2969 -0.1194
 5423TIP3    H140464   3.901   3.343  10.783 -0.6781  0.6775 -0.9312
 5423TIP3    H240465   3.828   3.462  10.841  0.4029  0.5643  0.7261
 5424TIP3   OH240466   2.314   6.063  12.365 -0.0703 -0.2055  0.2330
 5424TIP3    H140467   2.366   6.134  12.402  1.1548 -0.0716 -1.6093
 5424TIP3    H240468   2.234   6.105  12.333  0.2311  0.1900 -0.0061
 5425TIP3   OH240469   6.412   6.308  11.672  0.0396 -0.1557 -0.0042
 5425TIP3    H140470   6.378   6.317  11.761 -0.6152 -0.8964 -0.1656
 5425TIP3    H240471   6.505   6.328  11.679 -0.1636  0.5958  0.6959
 5426TIP3   OH240472   3.967   2.988  12.423 -1.0274  0.7101  0.1060
 5426TIP3    H140473   3.918   2.908  12.443 -0.6726  0.5660  0.4159
 5426TIP3    H240474   3.946   3.048  12.494 -0.3111  0.4437  0.5507
 5427TIP3   OH240475   1.992   2.190  11.056 -0.5398  0.4785 -0.2689
 5427TIP3    H140476   2.085   2.193  11.035  0.3571 -2.9707  2.3077
 5427TIP3    H240477   1.988   2.197  11.151 -2.9198  0.3743 -0.2921
 5428TIP3   OH240478   5.730   0.417  12.359 -0.0237  0.2527 -0.2322
 5428TIP3    H140479   5.691   0.338  12.394  1.0455 -1.1795 -2.0964
 5428TIP3    H240480   5.782   0.452  12.431 -0.9593 -0.4085  0.7884
 5429TIP3   OH240481   0.901   2.520  12.524  0.1750 -0.5398 -0.7921
 5429TIP3    H140482   0.929   2.598  12.572 -0.3397 -0.4955 -0.5558
 5429TIP3    H240483   0.913   2.542  12.432  0.1364 -0.2187 -0.7196
 5430TIP3   OH240484   4.952   6.518  12.441  0.0290 -0.2979  0.6971
 5430TIP3    H140485   4.999   6.520  12.525 -2.2962 -0.8040  2.1070
 5430TIP3    H240486   4.918   6.607  12.431  0.3045 -0.2389  0.2849
 5431TIP3   OH240487   1.033   0.555  11.441  0.7214  0.3275 -0.5146
 5431TIP3    H140488   1.106   0.569  11.501  1.2035  0.3826 -1.1106
 5431TIP3    H240489   1.071   0.561  11.353  0.1486 -0.4496 -0.8318
 5432TIP3   OH240490   1.180   3.433  11.772  0.0000  0.5554 -0.3688
 5432TIP3    H140491   1.123   3.356  11.777 -0.0975  0.6629  0.2808
 5432TIP3    H240492   1.238   3.416  11.698 -0.0832 -0.1001 -0.2842
 5433TIP3   OH240493   0.359   1.102  11.791 -0.1494  0.2751  0.4099
 5433TIP3    H140494   0.418   1.041  11.836  0.6998  0.4080 -0.4843
 5433TIP3    H240495   0.271   1.071  11.814  0.2617 -0.3578  1.2030
 5434TIP3   OH240496   7.630   6.853  13.293  0.1992 -0.0458  0.1323
 5434TIP3    H140497   7.551   6.844  13.241  1.3963 -0.9611 -1.6235
 5434TIP3    H240498   7.698   6.880  13.231  1.2451  0.8849  1.6087
 5435TIP3   OH240499   6.203   2.972  12.950 -0.0086 -0.0693  0.0273
 5435TIP3    H140500   6.220   2.907  12.882 -1.1631 -0.7949  0.4040
 5435TIP3    H240501   6.143   3.035  12.908 -0.5853 -0.4250  0.3007
 5436TIP3   OH240502   4.219   7.485  12.831 -0.0096 -0.0897 -0.2370
 5436TIP3    H140503   4.146   7.423  12.826  0.3925 -0.5774 -0.1114
 5436TIP3    H240504   4.281   7.444  12.891  0.6915 -0.0093 -0.8998
 5437TIP3   OH240505   2.428   5.349  12.273 -0.3865  0.1424 -0.1350
 5437TIP3    H140506   2.411   5.271  12.220  1.1020 -0.0594 -0.3460
 5437TIP3    H240507   2.342   5.372  12.310 -1.6183  0.5734 -2.9749
 5438TIP3   OH240508   3.897   6.060  11.054 -0.5836  0.0433 -0.2818
 5438TIP3    H140509   3.890   5.970  11.085  0.3524 -0.4201 -1.3386
 5438TIP3    H240510   3.810   6.078  11.018 -0.6988 -0.5386 -0.3180
 5439TIP3   OH240511   0.115   5.390  12.526 -0.2763 -0.1334  0.7282
 5439TIP3    H140512   0.182   5.442  12.569  1.4052 -0.1084 -1.7008
 5439TIP3    H240513   0.087   5.444  12.451 -0.6500 -1.4770 -0.1403
 5440TIP3   OH240514   2.584   5.965  12.925  0.4118 -0.5972 -0.2614
 5440TIP3    H140515   2.500   5.986  12.967  0.5734  2.4227 -1.2003
 5440TIP3    H240516   2.579   6.007  12.839  2.9114 -0.2389 -0.3063
 5441TIP3   OH240517   3.827   3.345  11.340 -0.0885  0.1388  0.0130
 5441TIP3    H140518   3.883   3.355  11.417 -0.9046  1.0897  0.5038
 5441TIP3    H240519   3.801   3.434  11.318  0.6561 -0.0439 -1.7872
 5442TIP3   OH240520   7.355   7.347  10.531 -0.1159  0.1363 -0.0930
 5442TIP3    H140521   7.343   7.436  10.561 -1.7494 -0.0970 -0.0067
 5442TIP3    H240522   7.428   7.352  10.469 -0.3724  1.5623 -0.2936
 5443TIP3   OH240523   1.055   5.333  11.369 -0.1725 -0.2468  0.3096
 5443TIP3    H140524   1.149   5.345  11.381  0.0757  0.1466 -1.6683
 5443TIP3    H240525   1.017   5.420  11.384  0.2665  0.5258 -2.4768
 5444TIP3   OH240526   1.337   0.309  10.398  0.1059  0.2387  0.4872
 5444TIP3    H140527   1.294   0.288  10.315 -0.0521  1.1471  0.3235
 5444TIP3    H240528   1.295   0.252  10.462  0.5090 -0.7625 -0.1111
 5445TIP3   OH240529   2.898   3.042  11.476 -0.2943  0.4649 -0.2207
 5445TIP3    H140530   2.836   3.061  11.405  0.9155 -1.7616 -2.0268
 5445TIP3    H240531   2.869   2.957  11.510  0.6519  0.2921  0.1750
 5446TIP3   OH240532   5.507   4.041  12.188  0.1148 -0.3448  0.6840
 5446TIP3    H140533   5.520   4.112  12.250  1.2198 -0.7052  0.8993
 5446TIP3    H240534   5.539   3.963  12.234 -2.7195 -1.3347  1.1248
 5447TIP3   OH240535   0.891   4.943  12.667 -0.3524 -0.5581 -0.8990
 5447TIP3    H140536   0.879   4.936  12.762  1.6293  2.0289 -0.3513
 5447TIP3    H240537   0.979   4.907  12.651  0.9959  2.5243 -1.0662
 5448TIP3   OH240538   2.126   7.441  11.717 -0.2929 -0.5609 -0.5136
 5448TIP3    H140539   2.161   7.353  11.732  1.6877  0.1087 -0.9768
 5448TIP3    H240540   2.099   7.471  11.804  3.7422  0.2521  0.6503
 5449TIP3   OH240541   6.305   1.602  11.266  0.1900 -0.6883  0.4902
 5449TIP3    H140542   6.395   1.579  11.243 -0.3092 -3.1979  0.8339
 5449TIP3    H240543   6.310   1.630  11.358  1.3721  4.6175 -0.8078
 5450TIP3   OH240544   6.554   5.089  12.930  1.2462  0.2400  0.3692
 5450TIP3    H140545   6.528   5.132  13.012 -0.6868 -0.7435  0.3400
 5450TIP3    H240546   6.643   5.118  12.914  0.7765  2.4998  1.4818
 5451TIP3   OH240547   1.506   4.752  10.817  0.1596 -0.1582  0.7193
 5451TIP3    H140548   1.437   4.766  10.882 -0.0776  0.0399  0.4223
 5451TIP3    H240549   1.482   4.671  10.772 -0.7166  0.7275 -0.4501
 5452TIP3   OH240550   7.069   2.577  11.374 -0.1894 -0.0700  0.1766
 5452TIP3    H140551   7.014   2.654  11.367  0.4100  0.3385 -0.1042
 5452TIP3    H240552   7.119   2.590  11.455  0.7869  0.4329 -0.4778
 5453TIP3   OH240553   5.003   6.071  12.343 -0.3095  0.4627 -0.4134
 5453TIP3    H140554   4.930   6.065  12.405 -1.5241  1.5044 -1.6494
 5453TIP3    H240555   4.975   6.139  12.281  2.2578  1.7882 -0.2462
 5454TIP3   OH240556   5.723   1.500  11.924  0.4560 -0.6786  0.5566
 5454TIP3    H140557   5.638   1.522  11.961 -0.5627  0.4428 -2.2255
 5454TIP3    H240558   5.775   1.472  12.000 -2.0923 -0.6351  2.4587
 5455TIP3   OH240559   7.270   2.179  12.621  0.4539 -0.6806 -0.9038
 5455TIP3    H140560   7.326   2.176  12.698  0.5542 -1.1972 -0.9887
 5455TIP3    H240561   7.265   2.272  12.597  0.6660 -0.5548 -0.4568
 5456TIP3   OH240562   4.513   6.570  10.718  0.9545 -0.3467 -0.2086
 5456TIP3    H140563   4.530   6.477  10.703  0.2128 -0.6417  0.7060
 5456TIP3    H240564   4.418   6.577  10.722  0.8141  0.9162 -2.9797
 5457TIP3   OH240565   4.577   2.135  10.503 -0.4735 -1.5023 -0.5055
 5457TIP3    H140566   4.555   2.197  10.433  0.1918 -0.1477  0.4450
 5457TIP3    H240567   4.500   2.078  10.509 -1.8578  0.2669 -0.3061
 5458TIP3   OH240568   5.054   3.393  11.254 -0.0534 -0.1896 -0.1838
 5458TIP3    H140569   5.023   3.459  11.316  2.3246  0.8836 -0.0280
 5458TIP3    H240570   5.067   3.441  11.173 -0.2110 -0.9212 -0.6491
 5459TIP3   OH240571   7.150   2.482  11.125  0.5647 -0.5206 -0.6282
 5459TIP3    H140572   7.147   2.522  11.212  1.6824 -1.2167 -0.2456
 5459TIP3    H240573   7.072   2.427  11.122  0.7232 -0.8008  0.1003
 5460TIP3   OH240574   1.413   5.131  11.904 -0.7451 -0.5313  0.4128
 5460TIP3    H140575   1.415   5.220  11.940  0.7286 -1.0771  1.7885
 5460TIP3    H240576   1.393   5.075  11.978 -0.0979 -1.4857 -0.1061
 5461TIP3   OH240577   0.326   7.225  10.931  0.2750  0.4669  0.3131
 5461TIP3    H140578   0.320   7.208  11.025  0.9085  0.0470  0.2840
 5461TIP3    H240579   0.256   7.288  10.913 -0.0920  0.2552  0.9945
 5462TIP3   OH240580   5.582   5.979  11.542 -0.2868 -0.1028  0.2034
 5462TIP3    H140581   5.564   6.069  11.515  0.4612  0.0128  0.0564
 5462TIP3    H240582   5.644   5.946  11.477  0.3946 -0.3108  0.9396
 5463TIP3   OH240583   4.394   5.912  12.398 -0.1448 -0.0442  0.3261
 5463TIP3    H140584   4.302   5.895  12.375  0.4873 -3.1294 -0.4437
 5463TIP3    H240585   4.425   5.972  12.330 -0.8081 -1.5892 -1.4382
 5464TIP3   OH240586   6.116   2.317  12.406 -0.2283  0.3825  0.6118
 5464TIP3    H140587   6.035   2.268  12.422  0.0276  0.4765  2.3438
 5464TIP3    H240588   6.121   2.324  12.310 -1.2622 -1.2754  0.3986
 5465TIP3   OH240589   3.557   0.852  11.449 -0.2712 -0.1897  0.4240
 5465TIP3    H140590   3.559   0.769  11.497 -0.4776 -0.6578 -0.3558
 5465TIP3    H240591   3.578   0.827  11.359 -0.7696  0.5457  0.1006
 5466TIP3   OH240592   7.187   7.493  12.057 -0.2101  0.2697  0.6378
 5466TIP3    H140593   7.216   7.443  11.981  1.0306  0.6755  0.8221
 5466TIP3    H240594   7.120   7.552  12.022 -1.2328 -1.0505  0.3058
 5467TIP3   OH240595   2.515   0.895  11.003  0.3895  0.1499 -0.1819
 5467TIP3    H140596   2.572   0.970  10.985 -0.0040  0.3381 -0.6666
 5467TIP3    H240597   2.447   0.901  10.937  0.1847 -0.4664 -0.0289
 5468TIP3   OH240598   7.065   5.188  11.030  0.5462 -1.1487  0.2350
 5468TIP3    H140599   7.074   5.118  11.094 -0.8529 -0.7837  0.8648
 5468TIP3    H240600   7.005   5.251  11.071 -1.0493 -1.2904 -1.7252
 5469TIP3   OH240601   4.087   4.043  11.727 -0.1476  0.7961  0.8142
 5469TIP3    H140602   4.034   3.977  11.681 -0.2468  0.3809  1.4978
 5469TIP3    H240603   4.050   4.045  11.816 -0.0072  1.6259  0.8586
 5470TIP3   OH240604   5.551   3.419  10.437 -0.0425  0.1437 -0.4852
 5470TIP3    H140605   5.472   3.466  10.463 -0.4985 -0.3380 -0.9652
 5470TIP3    H240606   5.606   3.484  10.395 -0.6034  0.2793 -1.0152
 5471TIP3   OH240607   5.793   2.520  10.680  0.1999  0.7465  0.1353
 5471TIP3    H140608   5.773   2.436  10.639 -3.8916  1.9409 -0.7956
 5471TIP3    H240609   5.805   2.499  10.773 -0.3918 -0.9000 -0.1306
 5472TIP3   OH240610   0.580   6.536  11.563  0.0190  0.1070 -0.4633
 5472TIP3    H140611   0.505   6.509  11.511 -1.3180  0.7010  1.0676
 5472TIP3    H240612   0.562   6.504  11.652  1.4627  0.4539 -0.0030
 5473TIP3   OH240613   0.421   6.313  12.399  0.0102 -0.4315 -0.2527
 5473TIP3    H140614   0.376   6.229  12.399 -0.0377 -0.4557  1.3722
 5473TIP3    H240615   0.351   6.378  12.405  0.0877 -0.3610 -0.0760
 5474TIP3   OH240616   7.559   7.248  12.933 -0.6054 -0.2730 -0.0384
 5474TIP3    H140617   7.491   7.292  12.982  0.4048  1.6734 -0.2956
 5474TIP3    H240618   7.580   7.308  12.862 -0.0210 -1.7386 -1.1576
 5475TIP3   OH240619   7.071   4.038  12.127 -0.2409 -0.1528 -0.5729
 5475TIP3    H140620   7.018   4.103  12.173 -0.1196 -0.1496 -0.4401
 5475TIP3    H240621   7.050   4.052  12.034  0.0793  0.3342 -0.5733
 5476TIP3   OH240622   1.871   5.165  10.694  0.0817  0.5759  0.5598
 5476TIP3    H140623   1.784   5.204  10.703 -0.0549 -0.0492  2.1597
 5476TIP3    H240624   1.856   5.087  10.640  0.0467  1.6447 -1.0440
 5477TIP3   OH240625   1.296   0.432  12.236  0.0706 -0.7565  0.0275
 5477TIP3    H140626   1.223   0.392  12.189 -0.1734  1.0797 -1.2844
 5477TIP3    H240627   1.335   0.361  12.286 -3.2191 -1.5996  1.6223
 5478TIP3   OH240628   6.533   5.157  13.218  0.3975 -0.3035  0.3541
 5478TIP3    H140629   6.619   5.170  13.258  1.2326  0.9114 -1.6754
 5478TIP3    H240630   6.490   5.242  13.223  0.2410 -0.3028 -0.6513
 5479TIP3   OH240631   3.489   3.143  11.036 -0.0984 -0.1812  0.3725
 5479TIP3    H140632   3.452   3.060  11.006 -0.8615 -0.4355  1.9250
 5479TIP3    H240633   3.413   3.194  11.066  0.4980  0.5728  0.6380
 5480TIP3   OH240634   6.345   4.005  10.389  0.3538  0.0128 -0.1614
 5480TIP3    H140635   6.355   3.914  10.416  0.7704  0.5632  1.6774
 5480TIP3    H240636   6.429   4.046  10.410 -0.6767  1.3955  1.5828
 5481TIP3   OH240637   5.255   6.879  12.865  0.1847  0.2175  0.2039
 5481TIP3    H140638   5.203   6.845  12.793 -1.3516  2.1629  0.2891
 5481TIP3    H240639   5.265   6.805  12.925  0.1309 -1.0001 -1.2444
 5482TIP3   OH240640   6.343   4.070  10.963  0.0452 -0.2072 -0.1929
 5482TIP3    H140641   6.408   4.084  11.032  0.5865 -1.2517 -0.4726
 5482TIP3    H240642   6.294   3.993  10.992 -2.9731  2.0843  1.4013
 5483TIP3   OH240643   0.242   0.039  11.578  0.1270 -0.0548 -0.2075
 5483TIP3    H140644   0.332   0.068  11.587  0.0006  0.0340  0.8372
 5483TIP3    H240645   0.190   0.120  11.579 -0.0608 -0.1836  0.4865
 5484TIP3   OH240646   1.388   3.480  10.912 -0.0630  0.1825  0.2200
 5484TIP3    H140647   1.441   3.400  10.910  1.2386  0.8858  2.7849
 5484TIP3    H240648   1.427   3.536  10.845 -0.9152 -1.1718 -1.5279
 5485TIP3   OH240649   2.738   6.367  12.140  0.4512  0.7881  0.4826
 5485TIP3    H140650   2.777   6.381  12.054 -0.3071  1.4139  0.2289
 5485TIP3    H240651   2.654   6.326  12.122 -0.7415  2.9754  0.7402
 5486TIP3   OH240652   3.877   7.195  10.990 -0.0192 -0.2946 -0.3615
 5486TIP3    H140653   3.835   7.262  10.937 -1.7338 -0.4576  0.6964
 5486TIP3    H240654   3.819   7.119  10.982  0.0098 -0.5143  1.2163
 5487TIP3   OH240655   5.357   6.026  11.274 -0.0667 -0.6766 -0.1509
 5487TIP3    H140656   5.380   5.961  11.208 -1.9061 -0.7292 -0.8153
 5487TIP3    H240657   5.283   6.073  11.236 -1.0171 -0.5236  1.7511
 5488TIP3   OH240658   5.364   3.561  10.628  0.6336 -0.5244  0.6017
 5488TIP3    H140659   5.459   3.573  10.622  0.4848  0.2330 -0.8686
 5488TIP3    H240660   5.329   3.650  10.635 -0.0174 -0.7152 -0.0586
 5489TIP3   OH240661   1.498   3.024  10.811 -0.0608  0.3636  0.3603
 5489TIP3    H140662   1.496   2.942  10.762 -0.1846 -1.0373  2.5428
 5489TIP3    H240663   1.432   3.080  10.769  0.4897 -0.3813 -1.5664
 5490TIP3   OH240664   6.642   3.737  12.352  0.0538  0.0850 -0.0738
 5490TIP3    H140665   6.600   3.823  12.359 -0.0612  0.1381 -1.2433
 5490TIP3    H240666   6.650   3.707  12.443 -1.2151  0.6994  0.2660
 5491TIP3   OH240667   4.288   4.959  11.506  0.3284  0.6171 -0.0951
 5491TIP3    H140668   4.369   4.956  11.455  0.3287 -1.3875 -0.0514
 5491TIP3    H240669   4.306   4.903  11.582 -1.2427 -0.2840 -0.3503
 5492TIP3   OH240670   4.287   0.277  11.770  0.4625  0.7913 -0.2535
 5492TIP3    H140671   4.276   0.231  11.687  0.6093  2.3820 -1.1854
 5492TIP3    H240672   4.379   0.301  11.773  0.2763  1.5076 -0.0421
 5493TIP3   OH240673   6.152   5.011  10.561 -0.2247 -0.4714 -0.0723
 5493TIP3    H140674   6.201   5.036  10.640 -1.3255  1.4729  0.0742
 5493TIP3    H240675   6.127   4.920  10.577 -0.4227 -0.1326  1.8575
 5494TIP3   OH240676   0.152   3.076  11.452 -0.4771  0.7122  0.5989
 5494TIP3    H140677   0.151   3.018  11.529 -0.0341  0.7934  0.6710
 5494TIP3    H240678   0.238   3.061  11.412 -1.1485 -0.2175 -0.5662
 5495TIP3   OH240679   3.262   1.425  12.734  0.4554 -0.5559 -0.6093
 5495TIP3    H140680   3.286   1.503  12.684 -1.0446  1.7739  1.9575
 5495TIP3    H240681   3.176   1.400  12.701  0.6518 -0.7181 -0.9981
 5496TIP3   OH240682   1.369   6.562  12.611 -0.0063  0.4686 -0.2435
 5496TIP3    H140683   1.402   6.474  12.627 -4.6113 -1.9334 -1.9585
 5496TIP3    H240684   1.393   6.581  12.520  0.5767  0.7738 -0.0264
 5497TIP3   OH240685   3.525   4.777  11.122  0.2014  0.2884  0.2420
 5497TIP3    H140686   3.527   4.859  11.171 -0.1747  0.8190 -0.6177
 5497TIP3    H240687   3.489   4.800  11.036  0.7668 -0.6463 -0.2648
 5498TIP3   OH240688   3.506   2.404  11.426 -0.6946  0.4232 -0.6028
 5498TIP3    H140689   3.452   2.339  11.470 -0.5595  0.4625 -0.3750
 5498TIP3    H240690   3.445   2.456  11.374 -0.7682 -0.0629 -1.0065
 5499TIP3   OH240691   1.220   2.068  11.006  0.1993 -0.0841  0.3336
 5499TIP3    H140692   1.281   2.136  10.976  0.6924 -1.2344 -1.5213
 5499TIP3    H240693   1.266   1.986  10.987 -0.1796 -0.9844  2.9238
 5500TIP3   OH240694   5.245   5.134  10.825 -0.1007  0.1329  0.5883
 5500TIP3    H140695   5.202   5.183  10.755  1.2367  0.0534 -0.3091
 5500TIP3    H240696   5.172   5.089  10.870 -1.2600  2.2786  0.9694
 5501TIP3   OH240697   5.925   6.347  10.465  0.0574 -0.1641 -0.1475
 5501TIP3    H140698   5.888   6.266  10.501 -1.7587  0.7131  0.0573
 5501TIP3    H240699   5.851   6.390  10.422  1.6497 -0.0844 -3.0486
 5502TIP3   OH240700   5.443   6.848  12.630 -0.0210  0.3135  0.3347
 5502TIP3    H140701   5.411   6.762  12.657 -0.8352  0.8927  1.2708
 5502TIP3    H240702   5.516   6.866  12.690 -0.6509  0.8067  0.9614
 5503TIP3   OH240703   6.863   6.874  12.392  0.0282  0.0733  0.5123
 5503TIP3    H140704   6.898   6.794  12.353 -0.1346  0.3579 -0.2344
 5503TIP3    H240705   6.783   6.846  12.437 -1.3916  0.1618 -1.7884
 5504TIP3   OH240706   6.399   7.348  12.347 -1.0404 -0.2834 -0.3895
 5504TIP3    H140707   6.392   7.396  12.429  2.1392  1.4528 -0.9747
 5504TIP3    H240708   6.403   7.256  12.374 -0.1247  0.2395  1.4258
 5505TIP3   OH240709   1.492   7.201  11.428 -0.3731  0.4799  0.3718
 5505TIP3    H140710   1.579   7.212  11.389 -0.0868  0.2990  0.9573
 5505TIP3    H240711   1.504   7.136  11.497 -1.1334 -0.1509 -0.0580
 5506TIP3   OH240712   6.523   6.697  13.355  0.0595  0.1458 -0.2419
 5506TIP3    H140713   6.431   6.719  13.364  0.1254  0.1564  0.4746
 5506TIP3    H240714   6.570   6.774  13.388  0.2993 -0.6641  1.3820
 5507TIP3   OH240715   5.098   6.388  11.472  0.1661  0.8733  0.5039
 5507TIP3    H140716   5.009   6.376  11.438  0.5774 -1.0869 -0.0504
 5507TIP3    H240717   5.117   6.305  11.515  0.5316  2.4407  3.5993
 5508TIP3   OH240718   5.224   4.546  10.698  0.2215 -0.0142 -0.0854
 5508TIP3    H140719   5.229   4.520  10.606  1.7680  1.1219 -0.3702
 5508TIP3    H240720   5.198   4.466  10.745 -0.6270 -0.5962 -1.4966
 5509TIP3   OH240721   1.567   5.385  12.396  0.0492  0.2413 -0.2190
 5509TIP3    H140722   1.530   5.308  12.439  0.3876 -0.0989 -0.5366
 5509TIP3    H240723   1.524   5.388  12.310  1.8083 -1.0230 -1.2050
 5510TIP3   OH240724   7.152   5.980  11.894 -0.3165  0.2498  0.2293
 5510TIP3    H140725   7.181   5.929  11.819 -0.8206  0.3728 -0.0532
 5510TIP3    H240726   7.060   5.957  11.905 -0.1484 -0.0747  1.0612
 5511TIP3   OH240727   4.537   2.814  12.167  0.1428  0.1418  0.0985
 5511TIP3    H140728   4.488   2.803  12.086  0.3186 -1.0078  0.1324
 5511TIP3    H240729   4.624   2.842  12.139  0.9869 -2.5756 -0.3448
 5512TIP3   OH240730   6.003   0.295  13.431 -0.0961 -0.7832 -0.1595
 5512TIP3    H140731   6.074   0.306  13.368  0.1376 -1.3183  0.0029
 5512TIP3    H240732   6.034   0.227  13.490  0.1189  0.3759  1.1306
 5513TIP3   OH240733   1.588   2.939  13.274 -0.5057  0.1710 -0.3148
 5513TIP3    H140734   1.493   2.938  13.276 -0.5170 -0.3754 -0.7901
 5513TIP3    H240735   1.612   3.031  13.261 -1.0036  0.1378 -1.5460
 5514TIP3   OH240736   5.726   2.054  13.288  0.4095 -0.7869  0.1127
 5514TIP3    H140737   5.765   2.004  13.216  0.2510 -0.2893 -0.3270
 5514TIP3    H240738   5.632   2.040  13.279  0.3559 -0.3124 -0.0900
 5515TIP3   OH240739   3.753   5.348  12.343 -0.7474  0.1956 -0.1526
 5515TIP3    H140740   3.813   5.423  12.342 -0.2348 -0.2032 -1.5587
 5515TIP3    H240741   3.666   5.387  12.331 -0.6147  0.6549  0.3373
 5516TIP3   OH240742   2.401   7.645  11.524  0.2764 -0.1924 -0.7480
 5516TIP3    H140743   2.431   7.563  11.487 -0.1690  0.3453 -2.3758
 5516TIP3    H240744   2.394   7.628  11.618  0.5284 -1.8920 -1.0129
 5517TIP3   OH240745   3.662   4.145  17.798 -0.4375  0.1959  0.3827
 5517TIP3    H140746   3.575   4.109  17.779 -1.2011  1.1006  1.8838
 5517TIP3    H240747   3.654   4.238  17.774  0.0549  0.3150  0.6763
 5518TIP3   OH240748   1.556   2.929  12.333  0.3541  0.2135  0.2720
 5518TIP3    H140749   1.579   2.915  12.425  0.1570 -1.0760  0.1418
 5518TIP3    H240750   1.628   2.888  12.285  0.5004  0.9636 -0.1600
 5519TIP3   OH240751   6.052   3.546  12.406  0.1796 -0.2539 -0.0017
 5519TIP3    H140752   6.068   3.460  12.445  0.1827  0.5035  1.7497
 5519TIP3    H240753   6.138   3.588  12.404 -0.2713  0.9804  2.4315
 5520TIP3   OH240754   3.220   7.251  11.598  0.0720 -0.0204  0.4451
 5520TIP3    H140755   3.150   7.188  11.581  1.2666 -1.2244 -0.2215
 5520TIP3    H240756   3.299   7.210  11.562  0.9433  1.7759  0.1760
 5521TIP3   OH240757   6.915   4.330  11.750  0.2853 -0.2446 -0.5887
 5521TIP3    H140758   6.884   4.416  11.723 -0.7119 -0.4138 -0.0191
 5521TIP3    H240759   7.008   4.342  11.767 -0.0061  0.9171  0.2833
 5522TIP3   OH240760   6.364   4.398  11.354  0.3326  0.1548  0.5536
 5522TIP3    H140761   6.362   4.486  11.392  0.2857  0.7098 -0.6855
 5522TIP3    H240762   6.372   4.413  11.260  0.9443 -1.1855  0.3741
 5523TIP3   OH240763   0.454   4.269  11.056  0.1262 -0.0107  1.0045
 5523TIP3    H140764   0.467   4.278  11.151 -0.5634 -0.0037  1.1048
 5523TIP3    H240765   0.373   4.317  11.039 -0.0257 -0.4450  0.4911
 5524TIP3   OH240766   7.319   5.954  12.132  0.3857  0.1857  0.5026
 5524TIP3    H140767   7.287   5.994  12.052 -0.5019  0.1116  0.8148
 5524TIP3    H240768   7.269   5.873  12.141 -0.1188  0.5939  1.5549
 5525TIP3   OH240769   4.828   2.946  10.910 -0.3503 -0.2469 -0.6332
 5525TIP3    H140770   4.794   3.013  10.970  1.0703  1.9707 -2.1364
 5525TIP3    H240771   4.773   2.953  10.832 -1.3105 -2.1387 -0.1632
 5526TIP3   OH240772   0.555   4.733  10.983  0.6313 -0.0262 -0.4263
 5526TIP3    H140773   0.582   4.805  10.926 -1.0119  0.5842 -0.5012
 5526TIP3    H240774   0.617   4.662  10.964  2.4034  1.3959 -0.2178
 5527TIP3   OH240775   7.043   4.740  11.821  0.5730  0.1541  0.4649
 5527TIP3    H140776   7.117   4.745  11.760  0.5777 -2.7999  0.0750
 5527TIP3    H240777   7.081   4.756  11.907  1.4587 -0.2429  0.1577
 5528TIP3   OH240778   0.354   3.251  12.740 -0.1166  0.4059  0.2125
 5528TIP3    H140779   0.305   3.328  12.713 -1.0811  0.4255  1.8517
 5528TIP3    H240780   0.417   3.284  12.804  0.1666 -0.0158  0.1572
 5529TIP3   OH240781   5.106   1.442  17.459  0.2277 -0.1634 -0.7817
 5529TIP3    H140782   5.057   1.394  17.526  0.0293  1.8180  0.5750
 5529TIP3    H240783   5.116   1.379  17.387 -1.1515 -1.7781  0.3550
 5530TIP3   OH240784   1.458   1.402  10.502 -0.0377  0.2057  0.0681
 5530TIP3    H140785   1.486   1.482  10.547 -0.5389 -0.6470  2.0067
 5530TIP3    H240786   1.365   1.393  10.525 -0.3779 -0.1418 -1.3836
 5531TIP3   OH240787   6.695   6.301  11.247 -0.5757  0.1757  0.4592
 5531TIP3    H140788   6.756   6.282  11.175 -0.9844  2.0497 -0.4375
 5531TIP3    H240789   6.746   6.355  11.307 -0.6708 -0.1862  0.8657
 5532TIP3   OH240790   6.854   0.261  12.295 -0.0615  0.1828  0.0679
 5532TIP3    H140791   6.827   0.304  12.214 -1.4674  0.2830  0.5631
 5532TIP3    H240792   6.906   0.327  12.340 -0.5509  0.6785 -0.0753
 5533TIP3   OH240793   2.676   1.700  12.310 -0.3559 -0.5775  0.0435
 5533TIP3    H140794   2.723   1.743  12.239 -0.4268 -0.6376 -0.0390
 5533TIP3    H240795   2.584   1.710  12.288 -0.4487  0.7240  0.8791
 5534TIP3   OH240796   2.248   7.395  10.757  0.1852  0.1061 -0.5937
 5534TIP3    H140797   2.295   7.384  10.674  0.5654  0.7680 -0.4718
 5534TIP3    H240798   2.237   7.306  10.790  0.2852 -0.1420 -1.2154
 5535TIP3   OH240799   1.222   3.647  11.993  0.7056  0.2842  0.3578
 5535TIP3    H140800   1.202   3.601  11.911 -1.8599  0.9001  0.5504
 5535TIP3    H240801   1.240   3.576  12.056  1.5779 -0.2290 -0.4402
 5536TIP3   OH240802   2.131   3.877  11.727 -0.1277  0.5158 -1.0853
 5536TIP3    H140803   2.037   3.896  11.721 -0.6425 -1.2966  0.2774
 5536TIP3    H240804   2.154   3.845  11.640 -1.5276 -1.8371 -0.6720
 5537TIP3   OH240805   5.214   4.757  11.132  0.1760  0.2157  0.1171
 5537TIP3    H140806   5.294   4.808  11.122 -0.2528  0.6817 -1.2020
 5537TIP3    H240807   5.205   4.744  11.226  1.5135  0.6112  0.3123
 5538TIP3   OH240808   7.583   2.964  12.096 -0.3667  0.5475  0.6111
 5538TIP3    H140809   7.580   3.035  12.160  0.5060 -1.4628  3.0655
 5538TIP3    H240810   7.498   2.966  12.053 -0.9727  2.0185  1.7973
 5539TIP3   OH240811   3.335   2.901  11.110 -0.4070 -0.0570 -0.3314
 5539TIP3    H140812   3.252   2.864  11.142  0.1496  0.8927  2.4763
 5539TIP3    H240813   3.401   2.860  11.165  0.8588  0.4508 -1.4343
 5540TIP3   OH240814   1.592   1.818  11.867  0.5925  0.2770  0.1014
 5540TIP3    H140815   1.658   1.886  11.877  0.3606  0.6709 -0.9716
 5540TIP3    H240816   1.508   1.864  11.874  0.4116 -0.1843  1.2231
 5541TIP3   OH240817   5.216   6.128  13.102 -0.1169  0.8181 -0.3720
 5541TIP3    H140818   5.136   6.180  13.094 -0.7171  0.0246  0.3073
 5541TIP3    H240819   5.252   6.153  13.188 -0.3658  0.1720 -0.0790
 5542TIP3   OH240820   0.392   7.237  12.943 -1.1930 -0.6345 -0.5886
 5542TIP3    H140821   0.342   7.274  13.016 -1.0057  0.2400 -0.8877
 5542TIP3    H240822   0.337   7.166  12.910 -0.6082 -2.0381  1.3176
 5543TIP3   OH240823   1.127   0.353  10.846 -1.0418  0.0460 -0.0485
 5543TIP3    H140824   1.159   0.430  10.798 -2.5147  0.4873 -0.3734
 5543TIP3    H240825   1.103   0.388  10.932 -0.1981 -0.3846  0.3784
 5544TIP3   OH240826   1.793   1.685  11.018  0.2551 -0.5147  0.5357
 5544TIP3    H140827   1.732   1.756  11.040  1.3757  1.3228 -1.8528
 5544TIP3    H240828   1.875   1.709  11.062  1.0811  0.5706 -1.4896
 5545TIP3   OH240829   5.413   7.099  11.639 -0.3993 -0.1776 -0.3578
 5545TIP3    H140830   5.399   7.038  11.710 -2.0347  0.7401  0.1620
 5545TIP3    H240831   5.394   7.185  11.677  0.9913  0.5855 -1.2922
 5546TIP3   OH240832   4.174   2.478  12.023  0.3071 -0.2116  0.0739
 5546TIP3    H140833   4.254   2.429  12.043  0.5185  0.1644  0.1588
 5546TIP3    H240834   4.191   2.566  12.056  0.1028  0.0385 -0.4853
 5547TIP3   OH240835   2.612   2.396  12.510 -0.3171 -0.2987 -0.3438
 5547TIP3    H140836   2.536   2.399  12.569 -0.4515 -0.8631 -0.4803
 5547TIP3    H240837   2.684   2.430  12.562 -0.3479 -1.1634  0.2852
 5548TIP3   OH240838   5.994   5.974  12.355 -0.3413 -0.0937 -0.3824
 5548TIP3    H140839   6.018   5.883  12.371  1.1836  0.2819 -0.3392
 5548TIP3    H240840   5.909   5.970  12.311 -0.6457 -1.4863  0.3020
 5549TIP3   OH240841   4.205   2.769  12.105 -0.1122 -0.1320  0.2915
 5549TIP3    H140842   4.219   2.832  12.175 -2.5130  0.5636  0.2312
 5549TIP3    H240843   4.243   2.811  12.027  0.5941  0.0742  0.7400
 5550TIP3   OH240844   6.690   7.421  12.287 -0.0603 -0.3126 -0.0787
 5550TIP3    H140845   6.615   7.458  12.334  0.1798  0.4074 -0.2486
 5550TIP3    H240846   6.653   7.349  12.236 -0.3572 -1.0143  1.0780
 5551TIP3   OH240847   1.658   0.234  12.200 -0.1705  0.2778  0.0407
 5551TIP3    H140848   1.696   0.174  12.136  0.1874 -0.7558  1.1878
 5551TIP3    H240849   1.677   0.321  12.165  1.5292 -0.2266 -0.3993
 5552TIP3   OH240850   3.964   1.805  10.550 -0.0391  0.2681  0.1166
 5552TIP3    H140851   3.984   1.877  10.491 -0.3796  1.2893  1.2195
 5552TIP3    H240852   3.963   1.727  10.494  1.6796  0.9091 -0.8658
 5553TIP3   OH240853   1.916   4.812  12.711 -0.4963 -0.1067 -0.0599
 5553TIP3    H140854   1.873   4.772  12.786 -0.4317 -0.0908 -0.0147
 5553TIP3    H240855   1.871   4.897  12.701  0.4765  0.5334  0.8640
 5554TIP3   OH240856   0.683   7.511  11.276 -0.1565 -0.5444  0.3977
 5554TIP3    H140857   0.769   7.469  11.268  0.7969  1.3874 -0.0104
 5554TIP3    H240858   0.629   7.466  11.211  1.0839 -0.5367 -0.6813
 5555TIP3   OH240859   2.529   3.539  11.464  0.3247 -0.0895  0.3821
 5555TIP3    H140860   2.467   3.481  11.508  0.5276  0.0366  0.8473
 5555TIP3    H240861   2.594   3.559  11.531  0.6444  0.1049  0.0162
 5556TIP3   OH240862   1.121   2.893  10.589 -0.6045  0.7776  0.2840
 5556TIP3    H140863   1.161   2.830  10.529 -0.4538  0.1036  1.0889
 5556TIP3    H240864   1.132   2.978  10.544  1.5848  0.6025  0.3882
 5557TIP3   OH240865   0.842   4.865  11.289  0.0472  0.0075  0.0136
 5557TIP3    H140866   0.772   4.864  11.355 -0.2589  1.8283 -0.2449
 5557TIP3    H240867   0.923   4.875  11.339  0.2068 -2.2669  0.3278
 5558TIP3   OH240868   6.299   0.549  13.297  0.1564  0.4818 -0.0249
 5558TIP3    H140869   6.205   0.534  13.303  0.4223 -1.8777 -0.7644
 5558TIP3    H240870   6.324   0.511  13.212  1.8034  0.8547  0.2600
 5559TIP3   OH240871   1.182   4.056  12.632  0.1001  0.0493  0.1696
 5559TIP3    H140872   1.256   4.003  12.601  0.9039  0.3762  1.4119
 5559TIP3    H240873   1.220   4.142  12.649 -0.9376  0.7036 -0.7161
 5560TIP3   OH240874   6.398   7.323  12.857 -0.8893 -0.0092  0.2331
 5560TIP3    H140875   6.408   7.372  12.939  0.5439  1.3374 -0.6871
 5560TIP3    H240876   6.400   7.231  12.884  0.6525  0.3754  1.6405
 5561TIP3   OH240877   1.759   1.279  11.149 -0.2006  0.5504  0.1619
 5561TIP3    H140878   1.690   1.216  11.168  0.4887 -0.7042 -1.2605
 5561TIP3    H240879   1.833   1.226  11.120  1.0259  1.9227  0.6108
 5562TIP3   OH240880   5.709   2.568  13.776  0.2603 -0.0196  0.0657
 5562TIP3    H140881   5.657   2.538  13.702  0.3315  0.5423 -0.2205
 5562TIP3    H240882   5.657   2.638  13.815  0.3722 -0.0940  0.3533
 5563TIP3   OH240883   1.761   6.235  11.494 -0.4636 -0.1802 -0.3548
 5563TIP3    H140884   1.747   6.144  11.467  1.6790 -1.1934  1.5116
 5563TIP3    H240885   1.799   6.227  11.582  2.4842  2.3576 -1.2401
 5564TIP3   OH240886   7.348   0.066  12.091 -0.2778 -0.2580  0.1417
 5564TIP3    H140887   7.359   0.018  12.009  0.4897 -0.8091  0.5493
 5564TIP3    H240888   7.409   0.024  12.152 -2.2848 -1.2238  1.5969
 5565TIP3   OH240889   0.150   4.792  11.805  0.0867 -0.3048  0.2100
 5565TIP3    H140890   0.199   4.738  11.866 -0.6154 -0.0242  1.0390
 5565TIP3    H240891   0.059   4.767  11.818  0.0171 -1.6056 -2.0735
 5566TIP3   OH240892   0.664   2.593  11.076  0.1252  0.1251  0.1662
 5566TIP3    H140893   0.729   2.648  11.032 -0.0634 -0.0875 -0.3973
 5566TIP3    H240894   0.622   2.545  11.004 -1.7749  1.4451  0.3164
 5567TIP3   OH240895   6.100   2.184  11.746  0.3836 -0.0470 -0.2722
 5567TIP3    H140896   6.195   2.182  11.758  0.6201  2.2625 -1.2376
 5567TIP3    H240897   6.086   2.160  11.655  0.0646 -0.1188 -0.2068
 5568TIP3   OH240898   5.056   0.090  11.753  0.1170  0.0363 -0.0040
 5568TIP3    H140899   5.094   0.006  11.779 -1.3829  0.1089  2.8392
 5568TIP3    H240900   5.006   0.070  11.674  0.6525 -1.5315  0.0139
 5569TIP3   OH240901   6.841   3.521  12.774  0.2097 -0.1483  0.0692
 5569TIP3    H140902   6.807   3.546  12.860  0.1917 -0.2186  0.0822
 5569TIP3    H240903   6.932   3.495  12.791 -0.5566 -2.7867  0.5165
 5570TIP3   OH240904   5.839   7.228  11.907 -0.6768  0.2304  0.1806
 5570TIP3    H140905   5.787   7.167  11.855 -0.2518  0.5000 -0.5677
 5570TIP3    H240906   5.877   7.173  11.976 -0.6318 -0.2814 -0.2418
 5571TIP3   OH240907   2.083   4.297  10.716  0.1189  0.2743  0.7503
 5571TIP3    H140908   2.119   4.257  10.796 -1.9506 -0.4744  1.3943
 5571TIP3    H240909   2.159   4.334  10.671  1.3894  0.5966  2.9850
 5572TIP3   OH240910   1.779   2.114  10.895  0.1446 -0.1516  0.2227
 5572TIP3    H140911   1.811   2.064  10.820  0.0134 -1.5544  1.0611
 5572TIP3    H240912   1.856   2.127  10.950  0.3812  1.4504 -0.4206
 5573TIP3   OH240913   3.567   1.743  11.346  0.5584  0.0188  0.2608
 5573TIP3    H140914   3.623   1.707  11.414 -0.7271 -0.4261  1.1268
 5573TIP3    H240915   3.542   1.667  11.293  1.0575  0.2703 -0.3523
 5574TIP3   OH240916   0.772   5.785  13.417  0.4971  0.0362 -0.7613
 5574TIP3    H140917   0.801   5.693  13.414  0.0757 -0.1325  0.1575
 5574TIP3    H240918   0.677   5.780  13.407  0.3183  0.2602  0.6348
 5575TIP3   OH240919   1.004   5.234  11.004  0.0439  0.2241  0.2524
 5575TIP3    H140920   1.088   5.271  10.977  1.2052 -1.6231  1.0833
 5575TIP3    H240921   1.006   5.143  10.972 -0.7801 -0.4347  1.9401
 5576TIP3   OH240922   1.397   2.371  11.445  0.3116  0.1056 -0.3900
 5576TIP3    H140923   1.338   2.312  11.493 -1.7538  2.0188 -0.4324
 5576TIP3    H240924   1.456   2.312  11.398 -0.9175 -1.9009  0.4459
 5577TIP3   OH240925   3.629   4.086  11.179  0.6983 -0.3517 -0.7702
 5577TIP3    H140926   3.700   4.094  11.243  1.9471 -0.2436 -2.1225
 5577TIP3    H240927   3.645   4.002  11.136  0.2937 -0.1099 -1.4084
 5578TIP3   OH240928   7.634   2.730  10.480 -0.2974  0.0306  0.3150
 5578TIP3    H140929   7.709   2.718  10.538  0.9030 -1.0008 -1.3677
 5578TIP3    H240930   7.644   2.662  10.413 -3.7019 -1.3408  0.9769
 5579TIP3   OH240931   4.481   2.024  12.448  0.3203 -0.2675  0.3889
 5579TIP3    H140932   4.460   2.070  12.529  0.4335  1.2500 -0.4224
 5579TIP3    H240933   4.407   1.965  12.434  0.2492 -0.4629  1.5270
 5580TIP3   OH240934   3.310   6.897  12.790  0.1139 -0.5993 -0.1232
 5580TIP3    H140935   3.235   6.946  12.823  1.3625  1.6670 -0.4159
 5580TIP3    H240936   3.329   6.832  12.858 -3.0032 -2.3624 -0.7604
 5581TIP3   OH240937   3.563   2.526  11.045 -0.4384  0.3888  0.3489
 5581TIP3    H140938   3.580   2.480  11.127 -2.0135  0.4088  0.7145
 5581TIP3    H240939   3.526   2.460  10.987  1.9935  0.0120 -0.8980
 5582TIP3   OH240940   0.255   3.616  12.019  0.2874 -0.1168  0.2756
 5582TIP3    H140941   0.252   3.702  12.061  1.4852 -0.7839  1.8101
 5582TIP3    H240942   0.278   3.635  11.928  2.4091  1.1192  0.9935
 5583TIP3   OH240943   6.385   7.478  11.136  0.6244 -0.6238 -0.0146
 5583TIP3    H140944   6.359   7.518  11.219 -0.4623 -0.1826 -0.5482
 5583TIP3    H240945   6.313   7.421  11.112  1.0392 -0.9485 -0.5287
 5584TIP3   OH240946   4.645   1.586  11.630 -0.5884 -0.1423  0.0671
 5584TIP3    H140947   4.739   1.602  11.622 -0.5865 -0.5005 -0.6749
 5584TIP3    H240948   4.608   1.611  11.545 -1.0406 -0.8178  0.0502
 5585TIP3   OH240949   5.421   4.207  11.983  0.4733  0.4984  0.1995
 5585TIP3    H140950   5.466   4.141  12.035 -0.2555  0.4815  0.8247
 5585TIP3    H240951   5.403   4.278  12.044  0.2192  0.7817 -0.1972
 5586TIP3   OH240952   2.675   5.335  10.963  0.1785 -0.0956  0.2289
 5586TIP3    H140953   2.640   5.284  10.889 -0.2436 -0.1575  0.4660
 5586TIP3    H240954   2.693   5.269  11.030  3.0299 -0.3893 -0.7062
 5587TIP3   OH240955   3.014   6.285  12.135 -0.3082 -0.4797 -0.0975
 5587TIP3    H140956   3.013   6.208  12.192  1.4312  0.2531  1.0215
 5587TIP3    H240957   2.944   6.340  12.169 -0.7213 -1.0095 -0.0789
 5588TIP3   OH240958   0.189   2.749  13.592  0.7242 -0.6239 -0.0020
 5588TIP3    H140959   0.258   2.711  13.537  0.3160 -1.0881 -0.1967
 5588TIP3    H240960   0.115   2.760  13.533  0.7036  0.1060  0.1528
 5589TIP3   OH240961   4.175   0.283  11.352 -0.7228  0.4117  0.0078
 5589TIP3    H140962   4.120   0.275  11.274 -1.1472  1.6008  0.1714
 5589TIP3    H240963   4.131   0.348  11.406 -0.2577 -0.1518  1.1014
 5590TIP3   OH240964   5.263   3.865  12.055  0.3382 -0.3127  0.2506
 5590TIP3    H140965   5.340   3.825  12.095  2.7352  3.3573 -0.1914
 5590TIP3    H240966   5.234   3.930  12.119 -1.0259 -0.0704 -0.5625
 5591TIP3   OH240967   3.893   6.146  10.703 -0.1402  0.1882 -0.0931
 5591TIP3    H140968   3.798   6.150  10.710 -0.1772 -2.2040  2.1808
 5591TIP3    H240969   3.912   6.054  10.684  1.7938 -0.3259  3.5003
 5592TIP3   OH240970   2.141   5.076  11.594 -0.1798  0.4674  0.1726
 5592TIP3    H140971   2.112   5.019  11.522  0.0325 -1.0921  1.2674
 5592TIP3    H240972   2.103   5.036  11.672  0.2263  1.6906  1.0218
 5593TIP3   OH240973   3.221   5.818  10.779  0.1493 -0.2027 -0.3913
 5593TIP3    H140974   3.274   5.758  10.831  0.6682 -1.1382 -1.9267
 5593TIP3    H240975   3.185   5.763  10.709 -2.6364  0.4412  0.3972
 5594TIP3   OH240976   3.751   4.699  10.602 -0.1133  0.5669  0.2501
 5594TIP3    H140977   3.777   4.747  10.523 -0.4895 -0.8271 -0.7607
 5594TIP3    H240978   3.655   4.698  10.598 -0.1228  0.2232  0.5619
 5595TIP3   OH240979   4.270   1.869  12.408 -0.1135 -0.0078  0.0062
 5595TIP3    H140980   4.210   1.869  12.482 -0.7225  0.3367 -0.4736
 5595TIP3    H240981   4.228   1.813  12.343  0.9676 -1.2510  0.3398
 5596TIP3   OH240982   7.137   6.778  10.657 -0.1518 -0.2405  0.0542
 5596TIP3    H140983   7.172   6.762  10.569 -1.1556  0.1130 -0.4327
 5596TIP3    H240984   7.214   6.798  10.710  0.7437 -2.7180 -0.1880
 5597TIP3   OH240985   1.584   0.203  12.584  0.1596 -0.8468  0.0580
 5597TIP3    H140986   1.502   0.194  12.633 -0.5042  0.5254 -0.7413
 5597TIP3    H240987   1.637   0.128  12.612 -1.0948 -1.3840  1.1030
 5598TIP3   OH240988   1.290   5.939  10.222 -0.4787 -0.3517 -0.2385
 5598TIP3    H140989   1.319   5.984  10.301 -1.6745 -0.0410  0.0488
 5598TIP3    H240990   1.352   5.867  10.211  0.6716  0.5616  0.0471
 5599TIP3   OH240991   1.365   6.643  12.872 -0.0746  0.1804  0.0407
 5599TIP3    H140992   1.365   6.627  12.778  0.3295  2.1640 -0.3331
 5599TIP3    H240993   1.281   6.608  12.902 -0.2860 -0.3005 -1.0806
 5600TIP3   OH240994   5.039   2.939  12.209 -0.2840  0.5210 -0.0845
 5600TIP3    H140995   5.068   3.023  12.173  1.1738  0.6908  1.3765
 5600TIP3    H240996   5.120   2.893  12.229 -1.0027  0.2985  2.5941
 5601TIP3   OH240997   6.808   2.444  12.767 -0.0305 -0.0385  0.0722
 5601TIP3    H140998   6.735   2.454  12.829 -0.0535 -0.9292  0.2004
 5601TIP3    H240999   6.884   2.426  12.822  0.3402  1.0629 -0.0491
 5602TIP3   OH241000   0.258   4.785  11.415 -0.2334 -0.2537  0.1737
 5602TIP3    H141001   0.314   4.741  11.479  0.2548 -1.3290 -0.9266
 5602TIP3    H241002   0.213   4.713  11.370 -0.2871  0.4391 -0.9239
 5603TIP3   OH241003   5.493   2.658  10.524  0.2221  0.7255 -0.5524
 5603TIP3    H141004   5.571   2.683  10.474 -0.3722  0.9155 -1.3950
 5603TIP3    H241005   5.468   2.573  10.488  1.1883 -0.2950  1.0785
 5604TIP3   OH241006   0.784   4.817  10.616 -0.2074  0.0202  0.0124
 5604TIP3    H141007   0.702   4.842  10.657  0.5233  1.6783  0.5381
 5604TIP3    H241008   0.842   4.892  10.630  1.6177 -1.3712  0.2457
 5605TIP3   OH241009   6.006   3.437  13.593  0.0888  0.2716  0.8624
 5605TIP3    H141010   5.922   3.462  13.632 -0.6046 -1.0057  0.2209
 5605TIP3    H241011   5.984   3.375  13.524  1.4888  0.6818 -0.0128
 5606TIP3   OH241012   0.769   2.192  11.653  0.4717 -0.0668 -0.4635
 5606TIP3    H141013   0.819   2.255  11.600 -0.9069 -0.7049 -2.6802
 5606TIP3    H241014   0.792   2.107  11.616 -0.0416 -0.6076  0.4336
 5607TIP3   OH241015   6.851   2.909  12.369 -0.3289 -0.1168  0.4506
 5607TIP3    H141016   6.777   2.868  12.415 -0.5845 -0.0850  0.0710
 5607TIP3    H241017   6.811   2.983  12.322 -0.1376 -0.4095 -0.1706
 5608TIP3   OH241018   7.561   2.468  11.864  0.0182 -0.5987 -0.1620
 5608TIP3    H141019   7.603   2.412  11.930  0.4007 -1.5345 -1.1744
 5608TIP3    H241020   7.482   2.421  11.839 -0.9422  0.4928  0.7193
 5609TIP3   OH241021   5.828   3.914  11.864  0.3009 -0.3201  0.3159
 5609TIP3    H141022   5.824   4.009  11.871  0.7799 -0.3721  1.4874
 5609TIP3    H241023   5.742   3.884  11.894  1.0548 -0.3590  2.5744
 5610TIP3   OH241024   1.349   2.433  10.768 -0.0102 -0.3457 -0.6517
 5610TIP3    H141025   1.373   2.406  10.857 -0.3525 -0.1824 -0.5087
 5610TIP3    H241026   1.433   2.441  10.722  0.1518 -0.6797 -0.4153
 5611TIP3   OH241027   0.279   5.238  11.608  0.4022 -0.0960 -0.2851
 5611TIP3    H141028   0.248   5.247  11.518  1.3878 -0.6846 -0.6953
 5611TIP3    H241029   0.275   5.144  11.626  2.5622 -0.3120 -0.6098
 5612TIP3   OH241030   6.545   3.819  10.736 -0.3379 -0.0089  0.0468
 5612TIP3    H141031   6.481   3.806  10.665 -2.0964  1.6264  1.2355
 5612TIP3    H241032   6.580   3.731  10.752 -0.8449 -0.6393 -1.9499
 5613TIP3   OH241033   4.760   7.056  11.435 -0.2933 -0.0149  0.3456
 5613TIP3    H141034   4.734   7.082  11.523 -2.5819 -1.7163  0.2907
 5613TIP3    H241035   4.680   7.019  11.397  1.3102 -1.9471 -1.4171
 5614TIP3   OH241036   6.478   2.724  12.979 -0.1695  0.5491  0.0278
 5614TIP3    H141037   6.439   2.650  12.933  0.7506  0.7930 -1.2025
 5614TIP3    H241038   6.415   2.746  13.047 -0.9168 -0.7264 -0.2235
 5615TIP3   OH241039   3.871   0.154  10.723 -0.1938  0.0053  0.0496
 5615TIP3    H141040   3.931   0.216  10.764 -0.1878 -0.3835  0.6421
 5615TIP3    H241041   3.786   0.174  10.763 -0.2052 -0.3156  0.1872
 5616TIP3   OH241042   0.007   1.531  12.567 -0.6483  0.2663  0.2263
 5616TIP3    H141043  -0.007   1.445  12.608 -1.6518 -0.5339 -1.6483
 5616TIP3    H241044  -0.054   1.589  12.612 -1.9185 -0.6505 -0.2382
 5617TIP3   OH241045   6.871   4.677  10.725 -0.2965  0.1946 -0.5103
 5617TIP3    H141046   6.928   4.671  10.649  1.0266  0.4219  0.4341
 5617TIP3    H241047   6.886   4.596  10.773  0.4857  0.9564  0.5831
 5618TIP3   OH241048   4.636   2.102  10.794  0.2473  0.2630  0.2868
 5618TIP3    H141049   4.613   2.148  10.714  1.4833  1.4185  0.5611
 5618TIP3    H241050   4.699   2.036  10.767 -0.2018 -0.1234  0.1578
 5619TIP3   OH241051   0.074   2.601  10.895 -0.1650  0.1747  0.1368
 5619TIP3    H141052   0.011   2.671  10.882 -0.2674  0.1499  0.4892
 5619TIP3    H241053   0.130   2.605  10.817 -0.6475  0.1420 -0.2226
 5620TIP3   OH241054   0.209   2.920  11.693 -0.2052  0.1910  0.1777
 5620TIP3    H141055   0.296   2.960  11.686  0.6424 -1.5617  0.0695
 5620TIP3    H241056   0.195   2.908  11.786  1.3891 -2.9089  0.1382
 5621TIP3   OH241057   0.608   0.111  11.116  0.3672  0.4045 -0.2032
 5621TIP3    H141058   0.670   0.170  11.160  0.9701 -0.2143 -0.2116
 5621TIP3    H241059   0.663   0.041  11.081 -0.1792  0.5984 -1.4677
 5622TIP3   OH241060   0.638   0.586  10.675 -0.4537 -0.5615 -0.1109
 5622TIP3    H141061   0.603   0.666  10.714 -0.3676 -0.7322  0.3180
 5622TIP3    H241062   0.642   0.606  10.581 -1.7188 -0.5517 -0.1796
 5623TIP3   OH241063   4.678   7.504  12.444 -0.6268  0.1753  0.3792
 5623TIP3    H141064   4.756   7.461  12.481  0.6129  0.7944 -1.3676
 5623TIP3    H241065   4.608   7.441  12.457 -0.0380 -0.0974  2.6869
 5624TIP3   OH241066   5.867   7.182  12.500 -0.2794 -0.3043  0.3941
 5624TIP3    H141067   5.779   7.159  12.530  0.3169 -0.7718  1.8386
 5624TIP3    H241068   5.903   7.235  12.570  0.1932  0.8844 -0.7089
 5625TIP3   OH241069   4.875   3.972  11.706 -0.0548 -0.6729  0.6292
 5625TIP3    H141070   4.828   3.938  11.782  0.4803  0.6707  1.6128
 5625TIP3    H241071   4.926   4.046  11.741  1.2288 -0.8487 -0.7853
 5626TIP3   OH241072   1.737   3.824  12.098  0.0552  0.0820  0.3925
 5626TIP3    H141073   1.806   3.865  12.151  1.2531  1.7504 -2.2764
 5626TIP3    H241074   1.767   3.734  12.086 -0.2066 -0.3200  2.3822
 5627TIP3   OH241075   4.481   3.582  12.243 -0.2459  0.2914  0.1862
 5627TIP3    H141076   4.493   3.677  12.251 -0.3342  0.2584  0.7425
 5627TIP3    H241077   4.412   3.572  12.178 -2.0908  0.7154  1.9765
 5628TIP3   OH241078   1.144   0.018  12.885 -0.1836 -0.1664 -0.8320
 5628TIP3    H141079   1.152  -0.077  12.876 -1.8305 -0.2762 -1.4205
 5628TIP3    H241080   1.070   0.030  12.943 -0.7708  0.7626 -1.7451
 5629TIP3   OH241081   1.776   2.147  12.667  0.8345 -0.2645 -0.2423
 5629TIP3    H141082   1.785   2.115  12.577 -1.7400  0.6595 -0.9268
 5629TIP3    H241083   1.850   2.109  12.714  1.8053 -1.4265 -2.5715
 5630TIP3   OH241084   2.167   1.118  11.639  0.4550  0.3539 -0.0968
 5630TIP3    H141085   2.250   1.146  11.677 -0.7185  1.1485  1.9962
 5630TIP3    H241086   2.183   1.027  11.612  1.6861  0.1094  1.3139
 5631TIP3   OH241087   2.895   7.567  12.532 -0.7659  0.9129  0.3269
 5631TIP3    H141088   2.973   7.597  12.486 -0.6708  1.4434  0.8171
 5631TIP3    H241089   2.906   7.600  12.622 -2.0476  1.9075  0.1465
 5632TIP3   OH241090   0.079   2.616  11.363  0.4580 -0.1061  0.1425
 5632TIP3    H141091   0.050   2.536  11.319  0.7958  0.0938 -0.4445
 5632TIP3    H241092   0.094   2.679  11.293  3.9329 -0.6776  0.2200
 5633TIP3   OH241093   5.298   5.169  12.768 -0.7975 -0.0943  0.2015
 5633TIP3    H141094   5.243   5.183  12.691  0.9758  1.2491 -0.9078
 5633TIP3    H241095   5.309   5.256  12.806  1.5791 -0.0608 -0.3941
 5634TIP3   OH241096   6.209   0.741  11.770  0.0151  0.3999  0.1408
 5634TIP3    H141097   6.166   0.823  11.744  0.8377  0.7628 -0.0877
 5634TIP3    H241098   6.219   0.693  11.688 -1.9043 -0.6609  0.4599
 5635TIP3   OH241099   4.840   6.650  11.520 -0.1034 -0.5113 -0.5425
 5635TIP3    H141100   4.763   6.606  11.556 -0.9607  0.8695 -0.6033
 5635TIP3    H241101   4.901   6.655  11.594 -0.8188 -0.0050  0.0398
 5636TIP3   OH241102   0.657   0.233  12.327 -0.0410 -0.0005  0.4323
 5636TIP3    H141103   0.714   0.180  12.271  1.1367 -0.0717  1.6631
 5636TIP3    H241104   0.669   0.323  12.295  0.8669  0.0010  0.7604
 5637TIP3   OH241105   6.254   7.432  10.813 -0.5753  0.5999 -0.3851
 5637TIP3    H141106   6.315   7.397  10.748 -0.5641  0.3366 -0.2334
 5637TIP3    H241107   6.208   7.355  10.847  0.0254  0.6409  0.5512
 5638TIP3   OH241108   4.502   2.505  12.535 -0.1663  0.2788 -0.6262
 5638TIP3    H141109   4.505   2.518  12.440 -1.0028 -2.3970 -1.0900
 5638TIP3    H241110   4.508   2.594  12.571 -1.7244  1.5632 -3.2049
 5639TIP3   OH241111   7.494   4.379  12.959  0.2388  0.0794 -0.1485
 5639TIP3    H141112   7.480   4.368  13.053  0.5844 -1.1439 -0.2205
 5639TIP3    H241113   7.542   4.300  12.933 -0.2062  0.2094 -1.4210
 5640TIP3   OH241114   0.941   4.702  11.097 -0.6997  0.5993 -0.1157
 5640TIP3    H141115   0.885   4.745  11.162  0.3183 -0.3303  1.4339
 5640TIP3    H241116   0.880   4.653  11.043 -1.4609 -0.1794  1.3698
 5641TIP3   OH241117   6.099   6.281  13.206 -0.7527 -0.4643  0.2157
 5641TIP3    H141118   6.111   6.214  13.273 -0.3582 -0.4625  0.1533
 5641TIP3    H241119   6.165   6.260  13.140 -0.5080  0.0858  0.2787
 5642TIP3   OH241120   7.141   1.739  11.560  0.3450 -0.1529  0.0130
 5642TIP3    H141121   7.207   1.729  11.629 -0.5687 -0.6385  0.8415
 5642TIP3    H241122   7.058   1.743  11.607 -0.1786  1.1086 -0.9734
 5643TIP3   OH241123   3.178   6.445  10.786  0.4055  0.2416  0.0623
 5643TIP3    H141124   3.139   6.451  10.873 -1.1784  1.4799 -0.6870
 5643TIP3    H241125   3.143   6.520  10.738  1.0393 -0.5393 -1.7302
 5644TIP3   OH241126   6.845   1.260  12.595  0.9439 -0.6480 -0.3332
 5644TIP3    H141127   6.874   1.226  12.680  1.6353 -0.3507 -0.4397
 5644TIP3    H241128   6.765   1.212  12.576  0.6030 -0.4953  0.6371
 5645TIP3   OH241129   4.550   7.031  10.786  0.5548 -0.2162 -0.4996
 5645TIP3    H141130   4.598   7.041  10.868  0.0172 -0.4200 -0.1515
 5645TIP3    H241131   4.467   7.077  10.801  0.4882 -0.1845 -0.9540
 5646TIP3   OH241132   1.015   0.047  10.519  0.8823  0.0006 -0.6894
 5646TIP3    H141133   1.022  -0.046  10.541  1.1854  0.4784  1.4329
 5646TIP3    H241134   0.941   0.079  10.571  0.0772  0.7528 -2.2219
 5647TIP3   OH241135   7.135   6.448  10.673 -0.1105 -0.2817 -0.0690
 5647TIP3    H141136   7.103   6.361  10.698  0.7618 -0.2519  1.2160
 5647TIP3    H241137   7.220   6.433  10.633  1.6692  0.1691  3.2395
 5648TIP3   OH241138   0.880   7.197  11.651 -0.4783 -0.4768 -0.3840
 5648TIP3    H141139   0.957   7.156  11.610 -0.6259 -0.0965 -1.0457
 5648TIP3    H241140   0.904   7.289  11.660  0.4412 -0.8909  2.4494
 5649TIP3   OH241141   2.746   5.150  11.144 -0.1743 -0.6844  0.2994
 5649TIP3    H141142   2.834   5.120  11.168 -0.0680 -2.3070 -1.8722
 5649TIP3    H241143   2.693   5.133  11.222  1.2525 -0.4184  1.3699
 5650TIP3   OH241144   0.942   3.329  12.241 -0.0623 -0.4879  0.3572
 5650TIP3    H141145   0.991   3.299  12.317  0.3837 -1.7961 -0.4177
 5650TIP3    H241146   0.855   3.290  12.252 -0.0551 -0.5227  0.2897
 5651TIP3   OH241147   0.636   1.928  11.616 -0.3380 -1.1214  0.1994
 5651TIP3    H141148   0.552   1.966  11.592 -1.2546 -1.5050  2.4912
 5651TIP3    H241149   0.614   1.863  11.683  1.6763 -2.0836  0.0037
 5652TIP3   OH241150   7.333   1.880  12.895 -0.0960 -0.4708  0.1361
 5652TIP3    H141151   7.317   1.882  12.989  0.3194  0.7940  0.1901
 5652TIP3    H241152   7.370   1.965  12.874 -3.2164  0.6169 -1.7176
 5653TIP3   OH241153   7.613   1.258  12.185 -0.6732  0.0707  0.0611
 5653TIP3    H141154   7.585   1.349  12.192  1.2480  0.6264  1.2701
 5653TIP3    H241155   7.575   1.228  12.103 -0.4669  2.2836 -0.9110
 5654TIP3   OH241156   6.543   3.372  11.556  0.4613  0.0478  0.1834
 5654TIP3    H141157   6.514   3.427  11.628  1.8803  0.2086  0.6719
 5654TIP3    H241158   6.632   3.346  11.580  1.1178  0.3834 -1.6419
 5655TIP3   OH241159   0.567   3.360  13.163  0.3635  0.2017  0.7379
 5655TIP3    H141160   0.609   3.402  13.089 -2.3678 -0.1428 -1.1768
 5655TIP3    H241161   0.549   3.271  13.134 -1.2211  0.2032  1.5543
 5656TIP3   OH241162   1.233   6.272  13.182  0.3488  0.0167  0.5646
 5656TIP3    H141163   1.324   6.243  13.187  0.3329  0.0601  1.1584
 5656TIP3    H241164   1.237   6.353  13.130  0.5818 -0.2458  0.1697
 5657TIP3   OH241165   1.277   5.066  11.658 -0.0955  0.1958  0.4571
 5657TIP3    H141166   1.196   5.116  11.661  0.4670  1.1217  0.5113
 5657TIP3    H241167   1.321   5.087  11.740 -0.0874 -0.8135  0.7264
 5658TIP3   OH241168   6.458   2.270  12.464  0.0543 -0.3758 -0.0309
 5658TIP3    H141169   6.466   2.175  12.459  2.6391 -0.1948 -0.3912
 5658TIP3    H241170   6.399   2.292  12.392 -0.1017 -1.6559 -0.3231
 5659TIP3   OH241171   5.849   5.746  12.233  0.4921  0.1447 -0.0518
 5659TIP3    H141172   5.812   5.726  12.147 -0.1688  2.0835 -0.2585
 5659TIP3    H241173   5.931   5.791  12.214  1.2085 -0.9311  0.3819
 5660TIP3   OH241174   6.384   0.008  10.887  0.2763  0.2300  0.4130
 5660TIP3    H141175   6.345  -0.075  10.859  1.0948 -0.0985  0.2047
 5660TIP3    H241176   6.323   0.043  10.952  0.3082 -0.9352  1.0980
 5661TIP3   OH241177   3.016   1.629  11.195  0.0742  0.1316  0.3864
 5661TIP3    H141178   2.995   1.537  11.214 -1.2969 -0.1738 -2.1861
 5661TIP3    H241179   2.991   1.675  11.275 -0.8009 -1.5457  1.1480
 5662TIP3   OH241180   1.989   7.070  12.010  0.1016 -0.5140 -0.2231
 5662TIP3    H141181   2.006   7.075  12.104 -2.8673  0.7740  0.3518
 5662TIP3    H241182   1.956   6.981  11.996 -2.2560  0.1933  0.5628
 5663TIP3   OH241183   4.703   1.920  12.065  0.8673  0.0439  0.2970
 5663TIP3    H141184   4.751   1.868  12.001 -1.1426 -0.3908 -0.9172
 5663TIP3    H241185   4.611   1.911  12.041  0.2399  2.0419  1.6446
 5664TIP3   OH241186   7.043   4.002  11.853 -0.1290 -0.7197  0.0517
 5664TIP3    H141187   7.138   4.000  11.860  0.1464  1.5207 -1.8192
 5664TIP3    H241188   7.026   4.022  11.761 -2.2870  2.1929  0.9446
 5665TIP3   OH241189   4.191   0.495  13.000  0.4803 -0.4115 -0.1063
 5665TIP3    H141190   4.279   0.525  13.023  1.0966 -0.7466 -1.8737
 5665TIP3    H241191   4.181   0.518  12.908 -0.9568 -1.1737 -0.1723
 5666TIP3   OH241192   2.348   4.987  12.617  0.5805  0.1973  0.5279
 5666TIP3    H141193   2.395   4.909  12.647  0.6850  0.6070  1.4482
 5666TIP3    H241194   2.408   5.059  12.636 -0.0078  0.6204  0.7813
 5667TIP3   OH241195   7.391   3.046  11.522  0.1254 -0.5224  0.1228
 5667TIP3    H141196   7.401   3.137  11.495 -0.2467 -0.7278 -0.7428
 5667TIP3    H241197   7.469   3.028  11.574  0.2492  0.2562  0.2246
 5668TIP3   OH241198   5.852   1.855  13.531  0.0952 -0.2429  0.0582
 5668TIP3    H141199   5.802   1.776  13.550  2.6885 -2.5931 -2.0961
 5668TIP3    H241200   5.815   1.888  13.449  0.2122 -0.3051 -0.0201
 5669TIP3   OH241201   2.989   7.120  10.979 -0.1625 -0.1354  0.0938
 5669TIP3    H141202   3.024   7.208  10.966  2.3950 -0.9146  1.1509
 5669TIP3    H241203   3.050   7.078  11.040 -1.3913 -2.5978 -0.2341
 5670TIP3   OH241204   7.085   1.969  11.399  0.1462  0.3025  0.7037
 5670TIP3    H141205   7.049   2.020  11.473 -0.5829  2.5361 -1.0514
 5670TIP3    H241206   7.100   1.882  11.435 -3.2413  0.3376  2.6998
 5671TIP3   OH241207   2.440   3.051  12.392 -0.1015 -0.5254 -0.4954
 5671TIP3    H141208   2.450   3.146  12.389  2.0343 -0.5172  2.1488
 5671TIP3    H241209   2.360   3.036  12.442 -0.3646 -0.1211 -0.7932
 5672TIP3   OH241210   5.937   6.563  10.720 -0.3117  0.2284  0.1832
 5672TIP3    H141211   6.003   6.517  10.668  0.6497  2.0363 -0.2798
 5672TIP3    H241212   5.950   6.532  10.809  2.0814  1.4430  0.3374
 5673TIP3   OH241213   2.061   4.806  12.229  0.0759  0.2475  0.4181
 5673TIP3    H141214   1.982   4.769  12.190  0.0438  0.0386  0.6751
 5673TIP3    H241215   2.074   4.889  12.184  0.7160 -0.5197 -0.8904
 5674TIP3   OH241216   3.556   0.580  11.543 -0.3683  0.6537  0.3673
 5674TIP3    H141217   3.639   0.533  11.541  0.1547  1.5355  0.7040
 5674TIP3    H241218   3.492   0.517  11.512  0.7950  0.6645 -2.3594
 5675TIP3   OH241219   6.101   3.144  10.399 -0.3707  0.1727  0.3139
 5675TIP3    H141220   6.010   3.122  10.377 -0.0131 -0.8361 -0.2587
 5675TIP3    H241221   6.117   3.228  10.356 -1.4123  1.0132  1.5121
 5676TIP3   OH241222   1.270   2.801  12.713  0.4312 -0.1266 -0.1072
 5676TIP3    H141223   1.299   2.712  12.734  1.1201  0.3776  1.1522
 5676TIP3    H241224   1.329   2.858  12.762 -0.8975  1.0083  0.2256
 5677TIP3   OH241225   0.052   6.372  11.607  0.0471  0.4093  0.0241
 5677TIP3    H141226   0.021   6.282  11.604 -2.5916  1.2798 -1.2351
 5677TIP3    H241227   0.147   6.365  11.595  0.2032 -2.2677  1.8738
 5678TIP3   OH241228   6.013   6.399  12.196 -0.4836  0.6883 -0.2318
 5678TIP3    H141229   6.080   6.380  12.262 -1.5948  0.0530  0.7480
 5678TIP3    H241230   5.994   6.493  12.207 -1.2980  0.4002  0.9950
 5679TIP3   OH241231   0.845   7.047  12.366 -0.0082  0.8343  0.5759
 5679TIP3    H141232   0.787   7.031  12.292 -0.7722  0.4220  1.2566
 5679TIP3    H241233   0.930   7.012  12.338 -0.4731  0.0061  0.1907
 5680TIP3   OH241234   0.020   0.160  12.165  0.3726 -0.0037  0.4395
 5680TIP3    H141235  -0.055   0.197  12.118 -0.5413 -2.9407 -0.6578
 5680TIP3    H241236  -0.019   0.120  12.244  0.8548 -0.9608  0.2081
 5681TIP3   OH241237   0.267   0.671  10.402  0.1733  0.9282 -0.1474
 5681TIP3    H141238   0.337   0.617  10.440  0.6097  1.8133  0.3338
 5681TIP3    H241239   0.312   0.750  10.371 -0.7125  1.8282  0.8272
 5682TIP3   OH241240   5.469   2.435  11.050 -0.1827  0.0030 -0.3419
 5682TIP3    H141241   5.453   2.411  11.141 -0.2205 -0.4478 -0.4607
 5682TIP3    H241242   5.537   2.373  11.021 -0.2972  0.0265 -0.6695
 5683TIP3   OH241243   6.498   3.004  12.098 -0.1331 -0.6531  0.0507
 5683TIP3    H141244   6.564   3.055  12.051  0.2951 -1.7503 -0.5831
 5683TIP3    H241245   6.439   3.069  12.135  1.3002  0.3725  0.6355
 5684TIP3   OH241246   4.544   3.905  11.078 -0.2740 -0.1742 -0.2305
 5684TIP3    H141247   4.500   3.845  11.138  0.2399  1.3581  1.7979
 5684TIP3    H241248   4.525   3.992  11.113  1.4604  0.7004 -1.2966
 5685TIP3   OH241249   1.610   2.827  12.999  0.1552  0.1672  0.3550
 5685TIP3    H141250   1.639   2.880  13.074 -0.4767 -2.2627  2.4644
 5685TIP3    H241251   1.517   2.846  12.992  0.1553  0.1788  0.3826
 5686TIP3   OH241252   0.697   3.721  11.551 -0.4470  0.6966  0.3472
 5686TIP3    H141253   0.788   3.708  11.579 -0.2655  0.7137 -0.2223
 5686TIP3    H241254   0.703   3.775  11.473 -1.0443  2.0058  1.1755
 5687TIP3   OH241255   0.805   5.133  13.217 -0.2977 -0.2659  0.8331
 5687TIP3    H141256   0.730   5.189  13.235 -1.0470 -1.5969  1.9928
 5687TIP3    H241257   0.871   5.160  13.281  0.0546  0.5475  0.1512
 5688TIP3   OH241258   6.168   5.938  10.650 -0.0311 -0.3941  0.8814
 5688TIP3    H141259   6.237   5.900  10.705 -1.6544 -1.1759  2.4991
 5688TIP3    H241260   6.106   5.866  10.636 -0.2495  0.1097 -1.0618
 5689TIP3   OH241261   6.046   5.570  10.793 -0.8207  0.0527 -0.1496
 5689TIP3    H141262   6.101   5.495  10.769  0.1197  0.7730 -0.3459
 5689TIP3    H241263   6.098   5.616  10.859 -1.1850  0.7552 -0.3462
 5690TIP3   OH241264   3.813   6.483  11.609 -1.1181 -0.0772  0.5088
 5690TIP3    H141265   3.797   6.405  11.663 -0.7919 -0.0743  0.6140
 5690TIP3    H241266   3.807   6.452  11.519  0.4090 -0.5454  0.5277
 5691TIP3   OH241267   3.554   2.715  12.106  0.1596 -0.6014 -0.6141
 5691TIP3    H141268   3.621   2.650  12.130  2.7253  2.1612  0.3784
 5691TIP3    H241269   3.564   2.783  12.172 -1.4849  1.4067 -2.3306
 5692TIP3   OH241270   7.397   7.147  12.200  0.1467  0.2966 -0.4075
 5692TIP3    H141271   7.458   7.102  12.258  0.3885  1.4042  0.2250
 5692TIP3    H241272   7.438   7.232  12.183 -0.3717  0.3528 -1.4364
 5693TIP3   OH241273   6.507   4.646  13.120 -0.7281 -0.3203 -0.2611
 5693TIP3    H141274   6.584   4.590  13.127  0.2707  0.8152 -1.5274
 5693TIP3    H241275   6.441   4.604  13.175  0.5910 -1.6599  0.3558
 5694TIP3   OH241276   6.838   2.194  11.494 -0.3584 -0.1399  0.2934
 5694TIP3    H141277   6.928   2.192  11.525 -0.3826 -0.1617  0.3620
 5694TIP3    H241278   6.791   2.246  11.559 -0.6029 -0.9947  0.8199
 5695TIP3   OH241279   1.584   0.364  11.825  0.4988  0.4001  0.1332
 5695TIP3    H141280   1.554   0.387  11.737  0.6452 -0.0307 -0.0345
 5695TIP3    H241281   1.668   0.320  11.811 -0.6871 -2.0552  0.2400
 5696TIP3   OH241282   3.243   6.248  11.394  0.8202  0.3500 -0.3818
 5696TIP3    H141283   3.311   6.257  11.327  0.7864 -0.4520 -0.5218
 5696TIP3    H241284   3.242   6.155  11.416 -1.1229  0.1046 -1.3167
 5697TIP3   OH241285   4.577   6.870  12.179 -0.3111  0.5204  0.0157
 5697TIP3    H141286   4.541   6.869  12.090 -1.0661  1.6051  0.2846
 5697TIP3    H241287   4.665   6.906  12.170  0.3211 -1.0622 -0.4985
 5698TIP3   OH241288   5.180   4.368  12.653 -0.0451 -0.0027  0.5271
 5698TIP3    H141289   5.211   4.368  12.744 -0.2476  0.3499  0.6031
 5698TIP3    H241290   5.088   4.343  12.660  0.0871 -0.5374  0.3586
 5699TIP3   OH241291   6.344   2.143  10.600 -0.2823 -0.4040  0.5890
 5699TIP3    H141292   6.394   2.075  10.644 -0.3835  0.7318  2.6023
 5699TIP3    H241293   6.255   2.135  10.636 -0.4677  0.3024  0.3014
 5700TIP3   OH241294   5.450   5.011  12.536 -0.1831  0.3183  0.1343
 5700TIP3    H141295   5.445   5.107  12.528 -2.5809  0.3978  1.7519
 5700TIP3    H241296   5.383   4.988  12.600  0.2636 -2.4937 -0.2669
 5701TIP3   OH241297   4.441   7.317  11.148  0.6218  0.2552  0.1505
 5701TIP3    H141298   4.446   7.394  11.092 -1.0026 -0.1316 -0.5894
 5701TIP3    H241299   4.376   7.340  11.215 -0.3016 -0.6426 -0.4106
 5702TIP3   OH241300   1.702   4.460  11.324 -0.0799  0.1923 -0.4876
 5702TIP3    H141301   1.686   4.537  11.268 -2.9657 -0.2408 -0.3872
 5702TIP3    H241302   1.635   4.465  11.392 -2.1992 -3.7698 -1.9966
 5703TIP3   OH241303   3.661   5.307  11.476 -0.3701 -0.3839  0.4585
 5703TIP3    H141304   3.687   5.225  11.518  0.4319  0.2747  1.2840
 5703TIP3    H241305   3.743   5.347  11.448 -0.8312 -0.3984 -1.0128
 5704TIP3   OH241306   1.067   4.344  11.861  0.0929  0.4343  0.3174
 5704TIP3    H141307   1.128   4.283  11.903  0.4859  0.2207 -0.5293
 5704TIP3    H241308   1.121   4.420  11.838  0.1377  0.1075 -0.7358
 5705TIP3   OH241309   6.592   7.428  11.462  0.3623 -0.1878  0.0778
 5705TIP3    H141310   6.576   7.456  11.552  0.6416 -1.2984  0.4856
 5705TIP3    H241311   6.515   7.377  11.438  1.4436 -2.1831  0.6562
 5706TIP3   OH241312   0.579   4.973  13.172  0.2982  0.4641  0.0394
 5706TIP3    H141313   0.498   4.954  13.219 -0.5377  0.9377 -1.1565
 5706TIP3    H241314   0.646   4.979  13.241 -0.5183 -0.7191  0.9752
 5707TIP3   OH241315   4.780   2.411  12.515  0.0883 -0.1331 -0.2682
 5707TIP3    H141316   4.792   2.378  12.604  0.0539 -0.4830 -0.3912
 5707TIP3    H241317   4.685   2.423  12.507 -0.0318 -1.2167 -0.6430
 5708TIP3   OH241318   7.246   1.658  11.880  0.3856  0.1669  0.0143
 5708TIP3    H141319   7.257   1.566  11.904 -0.8644  0.4105  1.6574
 5708TIP3    H241320   7.239   1.704  11.963 -5.2106  0.9493 -0.5254
 5709TIP3   OH241321   6.039   3.886  11.557  0.3276  0.2075 -0.1114
 5709TIP3    H141322   5.978   3.832  11.606  1.1219 -0.3046  0.3430
 5709TIP3    H241323   6.050   3.965  11.611 -0.8687  0.8645 -0.7982
 5710TIP3   OH241324   2.380   7.596  11.784  0.3671 -0.4257 -0.0348
 5710TIP3    H141325   2.292   7.566  11.802  0.2653 -0.8037 -1.1352
 5710TIP3    H241326   2.437   7.530  11.824  0.1997  0.4969  1.8520
 5711TIP3   OH241327   6.931   0.909  12.586 -0.1213  1.0371  0.1203
 5711TIP3    H141328   6.865   0.958  12.537 -0.1285 -0.1131 -1.0823
 5711TIP3    H241329   7.010   0.914  12.532 -0.5750 -1.6479 -0.9422
 5712TIP3   OH241330   0.630   2.915  13.136  0.6912  0.0408 -0.3200
 5712TIP3    H141331   0.556   2.958  13.095  0.0767 -1.1808 -0.5423
 5712TIP3    H241332   0.591   2.845  13.190  1.6601 -0.5786 -0.3829
 5713TIP3   OH241333   2.017   7.317  12.518 -0.7195 -0.0950  0.0878
 5713TIP3    H141334   2.039   7.303  12.610  1.7291  2.0407 -0.0834
 5713TIP3    H241335   1.984   7.406  12.514 -0.3019  0.0238 -1.1792
 5714TIP3   OH241336   3.242   2.571  11.822  0.6725 -0.1579 -0.4051
 5714TIP3    H141337   3.190   2.640  11.780  0.8080  0.4979  0.4914
 5714TIP3    H241338   3.241   2.593  11.915  2.6581 -0.0492 -0.3628
 5715TIP3   OH241339   6.072   6.369  11.906  0.4869  0.3045  0.5219
 5715TIP3    H141340   6.012   6.304  11.869  3.5178 -1.5051 -1.7224
 5715TIP3    H241341   6.070   6.352  12.000 -1.7778 -0.2407  0.4441
 5716TIP3   OH241342   4.386   7.472  10.754  0.4624  0.3129 -0.0938
 5716TIP3    H141343   4.474   7.455  10.788  0.6936 -0.0138 -0.8599
 5716TIP3    H241344   4.392   7.456  10.660 -0.5690 -0.3142 -0.0685
 5717TIP3   OH241345   2.769   5.890  10.951 -0.8048 -0.8760  0.3853
 5717TIP3    H141346   2.773   5.794  10.945  0.0047 -0.9715  1.9110
 5717TIP3    H241347   2.857   5.915  10.981 -0.8590  0.4030 -0.4626
 5718TIP3   OH241348   1.229   0.976  12.838 -0.5472 -0.1117 -0.6834
 5718TIP3    H141349   1.316   0.968  12.879 -1.8032  0.2124  2.3141
 5718TIP3    H241350   1.219   1.070  12.824 -2.1683  0.5863  3.6218
 5719TIP3   OH241351   7.346   7.508  12.272  0.1962 -0.5463 -0.4885
 5719TIP3    H141352   7.288   7.464  12.336  1.2921 -1.9354 -0.3911
 5719TIP3    H241353   7.300   7.499  12.189 -0.1721 -0.8200 -0.2611
 5720TIP3   OH241354   3.213   0.610  12.106 -0.3179  0.4214 -0.4578
 5720TIP3    H141355   3.211   0.626  12.201 -1.7999  0.7614 -0.5190
 5720TIP3    H241356   3.292   0.655  12.076 -0.5103  1.3964  0.4473
 5721TIP3   OH241357   6.805   6.547  11.944 -0.4994 -0.0668  0.2431
 5721TIP3    H141358   6.749   6.480  11.983 -3.0579 -0.1438 -3.0976
 5721TIP3    H241359   6.765   6.630  11.970 -2.6092 -0.1262 -2.4277
 5722TIP3   OH241360   6.297   7.484  11.612  0.5536  0.0646 -0.8543
 5722TIP3    H141361   6.332   7.409  11.564  0.0265 -0.6435 -0.1564
 5722TIP3    H241362   6.243   7.445  11.681  2.2822  1.0048  1.1371
 5723TIP3   OH241363   0.454   4.656  11.597 -0.1948  0.2452  0.7343
 5723TIP3    H141364   0.400   4.588  11.555 -1.8640  2.2530 -0.5519
 5723TIP3    H241365   0.532   4.609  11.627 -1.9227 -2.5269  1.2799
 5724TIP3   OH241366   2.016   2.886  12.151  0.3041  0.3352 -0.2636
 5724TIP3    H141367   2.025   2.908  12.058  0.5431  1.7128  0.0594
 5724TIP3    H241368   2.066   2.954  12.196 -0.4681  0.1374  0.9216
 5725TIP3   OH241369   3.118   1.561  11.886  0.0505 -0.0598  0.0945
 5725TIP3    H141370   3.047   1.572  11.949 -0.2801 -0.5863 -0.1779
 5725TIP3    H241371   3.174   1.637  11.899 -1.3093  1.1130 -0.6552
 5726TIP3   OH241372   0.969   2.718  10.720  0.2280  0.2896 -0.2431
 5726TIP3    H141373   0.945   2.653  10.654  1.7993 -1.5640  0.8845
 5726TIP3    H241374   1.032   2.775  10.677  0.6636 -0.4319 -0.5761
 5727TIP3   OH241375   4.095   3.821  11.069  0.3228  0.1824 -0.1795
 5727TIP3    H141376   4.062   3.909  11.048  0.3169  0.0990 -0.5255
 5727TIP3    H241377   4.157   3.801  11.000 -0.0599 -0.2969 -0.3912
 5728TIP3   OH241378   2.346   4.602  11.227  0.3899 -0.3412  0.2435
 5728TIP3    H141379   2.390   4.520  11.249  0.9031  0.0382  0.6467
 5728TIP3    H241380   2.254   4.585  11.245  0.4758 -0.8632  0.2225
 5729TIP3   OH241381   0.710   0.904  11.134 -0.0505 -0.0290  0.4953
 5729TIP3    H141382   0.769   0.955  11.190  1.4355 -1.1543  0.0235
 5729TIP3    H241383   0.652   0.859  11.195 -1.1226  1.8395  0.9383
 5730TIP3   OH241384   7.568   4.050  10.479 -0.1091 -0.1027  0.6519
 5730TIP3    H141385   7.531   3.965  10.455 -0.2421  0.5813 -1.7708
 5730TIP3    H241386   7.496   4.097  10.519 -1.2979  0.3589 -1.8765
 5731TIP3   OH241387   2.736   0.281  12.456 -0.1878  0.1975  0.3370
 5731TIP3    H141388   2.726   0.251  12.365  1.5132 -1.5857  0.6749
 5731TIP3    H241389   2.684   0.219  12.507 -1.2115  1.2499  0.6318
 5732TIP3   OH241390   4.436   5.475  12.427 -0.0185  0.3487 -0.4066
 5732TIP3    H141391   4.359   5.487  12.483  0.6637 -0.5396  0.7650
 5732TIP3    H241392   4.426   5.387  12.390  0.4051  0.2523 -0.2965
 5733TIP3   OH241393   3.588   3.364  11.921 -0.0397 -0.7379  0.3903
 5733TIP3    H141394   3.553   3.324  11.841 -1.7668 -0.8473  1.1617
 5733TIP3    H241395   3.598   3.291  11.982 -0.3808 -0.4065  0.8427
 5734TIP3   OH241396   7.393   1.336  11.438 -0.0612  0.2701  0.0380
 5734TIP3    H141397   7.472   1.387  11.458 -0.5095  0.8879  0.2534
 5734TIP3    H241398   7.322   1.386  11.478 -0.5366 -0.3930  0.0181
 5735TIP3   OH241399   7.625   6.548  11.022 -0.1101 -0.4462 -0.0241
 5735TIP3    H141400   7.532   6.536  11.041  0.3268 -2.8391  0.9410
 5735TIP3    H241401   7.636   6.512  10.934  0.1063 -1.5192  0.4199
 5736TIP3   OH241402   4.309   5.028  12.113 -0.2461 -1.3506 -0.5019
 5736TIP3    H141403   4.389   5.049  12.065  0.2621 -1.0226  0.4461
 5736TIP3    H241404   4.325   5.061  12.202 -1.5522 -1.0201 -0.3628
 5737TIP3   OH241405   4.923   6.891  11.702  0.4317 -0.6491  0.2246
 5737TIP3    H141406   4.893   6.982  11.701  1.6261 -0.2275  1.0889
 5737TIP3    H241407   4.961   6.877  11.616 -0.1843 -0.4839 -0.0792
 5738TIP3   OH241408   5.339   6.729  10.895 -0.1539 -0.5182  0.2162
 5738TIP3    H141409   5.323   6.768  10.809  0.2979 -0.3677  0.1990
 5738TIP3    H241410   5.263   6.754  10.948  0.4739  1.0062  0.4277
 5739TIP3   OH241411   6.618   4.790  10.804  0.2810 -0.1778 -0.4988
 5739TIP3    H141412   6.689   4.736  10.770  0.8811  1.0864 -1.3595
 5739TIP3    H241413   6.634   4.877  10.765 -1.6483  0.1746 -0.5979
 5740TIP3   OH241414   6.059   3.470  11.776 -0.0242  0.1271 -0.4060
 5740TIP3    H141415   6.035   3.379  11.760  2.5798 -0.7912  0.4908
 5740TIP3    H241416   6.031   3.516  11.697 -0.3633 -1.6502 -1.3787
 5741TIP3   OH241417   3.772   1.685  10.950 -0.4965 -0.1546  0.1493
 5741TIP3    H141418   3.856   1.703  10.907 -1.8567  0.1318 -2.5940
 5741TIP3    H241419   3.762   1.757  11.013  0.1273  1.3159 -1.3557
 5742TIP3   OH241420   2.453   6.378  11.948  0.0471  0.0628  0.0735
 5742TIP3    H141421   2.496   6.309  11.897  1.6367 -0.8018  2.4167
 5742TIP3    H241422   2.378   6.334  11.988  0.7131 -0.1758  1.0844
 5743TIP3   OH241423   6.810   1.456  19.036  0.6937 -0.2439  0.2782
 5743TIP3    H141424   6.901   1.454  19.068  0.9538 -0.9959 -0.4807
 5743TIP3    H241425   6.812   1.407  18.954 -0.0091  1.4708 -0.8151
 5744TIP3   OH241426   3.670   6.448  10.800 -0.3032 -0.1683  0.7556
 5744TIP3    H141427   3.751   6.493  10.776  0.2012 -0.9209  1.0213
 5744TIP3    H241428   3.645   6.401  10.721  0.7610 -1.7545  1.3091
 5745TIP3   OH241429   5.348   7.609  12.456 -0.2529  0.1395  0.0003
 5745TIP3    H141430   5.329   7.658  12.375  2.6570  1.1100 -0.2108
 5745TIP3    H241431   5.408   7.666  12.504  0.7363 -1.8690  1.2617
 5746TIP3   OH241432   5.820   0.205  12.164 -0.1037 -0.0380  0.5117
 5746TIP3    H141433   5.820   0.231  12.072  2.0466 -0.8598  0.2037
 5746TIP3    H241434   5.832   0.286  12.213  1.1387  0.1855 -0.1124
 5747TIP3   OH241435   0.905   6.020  13.326 -0.2769 -0.6355 -0.2070
 5747TIP3    H141436   0.951   6.051  13.404  1.0137 -2.1231 -0.3198
 5747TIP3    H241437   0.868   5.935  13.352  0.4443 -1.3040 -1.2772
 5748TIP3   OH241438   1.867   4.192  12.305 -0.5223  0.1453  0.2958
 5748TIP3    H141439   1.897   4.101  12.308  0.4763  0.4317 -0.4027
 5748TIP3    H241440   1.890   4.228  12.391  0.3867  0.1139  0.0810
 5749TIP3   OH241441   1.267   1.805  10.694 -0.7052 -0.2533 -0.3176
 5749TIP3    H141442   1.232   1.724  10.657  1.6535 -0.8431 -1.4884
 5749TIP3    H241443   1.296   1.782  10.782 -0.5394 -0.5642 -0.4519
 5750TIP3   OH241444   6.362   2.541  11.862 -0.0711 -0.0465  0.3429
 5750TIP3    H141445   6.292   2.539  11.928 -1.0374  1.1618 -0.6112
 5750TIP3    H241446   6.414   2.618  11.884  0.2040 -0.2146  0.2837
 5751TIP3   OH241447   2.658   1.356  11.503  0.2476  0.0166 -0.2166
 5751TIP3    H141448   2.656   1.400  11.588  0.7644  1.1561 -0.7766
 5751TIP3    H241449   2.718   1.282  11.516  1.9507  1.3686 -0.1283
 5752TIP3   OH241450   4.875   2.075  12.941  0.1998  0.1069 -0.1202
 5752TIP3    H141451   4.798   2.056  12.887 -0.0705 -0.9387  0.5999
 5752TIP3    H241452   4.929   1.997  12.934  0.5154  0.2658  0.5185
 5753TIP3   OH241453   1.384   0.981  11.701  0.4199 -0.1581  0.3210
 5753TIP3    H141454   1.302   0.995  11.748  0.8818  1.6797  0.6468
 5753TIP3    H241455   1.365   1.009  11.611  1.2943  2.7257  0.9326
 5754TIP3   OH241456   5.691   0.032  12.677 -0.3262 -0.2377  0.0053
 5754TIP3    H141457   5.632   0.080  12.619 -1.4344  0.7192  1.8338
 5754TIP3    H241458   5.779   0.055  12.646 -0.8533  1.7280 -0.1537
 5755TIP3   OH241459   2.433   0.921  12.139  0.8461 -0.6105  0.2371
 5755TIP3    H141460   2.383   0.906  12.059  2.1103 -0.3697 -0.6376
 5755TIP3    H241461   2.520   0.946  12.108  1.3382 -0.4174  1.6970
 5756TIP3   OH241462   2.068   1.596  11.915  0.3264 -0.1849 -0.2187
 5756TIP3    H141463   2.087   1.521  11.972  2.0202  0.7069  0.4693
 5756TIP3    H241464   1.979   1.622  11.939  0.5459 -0.6015  1.1224
 5757TIP3   OH241465   1.145   2.084  12.075 -0.0040 -0.3887  0.0263
 5757TIP3    H141466   1.063   2.067  12.121 -0.4750 -1.1509 -1.0542
 5757TIP3    H241467   1.119   2.097  11.984  0.9028  1.0879 -0.0496
 5758TIP3   OH241468   2.114   2.943  11.918 -0.3074 -0.2017 -0.1084
 5758TIP3    H141469   2.191   3.000  11.918 -0.4875  0.2224 -3.0125
 5758TIP3    H241470   2.040   3.002  11.909 -0.8090 -0.7100  0.6324
 5759TIP3   OH241471   4.028   4.244  11.536  0.4319 -0.3332 -0.4179
 5759TIP3    H141472   4.062   4.167  11.583  1.8208  0.8346  0.5638
 5759TIP3    H241473   4.013   4.309  11.605 -0.9564  0.2267 -1.2090
 5760TIP3   OH241474   1.130   0.221  12.180  0.1091 -0.4293 -0.7487
 5760TIP3    H141475   1.214   0.176  12.193 -0.7576 -2.1690 -0.9368
 5760TIP3    H241476   1.092   0.179  12.103 -1.3435 -0.2666 -0.1435
 5761TIP3   OH241477   5.031   4.655  12.406  0.0733 -0.4391  0.3161
 5761TIP3    H141478   4.970   4.648  12.334  0.9794  1.2602 -0.6871
 5761TIP3    H241479   5.012   4.740  12.446  0.7547 -0.5770  0.9690
 5762TIP3   OH241480   4.583   1.404  11.343 -0.3828 -0.9154 -0.4245
 5762TIP3    H141481   4.675   1.395  11.368 -0.2498  0.2068 -0.4380
 5762TIP3    H241482   4.540   1.327  11.381  0.6129 -1.6291 -0.7094
 5763TIP3   OH241483   1.344   5.360  11.286  0.6191 -0.2510 -0.6467
 5763TIP3    H141484   1.415   5.368  11.350  0.9109 -0.0229 -0.9993
 5763TIP3    H241485   1.356   5.434  11.227  1.4656 -1.4944 -2.0757
 5764TIP3   OH241486   2.473   1.548  13.010 -0.2901  0.2859  0.0415
 5764TIP3    H141487   2.441   1.467  12.970 -1.1156  0.8940 -0.5678
 5764TIP3    H241488   2.548   1.574  12.957  0.1169 -0.1909  0.3757
 5765TIP3   OH241489   7.600   5.643  11.583 -0.1751 -0.2706 -0.7031
 5765TIP3    H141490   7.667   5.654  11.515 -0.1595 -1.1023 -0.8383
 5765TIP3    H241491   7.567   5.554  11.569  1.3339 -1.2891  1.7003
 5766TIP3   OH241492   2.451   6.876  12.761 -0.4783  0.0312 -0.4519
 5766TIP3    H141493   2.522   6.865  12.825 -1.7364  0.5596  1.1186
 5766TIP3    H241494   2.442   6.790  12.720  0.0045 -0.4933  0.5058
 5767TIP3   OH241495   1.282   3.153  10.757  0.0222  0.3400 -1.0923
 5767TIP3    H141496   1.219   3.109  10.815  1.1032 -0.7164 -0.6789
 5767TIP3    H241497   1.307   3.232  10.804 -0.3092  0.2975 -0.8417
 5768TIP3   OH241498   6.868   0.461  11.759  0.2968 -0.3009  0.2622
 5768TIP3    H141499   6.900   0.414  11.836  0.5876 -1.0750 -0.3155
 5768TIP3    H241500   6.844   0.392  11.698  0.5718  0.3117 -0.5511
 5769TIP3   OH241501   6.949   3.867  13.258  0.3357  0.5633 -0.3842
 5769TIP3    H141502   7.035   3.826  13.262  0.2955  0.4878 -0.2625
 5769TIP3    H241503   6.899   3.823  13.327  0.1529  0.4980 -0.5608
 5770TIP3   OH241504   1.713   7.551  10.881 -0.1825  0.1336  0.0791
 5770TIP3    H141505   1.655   7.622  10.909 -0.6461 -0.6205  1.0986
 5770TIP3    H241506   1.671   7.472  10.913  0.1612 -0.6410 -1.3380
 5771TIP3   OH241507   3.688   4.285  12.076  0.3407 -0.5545 -0.8683
 5771TIP3    H141508   3.741   4.311  12.151  0.6360 -0.3475 -1.1494
 5771TIP3    H241509   3.664   4.194  12.094 -1.1560  0.0401  0.3950
 5772TIP3   OH241510   0.945   0.710  11.970 -0.1683  0.0882  0.2849
 5772TIP3    H141511   0.859   0.739  11.940  0.6392  2.0299 -0.3759
 5772TIP3    H241512   0.986   0.790  12.004  0.4875 -1.2554  2.8933
 5773TIP3   OH241513   6.502   3.435  13.047 -0.2633  0.2252 -0.6742
 5773TIP3    H141514   6.517   3.511  13.103  0.5201 -0.7866  0.5449
 5773TIP3    H241515   6.475   3.472  12.963 -1.1800  1.7886  0.2703
 5774TIP3   OH241516   6.319   6.554  11.922 -0.3791 -0.6169 -0.0998
 5774TIP3    H141517   6.227   6.532  11.934 -0.4914 -0.0640  0.0887
 5774TIP3    H241518   6.366   6.477  11.955 -0.7778 -1.2316 -0.9443
 5775TIP3   OH241519   5.894   3.412  12.183 -0.3000  0.0231  0.3478
 5775TIP3    H141520   5.941   3.425  12.265 -0.1354  1.3757  0.0651
 5775TIP3    H241521   5.937   3.336  12.143 -1.1010 -1.3641  1.9751
 5776TIP3   OH241522   5.765   2.141  11.347 -0.2209 -0.1603  0.5128
 5776TIP3    H141523   5.673   2.119  11.331 -0.8105  1.3834  1.5852
 5776TIP3    H241524   5.812   2.106  11.271 -1.6992 -0.8771 -0.1019
 5777TIP3   OH241525   7.518   3.311  10.764  0.3345  0.0867  0.1433
 5777TIP3    H141526   7.521   3.407  10.759  2.7148  0.0224 -1.1826
 5777TIP3    H241527   7.498   3.283  10.675  2.2762 -0.6358 -0.1202
 5778TIP3   OH241528   6.948   2.044  12.397 -0.0531 -0.3033  0.0045
 5778TIP3    H141529   6.936   1.950  12.387  1.5962 -0.3274 -2.8836
 5778TIP3    H241530   6.903   2.082  12.321  1.5751  0.9535 -0.4066
 5779TIP3   OH241531   5.237   3.639  12.294 -0.2847  0.1522  0.0513
 5779TIP3    H141532   5.150   3.670  12.271 -0.5847  0.1793  1.1958
 5779TIP3    H241533   5.242   3.551  12.255 -0.8525  0.1167  0.0525
 5780TIP3   OH241534   7.085   5.193  13.060 -0.7019 -0.3366  0.2274
 5780TIP3    H141535   7.169   5.237  13.077 -0.8070 -0.2825  0.6032
 5780TIP3    H241536   7.026   5.226  13.128 -1.3182  0.4038 -0.6428
 5781TIP3   OH241537   3.380   1.060  12.684 -0.4576 -0.0398  0.2031
 5781TIP3    H141538   3.317   1.071  12.613 -0.2636  0.7987  0.1511
 5781TIP3    H241539   3.351   0.982  12.731 -1.4881  0.2994  0.1392
 5782TIP3   OH241540   1.168   0.554  11.073  0.0253 -0.0722  0.1300
 5782TIP3    H141541   1.191   0.644  11.050  0.3607 -0.5555 -1.5354
 5782TIP3    H241542   1.248   0.504  11.058 -0.5487 -0.8696 -0.3197
 5783TIP3   OH241543   7.220   7.350  11.201  0.0053 -0.1681  0.1699
 5783TIP3    H141544   7.313   7.349  11.226 -0.5494  0.7322  2.5325
 5783TIP3    H241545   7.178   7.294  11.266 -1.2584  0.3575 -0.1714
 5784TIP3   OH241546   4.161   3.268  11.696  0.4749 -0.5104 -0.0722
 5784TIP3    H141547   4.218   3.321  11.640 -0.2110 -0.2940 -0.5734
 5784TIP3    H241548   4.202   3.273  11.782  0.7160  0.4033 -0.2212
 5785TIP3   OH241549   5.986   3.202  12.010 -0.0318 -0.1029  0.6964
 5785TIP3    H141550   5.997   3.216  11.916 -1.6989  0.7091  0.5857
 5785TIP3    H241551   6.024   3.115  12.026  0.0991 -0.3382 -0.7504
 5786TIP3   OH241552   4.960   2.851  11.854 -0.0995  0.7453  0.0385
 5786TIP3    H141553   5.049   2.885  11.847 -0.5786  1.8532 -1.2223
 5786TIP3    H241554   4.968   2.757  11.839  0.8025  0.9145 -0.6083
 5787TIP3   OH241555   3.912   1.097  11.163 -0.0439  0.0330  0.2958
 5787TIP3    H141556   3.900   1.164  11.230  0.6741 -0.2395  0.7059
 5787TIP3    H241557   4.006   1.092  11.150 -0.1580 -0.0864 -0.5695
 5788TIP3   OH241558   2.524   3.726  13.034 -0.3640  0.3684  0.0109
 5788TIP3    H141559   2.515   3.804  13.088 -0.6808  0.0340  0.4440
 5788TIP3    H241560   2.468   3.661  13.076  0.1706 -0.2006 -0.1453
 5789TIP3   OH241561   6.482   1.971  12.654  0.3010 -0.2698  0.3795
 5789TIP3    H141562   6.392   1.957  12.628  0.6292 -0.0868 -0.9230
 5789TIP3    H241563   6.477   2.030  12.729 -0.6327 -0.0178  0.1229
 5790TIP3   OH241564   2.425   4.004  13.060  0.1001 -0.0406  0.7751
 5790TIP3    H141565   2.484   4.054  13.004 -0.9591  1.0235  0.5660
 5790TIP3    H241566   2.354   3.978  13.001 -0.5394  0.2566  1.4055
 5791TIP3   OH241567   2.668   7.239  11.406  0.5060  0.2969  0.5490
 5791TIP3    H141568   2.706   7.183  11.338 -1.3976  0.4150 -0.7107
 5791TIP3    H241569   2.575   7.215  11.406  0.1773  1.4735  1.9914
 5792TIP3   OH241570   3.088   6.174  10.835 -0.0434 -0.6329  0.1309
 5792TIP3    H141571   3.162   6.225  10.801  0.2586 -0.9441  0.3163
 5792TIP3    H241572   3.128   6.092  10.866 -0.2419 -0.1822  1.6531
 5793TIP3   OH241573   5.469   4.988  12.975  0.4864  0.0848  0.3626
 5793TIP3    H141574   5.406   5.043  12.929  2.2026  0.3102 -1.8786
 5793TIP3    H241575   5.454   5.007  13.068 -0.4250  2.7082 -0.2400
 5794TIP3   OH241576   7.639   5.776  10.813  0.1014 -0.7969  0.0402
 5794TIP3    H141577   7.691   5.812  10.884  1.0551  1.1060 -1.5180
 5794TIP3    H241578   7.690   5.701  10.782 -0.1803 -1.4626  1.1344
 5795TIP3   OH241579   6.776   7.086  11.764  0.0992 -0.2497  0.2848
 5795TIP3    H141580   6.730   7.080  11.680  0.3663 -0.0937  0.1246
 5795TIP3    H241581   6.731   7.024  11.821 -0.8876  0.5426  0.4049
 5796TIP3   OH241582   4.270   5.435  10.652 -0.0281  0.1723  0.3106
 5796TIP3    H141583   4.188   5.481  10.673  0.9882  1.2109  2.2796
 5796TIP3    H241584   4.245   5.343  10.649 -1.4411  0.5342 -0.0554
 5797TIP3   OH241585   6.084   7.101  11.752  0.2099 -0.5787 -0.1866
 5797TIP3    H141586   6.096   7.115  11.846 -1.7253  0.3188 -0.0363
 5797TIP3    H241587   6.168   7.065  11.723  1.8537  1.7045  1.3553
 5798TIP3   OH241588   4.278   3.794  12.207 -0.1797  0.1082  0.5339
 5798TIP3    H141589   4.225   3.861  12.249 -0.6437  0.5436 -0.7023
 5798TIP3    H241590   4.368   3.827  12.215 -0.2136  0.0084  1.4682
 5799TIP3   OH241591   2.766   5.780  12.901 -0.1103 -0.2708 -0.1154
 5799TIP3    H141592   2.839   5.828  12.861 -0.8356 -0.7070 -2.0645
 5799TIP3    H241593   2.707   5.848  12.934  0.3917  0.1090  0.0131
 5800TIP3   OH241594   0.542   4.919  11.177  0.1628 -0.2900  0.2723
 5800TIP3    H141595   0.594   4.894  11.253  0.9147 -0.0857 -0.1611
 5800TIP3    H241596   0.537   4.839  11.124  2.2473  0.2807 -0.9290
 5801TIP3   OH241597   4.909   3.744  12.741  0.2785  0.5378  0.2678
 5801TIP3    H141598   4.861   3.714  12.818 -0.6357  0.6584 -0.2462
 5801TIP3    H241599   4.903   3.839  12.744 -0.1505  0.5312 -0.1875
 5802TIP3   OH241600   6.098   6.662  11.679  0.0486  0.1480  0.0256
 5802TIP3    H141601   6.032   6.597  11.652  1.0881 -1.7842  1.8445
 5802TIP3    H241602   6.161   6.663  11.607 -1.4669  1.4420 -1.3769
 5803TIP3   OH241603   4.231   5.738  12.918 -0.7144 -0.5720  0.2551
 5803TIP3    H141604   4.299   5.699  12.863 -0.1492  0.7163  0.0161
 5803TIP3    H241605   4.173   5.782  12.857 -0.2468  0.6168  0.6362
 5804TIP3   OH241606   4.251   3.854  13.026 -0.0625 -0.4076 -0.4778
 5804TIP3    H141607   4.255   3.898  12.941 -0.0336 -2.1944 -1.4463
 5804TIP3    H241608   4.180   3.897  13.072 -0.2169  0.4553 -1.4907
 5805TIP3   OH241609   0.766   5.985  10.301  0.8654  0.3932 -0.0793
 5805TIP3    H141610   0.744   5.932  10.224  0.1684 -1.4474  1.3250
 5805TIP3    H241611   0.858   6.010  10.287  0.7254  0.1724 -1.5386
 5806TIP3   OH241612   4.613   7.235  12.149 -0.2150 -0.4031  0.0330
 5806TIP3    H141613   4.621   7.238  12.244  0.8617  0.5524 -0.0650
 5806TIP3    H241614   4.650   7.319  12.119  0.6388 -1.2136 -1.2992
 5807TIP3   OH241615   5.488   3.671  12.643 -0.0546  0.4340  0.6954
 5807TIP3    H141616   5.407   3.719  12.624  0.2283  0.4368 -0.6007
 5807TIP3    H241617   5.502   3.685  12.737 -1.2583  0.8853  0.8316
 5808TIP3   OH241618   2.781   0.678  10.804 -0.3987  0.0639 -0.8303
 5808TIP3    H141619   2.831   0.737  10.860 -2.3384  0.2986  0.7384
 5808TIP3    H241620   2.717   0.734  10.760 -1.3731 -0.6506 -0.3555
 5809TIP3   OH241621   0.627   3.280  10.790  0.5766 -0.3121 -0.1331
 5809TIP3    H141622   0.712   3.320  10.772 -0.8341  4.1652  1.8990
 5809TIP3    H241623   0.580   3.283  10.707  0.3839  3.0697 -0.0236
 5810TIP3   OH241624   5.347   7.328  10.896 -0.4328  0.5372 -0.1402
 5810TIP3    H141625   5.300   7.250  10.867 -0.9629  0.0124  1.9167
 5810TIP3    H241626   5.395   7.300  10.974  0.2472  2.0063  0.0174
 5811TIP3   OH241627   0.364   1.956  11.487 -0.4193 -0.1685  0.1204
 5811TIP3    H141628   0.290   1.960  11.426 -0.8613  0.3973  0.6750
 5811TIP3    H241629   0.324   1.930  11.571 -0.2023  1.3571  0.7287
 5812TIP3   OH241630   0.173   4.432  11.794 -0.1869  0.3146 -0.2319
 5812TIP3    H141631   0.210   4.363  11.849  1.4884 -0.0097 -1.6757
 5812TIP3    H241632   0.202   4.514  11.834 -0.0688  0.1183  0.0875
 5813TIP3   OH241633   7.674   0.467  11.968 -0.2122 -0.0740 -0.4022
 5813TIP3    H141634   7.755   0.471  12.019 -0.6725  1.9963  0.2364
 5813TIP3    H241635   7.673   0.378  11.933  0.7691 -1.1449  2.1014
 5814TIP3   OH241636   1.403   5.042  11.233 -0.0869 -0.3780  0.1553
 5814TIP3    H141637   1.319   5.002  11.210 -0.5861 -0.3462  1.8278
 5814TIP3    H241638   1.380   5.122  11.280  0.8984  0.1081 -0.1536
 5815TIP3   OH241639   2.164   0.419  11.420  0.1210  0.4644  0.1942
 5815TIP3    H141640   2.206   0.496  11.381 -1.0982  0.8406 -0.4201
 5815TIP3    H241641   2.237   0.366  11.453  0.9965  1.6945  0.2939
 5816TIP3   OH241642   2.320   6.899  12.098 -0.0973  0.0350 -0.1302
 5816TIP3    H141643   2.242   6.845  12.088 -0.8062  1.0344 -0.0863
 5816TIP3    H241644   2.355   6.907  12.009  0.8794 -1.7310  0.0620
 5817TIP3   OH241645   4.497   1.755  11.415  0.1003  0.1133 -0.5252
 5817TIP3    H141646   4.504   1.749  11.320  1.7268 -0.8035 -0.3924
 5817TIP3    H241647   4.403   1.755  11.433 -0.2230 -0.0589 -2.1149
 5818TIP3   OH241648   6.661   4.519  13.511  0.0094  0.6087 -0.1335
 5818TIP3    H141649   6.623   4.460  13.575  0.8421 -0.5162 -0.6439
 5818TIP3    H241650   6.586   4.552  13.460 -0.6248  1.2975  1.2005
 5819TIP3   OH241651   6.583   4.772  12.291 -0.0045 -0.4613 -0.6038
 5819TIP3    H141652   6.626   4.708  12.349  1.7706 -1.3939 -2.8221
 5819TIP3    H241653   6.524   4.720  12.238 -1.5420  0.3770  0.2145
 5820TIP3   OH241654   5.602   6.767  10.581  0.4875  0.3400  0.0750
 5820TIP3    H141655   5.597   6.732  10.670 -0.1313 -0.9883 -0.4594
 5820TIP3    H241656   5.693   6.797  10.572  1.0698 -1.2162  0.5490
 5821TIP3   OH241657   5.689   3.563  11.306  0.0504 -0.0651  0.7433
 5821TIP3    H141658   5.595   3.542  11.309  0.2393 -0.9014  1.1281
 5821TIP3    H241659   5.695   3.652  11.339 -0.3832 -0.8483  3.1394
 5822TIP3   OH241660   2.286   6.852  11.804  0.3516 -0.0483 -0.4374
 5822TIP3    H141661   2.276   6.767  11.847 -0.7617 -0.0177 -0.6259
 5822TIP3    H241662   2.221   6.851  11.734  0.9900  0.5838 -1.0554
 5823TIP3   OH241663   0.074   3.326  13.306  0.1578 -0.2104 -0.3027
 5823TIP3    H141664  -0.021   3.332  13.298  0.0190  0.1655  1.3226
 5823TIP3    H241665   0.090   3.237  13.336  0.3879 -0.5182 -1.3205
 5824TIP3   OH241666   7.488   3.586  13.000  0.9214  0.1935 -0.2187
 5824TIP3    H141667   7.467   3.661  13.057  1.1364  1.4041 -1.6772
 5824TIP3    H241668   7.581   3.570  13.016  0.4988 -0.9573  1.4016
 5825TIP3   OH241669   2.486   7.381  11.904 -0.1859 -0.2207  0.0104
 5825TIP3    H141670   2.395   7.375  11.933  0.6837 -0.0658  3.1934
 5825TIP3    H241671   2.521   7.293  11.917  0.5707  0.1570  0.6112
 5826TIP3   OH241672   0.491   0.166  12.529 -1.2414  0.3494 -0.2730
 5826TIP3    H141673   0.547   0.208  12.464 -1.9032  0.6666 -0.6567
 5826TIP3    H241674   0.490   0.074  12.504  1.1184 -0.1733  1.2295
 5827TIP3   OH241675   0.509   7.185  10.736 -0.2735 -0.7140 -0.1574
 5827TIP3    H141676   0.573   7.132  10.783  1.3224  1.7581  0.6511
 5827TIP3    H241677   0.442   7.206  10.801 -0.4640 -1.0289 -0.2499
 5828TIP3   OH241678   1.837   4.032  10.908  0.0918 -0.9213  0.5123
 5828TIP3    H141679   1.757   3.982  10.891  0.1392 -0.9563  0.3923
 5828TIP3    H241680   1.808   4.121  10.924  0.2050 -0.4182 -1.8124
 5829TIP3   OH241681   4.348   5.770  11.430  0.1040  0.5062 -0.3326
 5829TIP3    H141682   4.380   5.859  11.422  0.0275  0.6204  0.4977
 5829TIP3    H241683   4.395   5.721  11.363  1.5795  0.7889  0.4532
 5830TIP3   OH241684   4.588   3.134  12.600 -0.3033  0.0287  0.4343
 5830TIP3    H141685   4.541   3.132  12.517  0.7155 -0.2748 -0.1468
 5830TIP3    H241686   4.542   3.071  12.655 -0.6270 -0.2043 -0.0964
 5831TIP3   OH241687   3.548   7.538  10.831  0.0274  0.0131  0.0786
 5831TIP3    H141688   3.497   7.496  10.762 -0.0228  1.6232 -0.9031
 5831TIP3    H241689   3.489   7.541  10.906 -0.3124 -0.7278 -0.1526
 5832TIP3   OH241690   5.295   1.574  11.425  0.1085 -0.1175 -0.5428
 5832TIP3    H141691   5.322   1.501  11.370 -0.4104 -0.7456  0.0190
 5832TIP3    H241692   5.366   1.583  11.489 -0.9920 -1.8510  1.0127
 5833TIP3   OH241693   5.884   2.737  11.419 -0.6060  0.1887  0.1594
 5833TIP3    H141694   5.904   2.670  11.353  0.5193 -0.2007  0.8617
 5833TIP3    H241695   5.909   2.819  11.378  1.0963 -0.1484  0.4486
 5834TIP3   OH241696   6.546   0.898  11.185 -0.2355 -0.3026  0.0463
 5834TIP3    H141697   6.582   0.979  11.221  0.2128 -0.0168 -1.0029
 5834TIP3    H241698   6.623   0.845  11.164 -0.4594 -0.2645 -0.9120
 5835TIP3   OH241699   0.946   0.076  12.394  0.4502 -0.1127 -0.6770
 5835TIP3    H141700   1.017   0.084  12.458  0.3212  1.5889 -0.7088
 5835TIP3    H241701   0.968   0.138  12.325 -1.2183  0.7476 -0.5015
 5836TIP3   OH241702   2.421   6.858  10.834 -0.3518 -0.7094 -0.3407
 5836TIP3    H141703   2.330   6.858  10.806 -0.3001 -1.1064 -0.5109
 5836TIP3    H241704   2.417   6.840  10.928 -0.3000 -4.3052 -0.9139
 5837TIP3   OH241705   4.367   4.777  11.732 -0.6105  0.5145  0.5669
 5837TIP3    H141706   4.434   4.712  11.713 -1.8526  0.0075 -2.8175
 5837TIP3    H241707   4.415   4.859  11.744  0.6878 -0.0909 -0.3363
 5838TIP3   OH241708   5.464   5.263  10.904 -0.5198 -0.0498  0.1630
 5838TIP3    H141709   5.469   5.341  10.849 -0.3970  0.0788  0.3557
 5838TIP3    H241710   5.379   5.225  10.883 -1.1752  0.8787  1.0707
 5839TIP3   OH241711   5.868   2.886  12.222 -0.3843  0.0868 -0.1186
 5839TIP3    H141712   5.782   2.870  12.261  0.2843  1.2472  2.0308
 5839TIP3    H241713   5.863   2.977  12.192 -0.4885 -0.4312 -1.7671
 5840TIP3   OH241714   6.141   1.435  12.007 -0.0428  0.1300  0.3540
 5840TIP3    H141715   6.208   1.405  11.946 -1.4175  0.2592 -1.2893
 5840TIP3    H241716   6.152   1.530  12.008 -0.0735  0.1351  0.2421
 5841TIP3   OH241717   7.120   2.967  12.374 -0.2535  0.1181 -0.4180
 5841TIP3    H141718   7.131   2.901  12.305  0.2923  0.1236 -0.3455
 5841TIP3    H241719   7.029   2.958  12.401  0.3308 -2.2474  1.1830
 5842TIP3   OH241720   0.098   1.693  10.857  0.3358 -0.0484  0.1300
 5842TIP3    H141721   0.028   1.714  10.795  0.4476  0.4685  0.1800
 5842TIP3    H241722   0.091   1.598  10.869 -1.4506  0.2213  1.4668
 5843TIP3   OH241723   2.397   5.761  11.668 -0.1500  0.1990 -0.2079
 5843TIP3    H141724   2.432   5.672  11.665  1.2807  0.7504 -0.3829
 5843TIP3    H241725   2.309   5.750  11.705 -0.1181 -1.3140 -0.4990
 5844TIP3   OH241726   6.420   1.574  12.113  0.2072 -0.0623 -0.1130
 5844TIP3    H141727   6.483   1.559  12.042 -0.0855 -1.2950 -0.1326
 5844TIP3    H241728   6.444   1.509  12.180 -0.3279  0.2305  0.3667
 5845TIP3   OH241729   2.280   4.391  13.270  0.0218 -0.7376 -0.1574
 5845TIP3    H141730   2.249   4.303  13.248 -0.8592 -0.9687  1.8153
 5845TIP3    H241731   2.256   4.444  13.194  0.1800 -2.1019 -1.2013
 5846TIP3   OH241732   1.015   5.527  12.899 -0.3686 -0.0778 -0.0106
 5846TIP3    H141733   0.973   5.512  12.983 -1.6348 -0.4624 -0.6790
 5846TIP3    H241734   0.997   5.447  12.849  1.4136 -0.3628 -0.2457
 5847TIP3   OH241735   5.078   5.224  10.604 -0.0082 -0.5554  0.0920
 5847TIP3    H141736   5.016   5.210  10.533  0.6182  2.0603 -1.1019
 5847TIP3    H241737   5.136   5.293  10.571  1.3828 -0.4804  2.4992
 5848TIP3   OH241738   3.724   1.460  12.136 -0.0197  0.2349 -0.1491
 5848TIP3    H141739   3.779   1.390  12.102  0.5551 -0.6472  2.3766
 5848TIP3    H241740   3.644   1.416  12.165 -1.6444  1.3318 -2.6063
 5849TIP3   OH241741   4.378   4.124  11.751 -0.0036  0.1102 -0.7170
 5849TIP3    H141742   4.393   4.030  11.756 -0.9892 -0.0086  0.4622
 5849TIP3    H241743   4.283   4.133  11.742  0.0942  0.9877 -1.0212
 5850TIP3   OH241744   2.604   2.972  10.827 -0.3617  0.7876 -0.8682
 5850TIP3    H141745   2.681   2.994  10.773 -0.2585  1.7308 -0.3720
 5850TIP3    H241746   2.609   2.877  10.838  0.6553  0.8086 -0.9810
 5851TIP3   OH241747   4.639   3.355  11.963  0.5484  0.2873  0.0019
 5851TIP3    H141748   4.571   3.423  11.966 -0.4696 -0.7358  0.8073
 5851TIP3    H241749   4.627   3.313  11.879  0.4811  0.3941 -0.0423
 5852TIP3   OH241750   5.186   6.178  11.629 -0.1007  0.1523 -0.1062
 5852TIP3    H141751   5.238   6.251  11.662 -2.1388  1.5655  0.1165
 5852TIP3    H241752   5.205   6.106  11.690  2.3087  0.2833 -0.6125
 5853TIP3   OH241753   3.745   7.126  11.560 -0.1896  0.2852 -0.1036
 5853TIP3    H141754   3.732   7.097  11.650 -1.3784  1.9791  0.3323
 5853TIP3    H241755   3.814   7.069  11.525 -0.1414 -0.7986  1.6694
 5854TIP3   OH241756   3.006   2.626  12.082 -0.1011  0.4747 -1.1306
 5854TIP3    H141757   3.095   2.642  12.111 -0.5736 -1.0269  1.4794
 5854TIP3    H241758   2.955   2.698  12.120 -0.3400  0.0083 -0.5629
 5855TIP3   OH241759   6.560   7.617  12.486 -0.2467 -0.0384 -0.0783
 5855TIP3    H141760   6.625   7.625  12.555 -0.4338  0.8372  0.0151
 5855TIP3    H241761   6.580   7.690  12.427 -0.3753 -0.5030 -0.6984
 5856TIP3   OH241762   1.463   1.510  12.274  0.0524 -0.3714  1.5430
 5856TIP3    H141763   1.533   1.468  12.323  0.4524 -0.5158  0.8613
 5856TIP3    H241764   1.497   1.597  12.252  0.6651 -0.9940 -0.1310
 5857TIP3   OH241765   6.716   7.082  12.277 -0.0342 -0.6100  0.2799
 5857TIP3    H141766   6.759   7.006  12.316  1.2376  0.4865  1.0841
 5857TIP3    H241767   6.763   7.098  12.195 -0.8951 -1.2134 -0.3549
 5858TIP3   OH241768   1.474   5.048  10.717  0.2068 -0.2622  0.5489
 5858TIP3    H141769   1.481   4.953  10.717  1.9492 -0.2645 -2.5137
 5858TIP3    H241770   1.513   5.076  10.800 -2.1804 -2.1892  2.4617
 5859TIP3   OH241771   6.926   2.434  10.608  0.0653  0.4118  0.7317
 5859TIP3    H141772   7.005   2.407  10.655  0.8913 -0.4105 -1.0260
 5859TIP3    H241773   6.903   2.519  10.647  1.1100  0.1197  2.0710
 5860TIP3   OH241774   2.654   7.459  10.613  0.6251 -0.1163 -0.5015
 5860TIP3    H141775   2.701   7.424  10.689  0.1306 -1.5622 -0.8270
 5860TIP3    H241776   2.602   7.385  10.581 -0.2470  0.8609 -1.4144
 5861TIP3   OH241777   0.307   4.200  11.991  0.0150  0.1329  0.4656
 5861TIP3    H141778   0.325   4.178  11.900 -1.7928 -0.8939  0.3237
 5861TIP3    H241779   0.352   4.132  12.041  0.9625  0.6673  0.3676
 5862TIP3   OH241780   5.940   2.621  12.039  0.4277 -0.6331 -0.1793
 5862TIP3    H141781   5.875   2.687  12.015 -0.7742 -0.5251  2.8818
 5862TIP3    H241782   5.895   2.538  12.023  0.5136 -0.6130 -0.5182
 5863TIP3   OH241783   1.960   4.875  13.360  0.3840  0.0288  0.0662
 5863TIP3    H141784   1.940   4.793  13.314  1.0554 -0.1515  0.0860
 5863TIP3    H241785   2.022   4.849  13.428 -0.9124  0.2084  1.3855
 5864TIP3   OH241786   5.479   3.321  11.890 -0.3797  0.3812  0.5112
 5864TIP3    H141787   5.574   3.314  11.892 -0.4449 -1.1562 -0.6009
 5864TIP3    H241788   5.455   3.303  11.799 -1.8053 -0.3512  1.0056
 5865TIP3   OH241789   0.292   4.640  11.971  0.7194  0.1026  0.2278
 5865TIP3    H141790   0.385   4.636  11.951  0.6757 -0.8405  0.1512
 5865TIP3    H241791   0.288   4.658  12.065  0.9908 -0.3583  0.3309
 5866TIP3   OH241792   5.341   2.481  12.927  0.2831  0.1775  0.3015
 5866TIP3    H141793   5.358   2.512  12.838  0.6654  1.4362  0.7882
 5866TIP3    H241794   5.257   2.437  12.922  0.4473 -0.0396 -0.7442
 5867TIP3   OH241795   7.538   5.862  13.131 -0.0922 -0.0953  0.1031
 5867TIP3    H141796   7.535   5.925  13.058  2.5555  1.0029  0.8045
 5867TIP3    H241797   7.463   5.886  13.186  0.7486  2.4777  0.2856
 5868TIP3   OH241798   1.237   4.743  12.197 -0.5201 -0.1379 -0.3330
 5868TIP3    H141799   1.156   4.713  12.155 -0.3277  0.8491 -1.4678
 5868TIP3    H241800   1.282   4.662  12.222 -1.5915 -0.7082 -0.1961
 5869TIP3   OH241801   7.358   2.682  11.076 -0.1621  0.1771 -0.6737
 5869TIP3    H141802   7.345   2.762  11.126 -1.5380  0.1063 -0.8618
 5869TIP3    H241803   7.276   2.633  11.088  0.8562 -1.4807 -0.0636
 5870TIP3   OH241804   4.439   2.593  12.274  0.0235  0.0334  0.1806
 5870TIP3    H141805   4.362   2.602  12.330  1.9849  1.3373  2.9618
 5870TIP3    H241806   4.460   2.683  12.247  0.2673 -0.3625 -0.9958
 5871TIP3   OH241807   4.194   6.428  12.029  0.3503 -0.5980 -0.3263
 5871TIP3    H141808   4.203   6.344  11.985 -0.3913 -0.2190 -1.2269
 5871TIP3    H241809   4.108   6.461  12.002 -0.4767 -0.6693  1.9797
 5872TIP3   OH241810   0.137   1.955  11.032 -0.2955 -0.2344 -0.2604
 5872TIP3    H141811   0.055   1.914  11.060  0.7642 -3.2184 -1.1594
 5872TIP3    H241812   0.197   1.942  11.105  0.4046 -1.4728 -1.0314
 5873TIP3   OH241813   2.340   1.231  12.893  0.6770 -0.4787  0.2074
 5873TIP3    H141814   2.332   1.162  12.959 -0.5081  0.8309  1.4931
 5873TIP3    H241815   2.288   1.200  12.819  0.5066 -1.1460  0.5991
 5874TIP3   OH241816   7.002   3.239  12.152 -0.2265  0.3479  0.2552
 5874TIP3    H141817   7.053   3.310  12.191  1.0499 -1.0295  1.1953
 5874TIP3    H241818   6.943   3.210  12.221  0.4616 -0.6193  0.4521
 5875TIP3   OH241819   0.207   3.882  12.165  0.2156  0.0888 -0.0379
 5875TIP3    H141820   0.121   3.841  12.172  0.3723 -0.5581 -1.5952
 5875TIP3    H241821   0.234   3.896  12.256  0.1509 -3.3578  0.6699
 5876TIP3   OH241822   1.171   0.091  10.940  0.4823  0.1062 -0.3164
 5876TIP3    H141823   1.135   0.177  10.918 -1.0990 -0.7198 -1.1608
 5876TIP3    H241824   1.214   0.103  11.024 -0.4295  1.5486 -0.0252
 5877TIP3   OH241825   4.047   7.303  11.774  0.2574 -0.2921 -0.8910
 5877TIP3    H141826   4.012   7.372  11.717 -1.8720  0.1073  0.7881
 5877TIP3    H241827   4.090   7.349  11.845 -2.6461 -0.4498  1.1740
 5878TIP3   OH241828   0.160   6.653  11.587 -0.0776 -0.4666 -0.7342
 5878TIP3    H141829   0.202   6.567  11.592  0.6697 -0.0563  3.0370
 5878TIP3    H241830   0.092   6.642  11.521  0.7408 -3.6024 -1.2414
 5879TIP3   OH241831   1.157   6.526  10.624 -0.0396  1.0376  0.2731
 5879TIP3    H141832   1.139   6.607  10.577 -2.9670  0.4815  0.2579
 5879TIP3    H241833   1.160   6.552  10.716 -0.4411  1.2552  0.2268
 5880TIP3   OH241834   0.496   0.449  11.433 -0.3574  0.0592 -0.1575
 5880TIP3    H141835   0.495   0.543  11.454 -0.2876 -0.2846  1.5033
 5880TIP3    H241836   0.587   0.431  11.409 -0.4427  0.4658 -0.8262
 5881TIP3   OH241837   3.444   1.718  11.952 -0.0011  0.3491  0.6097
 5881TIP3    H141838   3.410   1.677  12.031 -0.1753  1.9866  1.4347
 5881TIP3    H241839   3.429   1.654  11.883 -0.3590 -0.8924  1.7974
 5882TIP3   OH241840   6.074   1.540  11.658 -0.4323  0.6433 -0.0376
 5882TIP3    H141841   5.988   1.543  11.617 -0.4830  2.4790  0.1290
 5882TIP3    H241842   6.059   1.565  11.749 -0.0468 -1.4807  0.6616
 5883TIP3   OH241843   1.350   3.246  11.634  0.0049 -0.0165 -0.0318
 5883TIP3    H141844   1.325   3.162  11.596  0.5244  0.2142 -0.9187
 5883TIP3    H241845   1.406   3.287  11.568 -1.3968  1.6766 -0.2609
 5884TIP3   OH241846   1.934   5.792  10.794 -0.3567 -0.0128 -0.5866
 5884TIP3    H141847   1.848   5.818  10.762 -0.4460 -0.0188 -0.3601
 5884TIP3    H241848   1.975   5.747  10.721 -0.2506  0.6493 -0.9427
 5885TIP3   OH241849   4.111   7.111  11.449  1.2655 -0.2148 -0.5095
 5885TIP3    H141850   4.039   7.106  11.387 -0.1794  1.1111  0.9609
 5885TIP3    H241851   4.159   7.191  11.424 -0.9720  1.9655  1.6127
 5886TIP3   OH241852   5.313   5.528  12.553  0.1134  0.2044 -0.0194
 5886TIP3    H141853   5.218   5.530  12.540  0.0295 -0.3448  0.4835
 5886TIP3    H241854   5.324   5.513  12.647  0.7064  1.5277  0.1411
 5887TIP3   OH241855   2.343   2.985  10.792 -0.0608  0.0237 -0.2716
 5887TIP3    H141856   2.384   3.067  10.764 -0.7168  0.5671  0.3125
 5887TIP3    H241857   2.413   2.920  10.786 -0.2379 -0.0283 -3.5752
 5888TIP3   OH241858   6.734   2.786  13.260  0.0912  0.0013  0.0723
 5888TIP3    H141859   6.758   2.877  13.243  0.8056 -0.0616  0.6631
 5888TIP3    H241860   6.786   2.736  13.197 -0.4565  0.0083 -0.3914
 5889TIP3   OH241861   6.509   2.340  10.929  0.4282 -0.2116 -0.3781
 5889TIP3    H141862   6.463   2.257  10.918 -1.0916  0.7055 -1.2955
 5889TIP3    H241863   6.517   2.375  10.840 -0.6637  1.4899  0.1392
 5890TIP3   OH241864   2.294   0.151  13.030 -0.3939  0.1032  0.0489
 5890TIP3    H141865   2.245   0.154  13.113 -2.5001  0.4720 -1.1263
 5890TIP3    H241866   2.325   0.241  13.018 -1.2347  0.3791 -0.1734
 5891TIP3   OH241867   6.139   1.398  11.208 -0.4878  0.2858  0.5369
 5891TIP3    H141868   6.192   1.473  11.234 -3.1287  1.7576  2.1703
 5891TIP3    H241869   6.190   1.322  11.235  0.6567  1.6138  2.3696
 5892TIP3   OH241870   3.462   6.471  11.289 -0.1270 -0.6705 -0.2098
 5892TIP3    H141871   3.453   6.486  11.195 -0.4595 -1.5805 -0.3354
 5892TIP3    H241872   3.515   6.392  11.296 -2.8241 -2.5824  0.2514
 5893TIP3   OH241873   2.201   1.197  11.112  0.5008  0.1216 -0.0343
 5893TIP3    H141874   2.227   1.274  11.062 -0.3812  0.1383 -0.4843
 5893TIP3    H241875   2.145   1.147  11.052 -0.0959 -0.1493  0.7330
 5894TIP3   OH241876   7.595   5.714  11.873 -0.4820 -0.0171  0.2191
 5894TIP3    H141877   7.586   5.712  11.777  0.0761  0.1940  0.1604
 5894TIP3    H241878   7.685   5.686  11.889 -0.1371  1.2251  0.6021
 5895TIP3   OH241879   1.960   3.624  11.650 -0.5157  0.6658 -0.6922
 5895TIP3    H141880   1.922   3.630  11.562  0.3216 -1.2979 -1.2402
 5895TIP3    H241881   1.898   3.569  11.699 -0.4290  0.8511 -0.3740
 5896TIP3   OH241882   3.080   7.332  11.303 -0.0709  0.5443  0.0502
 5896TIP3    H141883   3.045   7.421  11.311  0.2354  0.9466 -2.3684
 5896TIP3    H241884   3.175   7.345  11.296  0.2693 -0.2300  2.3290
 5897TIP3   OH241885   2.669   5.193  12.008  0.2171  0.2933  0.4101
 5897TIP3    H141886   2.691   5.110  11.966  1.9267  0.5343  0.7647
 5897TIP3    H241887   2.576   5.185  12.030  0.4586 -1.6961  0.8529
 5898TIP3   OH241888   4.523   0.842  11.978  0.3227  0.6908 -0.1188
 5898TIP3    H141889   4.599   0.786  11.991 -0.8469 -0.7067  1.2863
 5898TIP3    H241890   4.493   0.862  12.067 -0.6821  1.5716 -0.6265
 5899TIP3   OH241891   4.811   6.590  11.969 -0.1852 -0.3328  0.1185
 5899TIP3    H141892   4.869   6.630  12.034 -2.3444  1.9460  0.7829
 5899TIP3    H241893   4.841   6.499  11.963  0.9585 -0.2960  3.3627
 5900TIP3   OH241894   0.495   4.855  10.616 -0.5655  0.1724  0.5978
 5900TIP3    H141895   0.483   4.815  10.530  2.5460 -0.1638  0.2003
 5900TIP3    H241896   0.426   4.921  10.622 -2.0216 -1.0959 -1.3220
 5901TIP3   OH241897   3.718   0.250  12.406 -0.2662 -0.0932  0.1779
 5901TIP3    H141898   3.640   0.219  12.451  0.7008 -1.4123  1.0316
 5901TIP3    H241899   3.782   0.180  12.417  1.3090  1.2741  0.2218
 5902TIP3   OH241900   2.858   6.324  11.631  0.4564  0.4702  0.5145
 5902TIP3    H141901   2.907   6.244  11.653 -0.0528  0.2082  0.7098
 5902TIP3    H241902   2.891   6.349  11.544  0.2638 -0.2360  0.2288
 5903TIP3   OH241903   6.387   6.922  12.038 -0.1294 -0.2819  0.7398
 5903TIP3    H141904   6.436   6.859  12.091  1.0633  0.7412  0.8992
 5903TIP3    H241905   6.390   6.886  11.949  1.7531  0.1977  0.5625
 5904TIP3   OH241906   1.327   5.321  10.922 -0.4739 -0.3807 -0.2541
 5904TIP3    H141907   1.408   5.278  10.897 -0.1057  0.4641 -0.5437
 5904TIP3    H241908   1.350   5.376  10.996 -0.4643  0.8822 -1.1588
 5905TIP3   OH241909   2.774   0.760  12.305 -0.7823 -0.3986 -0.6321
 5905TIP3    H141910   2.830   0.718  12.239  0.2481 -1.6829  0.9669
 5905TIP3    H241911   2.802   0.851  12.304  1.8102 -1.0808  0.4435
 5906TIP3   OH241912   4.251   3.934  11.506 -0.1941  0.1547  0.3635
 5906TIP3    H141913   4.227   3.986  11.429 -1.6227 -0.5841  0.2834
 5906TIP3    H241914   4.205   3.976  11.579 -0.7767 -0.5633  0.4159
 5907TIP3   OH241915   3.264   4.376  11.979 -0.6510 -0.0781  0.0187
 5907TIP3    H141916   3.250   4.298  11.925 -1.2483  0.1945 -0.2321
 5907TIP3    H241917   3.346   4.413  11.945 -0.8408 -0.0984 -0.4785
 5908TIP3   OH241918   6.818   2.473  13.236  0.4013  0.0900  0.1608
 5908TIP3    H141919   6.852   2.544  13.291  2.1941 -1.8262  1.6374
 5908TIP3    H241920   6.742   2.441  13.283 -1.1398  1.6865 -1.0946
 5909TIP3   OH241921   1.779   3.433  12.283 -0.4015  0.3496  0.1439
 5909TIP3    H141922   1.730   3.512  12.309 -0.4547  0.4158 -0.1533
 5909TIP3    H241923   1.720   3.361  12.303  0.1846  0.2653  1.7553
 5910TIP3   OH241924   3.657   3.044  11.937  0.3741  0.1070 -0.7309
 5910TIP3    H141925   3.592   2.986  11.976  0.2881  1.3629  1.1086
 5910TIP3    H241926   3.654   3.023  11.843 -2.3203 -0.2542 -0.6639
 5911TIP3   OH241927   2.124   4.488  11.423 -0.6550 -0.1402  0.7023
 5911TIP3    H141928   2.154   4.541  11.498  1.4638  1.5997 -1.2367
 5911TIP3    H241929   2.175   4.407  11.429 -0.4968 -0.0110  1.1567
 5912TIP3   OH241930   5.983   5.467  12.428  0.1659 -0.3408  0.3357
 5912TIP3    H141931   5.984   5.379  12.390 -0.5548  0.4570 -1.6149
 5912TIP3    H241932   5.927   5.459  12.505  1.4048 -1.9272  1.1378
 5913TIP3   OH241933   5.810   3.396  10.507  0.4887  0.0538  0.1281
 5913TIP3    H141934   5.869   3.334  10.551 -0.4689  0.2522  1.7794
 5913TIP3    H241935   5.726   3.351  10.504  0.2241  0.5685 -0.3451
 5914TIP3   OH241936   6.042   6.991  11.325 -0.4040  0.1816 -0.2464
 5914TIP3    H141937   6.103   6.974  11.253 -1.3376 -1.5373 -0.6829
 5914TIP3    H241938   5.961   7.017  11.282 -0.2667  1.6916  0.3131
 5915TIP3   OH241939   6.147   7.175  10.655 -0.5069  0.1955  0.2016
 5915TIP3    H141940   6.145   7.124  10.574  0.3049 -0.4763  0.5982
 5915TIP3    H241941   6.057   7.206  10.665 -0.6095  0.3601 -0.9982
 5916TIP3   OH241942   4.969   0.460  10.921  0.2506 -0.2169 -0.0600
 5916TIP3    H141943   4.910   0.388  10.898  0.8911 -0.4555 -1.0042
 5916TIP3    H241944   4.919   0.514  10.982 -1.0679 -0.2313 -1.0883
 5917TIP3   OH241945   0.374   6.763  11.449  0.1294  0.5976 -0.5999
 5917TIP3    H141946   0.414   6.682  11.417  1.8109  1.6953 -1.3890
 5917TIP3    H241947   0.285   6.737  11.473  0.9251 -1.7239  0.1912
 5918TIP3   OH241948   0.396   4.916  13.379 -0.2990 -0.0676  0.2203
 5918TIP3    H141949   0.309   4.910  13.340 -0.1937 -0.1058 -0.0085
 5918TIP3    H241950   0.399   5.003  13.419  0.0150  0.4479 -0.8807
 5919TIP3   OH241951   2.289   6.600  11.871 -0.6680  1.1719 -0.2091
 5919TIP3    H141952   2.352   6.542  11.914 -1.1095  1.3243  0.6772
 5919TIP3    H241953   2.210   6.546  11.862 -0.3432  0.8979 -1.5508
 5920TIP3   OH241954   3.754   6.259  11.773  0.2305 -0.5328  1.0978
 5920TIP3    H141955   3.722   6.178  11.734  0.0490 -0.0292  0.1640
 5920TIP3    H241956   3.681   6.293  11.824  0.6772 -1.5326  2.4770
 5921TIP3   OH241957   2.801   4.718  11.293  0.3174 -0.0350  0.3931
 5921TIP3    H141958   2.758   4.749  11.373  1.2186 -0.5089  1.0816
 5921TIP3    H241959   2.865   4.654  11.324  0.6124 -0.2950 -0.7248
 5922TIP3   OH241960   4.154   5.578  11.230  0.7486  0.3996  0.0002
 5922TIP3    H141961   4.171   5.629  11.150  2.4104 -0.7390 -0.4487
 5922TIP3    H241962   4.191   5.631  11.300 -0.2700  1.1806 -0.0317
 5923TIP3   OH241963   7.522   5.390  12.666  0.0368  0.2300 -0.1171
 5923TIP3    H141964   7.478   5.417  12.585 -0.1795 -0.2035 -0.1489
 5923TIP3    H241965   7.613   5.376  12.641 -0.4619 -2.3291 -0.8966
 5924TIP3   OH241966   1.565   0.712  11.918  0.2613  0.4812 -0.2513
 5924TIP3    H141967   1.545   0.680  12.006 -1.1880 -3.5759 -1.8092
 5924TIP3    H241968   1.480   0.743  11.885  0.1638 -0.5718 -1.0554
 5925TIP3   OH241969   3.747   2.561  12.227 -0.0088  0.6069 -0.9272
 5925TIP3    H141970   3.830   2.610  12.224 -0.6053  1.6701 -0.5892
 5925TIP3    H241971   3.745   2.525  12.316  0.5866 -0.3359 -1.2815
 5926TIP3   OH241972   4.244   6.565  10.729 -0.2590 -0.2176 -0.1364
 5926TIP3    H141973   4.185   6.501  10.768  1.7940 -2.3921 -0.3665
 5926TIP3    H241974   4.199   6.649  10.740 -1.7661 -1.2623  2.8506
 5927TIP3   OH241975   4.758   0.401  12.016  0.0255 -0.4526 -0.7408
 5927TIP3    H141976   4.698   0.328  12.002 -0.4961  0.0008 -0.9578
 5927TIP3    H241977   4.781   0.397  12.109 -0.0913 -0.8253 -0.7278
 5928TIP3   OH241978   7.421   6.834  13.141 -0.1703  0.0716  0.4713
 5928TIP3    H141979   7.436   6.760  13.081 -0.3565 -0.6222  1.2713
 5928TIP3    H241980   7.382   6.901  13.085 -2.5139 -1.3761  0.2395
 5929TIP3   OH241981   1.319   4.898  13.086 -0.2365  0.6583 -0.0289
 5929TIP3    H141982   1.390   4.850  13.131  0.7314  2.3823  0.3958
 5929TIP3    H241983   1.341   4.990  13.100 -1.2660  1.2495 -1.9981
 5930TIP3   OH241984   6.440   6.021  12.553  0.4095  0.2102  0.6844
 5930TIP3    H141985   6.489   6.039  12.472  0.0690  0.8594  0.6222
 5930TIP3    H241986   6.351   6.050  12.535 -0.3740 -2.1576  0.3291
 5931TIP3   OH241987   6.676   1.723  10.710  0.1417  0.5025  0.0254
 5931TIP3    H141988   6.742   1.748  10.774  1.1852  0.1283 -0.8847
 5931TIP3    H241989   6.725   1.686  10.637 -1.1576 -1.3592  0.0148
 5932TIP3   OH241990   6.263   1.295  12.483  0.2215 -0.4698  0.1833
 5932TIP3    H141991   6.239   1.362  12.419  0.3082 -1.4360 -0.8914
 5932TIP3    H241992   6.209   1.314  12.559  1.4666  1.8693  0.5879
 5933TIP3   OH241993   3.807   5.894  11.881 -0.0629  0.0376  0.2208
 5933TIP3    H141994   3.836   5.906  11.971  0.0382 -0.2423  0.2248
 5933TIP3    H241995   3.877   5.844  11.839  1.0406  2.2006 -0.6574
 5934TIP3   OH241996   2.939   0.513  10.447 -0.0983 -0.0117 -1.0131
 5934TIP3    H141997   2.955   0.419  10.460  0.4722  0.1759 -0.2834
 5934TIP3    H241998   2.846   0.524  10.469  0.7923  0.3435  3.8040
 5935TIP3   OH241999   2.333   3.006  12.669  0.2977  0.3754 -0.4062
 5935TIP3    H142000   2.343   2.946  12.743  1.6837  0.7663 -0.2528
 5935TIP3    H242001   2.283   3.080  12.705  0.8402  0.4996  0.1181
 5936TIP3   OH242002   1.598   3.194  12.288  0.0497 -0.2259  0.4572
 5936TIP3    H142003   1.596   3.106  12.324  0.2022 -0.5584 -0.3289
 5936TIP3    H242004   1.509   3.209  12.256  0.1162 -0.2270  0.2727
 5937TIP3   OH242005   1.409   7.515  12.120  0.2862  0.0836 -0.7552
 5937TIP3    H142006   1.378   7.504  12.030 -0.1225 -0.6796 -0.5366
 5937TIP3    H242007   1.504   7.504  12.114  0.0577 -2.7949 -0.7549
 5938TIP3   OH242008   3.630   5.679  11.584  0.3980  0.1408  0.2438
 5938TIP3    H142009   3.549   5.672  11.534  0.4313 -1.2654  0.3426
 5938TIP3    H242010   3.601   5.709  11.671  0.0677  0.3322  0.0702
 5939TIP3   OH242011   0.053   7.325  11.363  0.1818  0.1655  0.4407
 5939TIP3    H142012   0.113   7.399  11.363  0.3444  0.0622  1.8297
 5939TIP3    H242013   0.090   7.264  11.427  0.1126 -1.1746 -0.7499
 5940TIP3   OH242014   7.441   4.694  12.422 -0.5898  0.0540 -0.6262
 5940TIP3    H142015   7.426   4.600  12.418 -0.9352 -0.1713  2.6929
 5940TIP3    H242016   7.529   4.707  12.387 -0.1227 -1.6643 -0.1604
 5941TIP3   OH242017   2.182   5.550  10.744  0.2730 -0.0808  0.4609
 5941TIP3    H142018   2.211   5.475  10.690 -0.8871 -0.4191  0.2862
 5941TIP3    H242019   2.088   5.555  10.729  0.1398  0.6370  1.4703
 5942TIP3   OH242020   6.184   5.328  10.749  0.2738  0.3690 -0.0082
 5942TIP3    H142021   6.152   5.320  10.659 -0.9402  1.1859  0.3242
 5942TIP3    H242022   6.230   5.246  10.766  2.0615  0.8990 -1.9510
 5943TIP3   OH242023   7.549   4.703  10.879 -0.5844 -0.0816  0.2933
 5943TIP3    H142024   7.466   4.747  10.863 -1.1348 -0.4327  1.9928
 5943TIP3    H242025   7.544   4.623  10.827 -0.5923  0.6735 -0.9074
 5944TIP3   OH242026   1.828   4.237  10.643  0.7036 -0.4356 -0.9817
 5944TIP3    H142027   1.921   4.261  10.650  1.2587 -2.3162 -1.2686
 5944TIP3    H242028   1.797   4.237  10.734  0.4468  1.9738 -1.0094
 5945TIP3   OH242029   0.355   4.307  10.397  0.3703  0.2105  0.3239
 5945TIP3    H142030   0.272   4.262  10.379 -0.0374  1.0972 -0.0639
 5945TIP3    H242031   0.346   4.337  10.487 -0.5943  2.0672 -0.3459
 5946TIP3   OH242032   2.779   4.242  12.560 -0.0517 -0.1107  0.0141
 5946TIP3    H142033   2.829   4.192  12.626 -0.7452 -0.8958 -0.0330
 5946TIP3    H242034   2.844   4.267  12.495  0.5384  0.1467  0.6834
 5947TIP3   OH242035   2.820   1.607  10.473  0.2751  0.1125 -0.3006
 5947TIP3    H142036   2.823   1.631  10.381  1.2416 -1.4293 -0.7047
 5947TIP3    H242037   2.888   1.660  10.514 -1.5600  2.3990 -0.0072
 5948TIP3   OH242038   3.992   4.211  10.837 -0.1854  0.3870  0.2207
 5948TIP3    H142039   4.039   4.276  10.785 -0.3602  1.1223  0.9562
 5948TIP3    H242040   3.900   4.221  10.812 -0.1978  0.3504  0.2508
 5949TIP3   OH242041   2.189   4.146  12.745  0.4457 -0.2822  0.5526
 5949TIP3    H142042   2.187   4.084  12.818 -0.1946 -0.6675  0.2248
 5949TIP3    H242043   2.236   4.222  12.779  0.6335 -0.6711  1.1890
 5950TIP3   OH242044   7.470   0.664  10.851 -0.5492 -0.0828 -0.0603
 5950TIP3    H142045   7.537   0.597  10.866 -2.2464 -2.0258 -0.5147
 5950TIP3    H242046   7.406   0.648  10.921 -1.8278 -0.1047 -1.1990
 5951TIP3   OH242047   6.845   6.492  13.521 -0.0493  0.2347  0.1137
 5951TIP3    H142048   6.915   6.451  13.470 -1.0691  0.3646 -1.4226
 5951TIP3    H242049   6.869   6.584  13.526  0.8206 -0.0295  1.1984
 5952TIP3   OH242050   1.423   3.617  10.628 -0.0578  1.3055  0.2364
 5952TIP3    H142051   1.358   3.547  10.622  0.3563  0.7012  2.2640
 5952TIP3    H242052   1.490   3.593  10.565  0.4827 -0.6141  1.4827
 5953TIP3   OH242053   3.629   4.971  11.540  0.0220 -0.1218  0.0123
 5953TIP3    H142054   3.534   4.960  11.547 -0.0641  0.3142 -0.4247
 5953TIP3    H242055   3.660   4.962  11.630 -0.4540 -0.0890  0.1835
 5954TIP3   OH242056   2.057   5.060  12.141 -0.3806 -0.1111  0.2745
 5954TIP3    H142057   2.128   5.112  12.179 -1.1717  0.4986  0.9423
 5954TIP3    H242058   1.995   5.124  12.107 -0.0147 -0.6413 -1.4885
 5955TIP3   OH242059   1.408   1.851  13.064  0.3942 -0.5484  0.3028
 5955TIP3    H142060   1.407   1.868  12.969  1.2083 -0.7486  0.2456
 5955TIP3    H242061   1.324   1.810  13.082  0.3918 -0.8733 -0.4113
 5956TIP3   OH242062   4.525   4.981  18.797 -0.3413 -0.2810  0.8923
 5956TIP3    H142063   4.565   4.994  18.883  0.7083  0.2145  0.3466
 5956TIP3    H242064   4.493   5.067  18.771  0.7624 -0.0704  0.1257
 5957TIP3   OH242065   0.652   1.281  11.432  0.1252 -0.3176  0.7096
 5957TIP3    H142066   0.723   1.342  11.450  0.4324 -0.2450 -0.6086
 5957TIP3    H242067   0.617   1.310  11.347 -0.2085 -1.5027  0.4218
 5958TIP3   OH242068   6.429   3.536  12.783  0.3794  0.2767 -0.1017
 5958TIP3    H142069   6.486   3.557  12.709 -0.8802  2.2757 -0.5636
 5958TIP3    H242070   6.399   3.447  12.766  2.3739 -0.3743 -0.4539
 5959TIP3   OH242071   3.729   2.198  11.565 -0.2248 -0.2104  0.6440
 5959TIP3    H142072   3.723   2.291  11.586 -1.6466 -0.2947  0.7495
 5959TIP3    H242073   3.640   2.173  11.541  0.3361 -1.3168 -0.4136
 5960TIP3   OH242074   0.590   5.073  11.662  0.3454 -0.1006 -0.0127
 5960TIP3    H142075   0.518   5.021  11.697  0.7666 -0.3587  0.4874
 5960TIP3    H242076   0.645   5.093  11.738 -0.7339  2.6518  0.1339
 5961TIP3   OH242077   2.588   4.070  12.310 -0.8355  0.2030 -0.2261
 5961TIP3    H142078   2.641   4.068  12.390 -1.3940  1.3814  0.1928
 5961TIP3    H242079   2.510   4.019  12.332 -1.4237  1.3046  0.3226
 5962TIP3   OH242080   4.592   6.349  11.047  0.1151  0.2582 -0.0160
 5962TIP3    H142081   4.543   6.426  11.019  0.9314  0.4167 -1.0587
 5962TIP3    H242082   4.635   6.376  11.128 -1.0211  0.3033  0.6000
 5963TIP3   OH242083   2.754   1.891  11.852  0.2274  0.0882  0.3976
 5963TIP3    H142084   2.833   1.946  11.853 -0.8086  1.6938 -0.9511
 5963TIP3    H242085   2.764   1.836  11.775  0.4243 -0.3451  0.7281
 5964TIP3   OH242086   6.436   5.441  12.261  0.6705  0.0815  0.1434
 5964TIP3    H142087   6.474   5.515  12.308  1.1162 -0.3812  0.5275
 5964TIP3    H242088   6.500   5.419  12.194  0.7068 -0.1727  0.2574
 5965TIP3   OH242089   6.331   6.862  11.240  0.1116 -0.2736  0.1247
 5965TIP3    H142090   6.380   6.833  11.317 -0.4486 -1.4174  0.0694
 5965TIP3    H242091   6.399   6.885  11.176  0.5741 -0.1911  0.6411
 5966TIP3   OH242092   5.146   7.246  12.504  0.3774  0.4249 -0.2202
 5966TIP3    H142093   5.099   7.172  12.465  0.6985 -0.4745  1.0496
 5966TIP3    H242094   5.234   7.239  12.468  0.5266 -0.0829  0.2293
 5967TIP3   OH242095   2.112   4.972  12.482 -0.4708  0.0351 -0.4640
 5967TIP3    H142096   2.198   4.989  12.519  0.9369  1.2744 -3.9384
 5967TIP3    H242097   2.067   5.056  12.484 -1.5380 -0.5270  1.0008
 5968TIP3   OH242098   1.808   5.482  12.069  0.1941 -0.2545 -0.1480
 5968TIP3    H142099   1.859   5.405  12.043  0.5034 -0.0522 -0.1367
 5968TIP3    H242100   1.717   5.451  12.069  0.2406 -0.4129 -0.9108
 5969TIP3   OH242101   0.855   7.533  12.116  0.0205 -0.2749  0.1278
 5969TIP3    H142102   0.848   7.629  12.118 -0.4805 -0.3004 -0.2337
 5969TIP3    H242103   0.798   7.503  12.186 -0.3526 -0.3309 -0.1958
 5970TIP3   OH242104   6.883   6.202  11.081  0.2449  0.6965 -0.6047
 5970TIP3    H142105   6.887   6.107  11.072 -0.7299  0.5234  0.5767
 5970TIP3    H242106   6.971   6.227  11.111 -0.3611 -0.2489  2.2142
 5971TIP3   OH242107   2.740   7.599  12.231 -0.5673  0.1949  0.1998
 5971TIP3    H142108   2.754   7.596  12.137  0.0796 -0.1868  0.2994
 5971TIP3    H242109   2.654   7.640  12.242  0.0249  1.6775 -0.5026
 5972TIP3   OH242110   1.903   6.632  11.665  0.3708  0.0389 -0.0602
 5972TIP3    H142111   1.912   6.648  11.571  0.9352 -2.4253 -0.4913
 5972TIP3    H242112   1.811   6.607  11.676  0.7488 -1.5875 -0.3373
 5973TIP3   OH242113   1.635   5.201  10.535  0.1767 -0.1326 -0.0288
 5973TIP3    H142114   1.592   5.285  10.544 -1.1759 -0.6912 -0.9822
 5973TIP3    H242115   1.576   5.139  10.579  1.9980 -0.3954  2.2708
 5974TIP3   OH242116   4.691   1.875  11.619 -0.4593  0.0966 -0.0636
 5974TIP3    H142117   4.638   1.825  11.557 -1.2834 -0.1014  0.7861
 5974TIP3    H242118   4.637   1.881  11.697  0.3878  0.7329  0.4843
 5975TIP3   OH242119   6.289   3.203  12.155  0.6903 -0.0057  0.4599
 5975TIP3    H142120   6.272   3.289  12.119 -0.1794 -0.4916 -0.3202
 5975TIP3    H242121   6.274   3.142  12.083  2.2134 -0.7645  0.7214
 5976TIP3   OH242122   5.962   4.121  10.639  0.1955 -0.1395  0.4866
 5976TIP3    H142123   5.885   4.098  10.589  1.5917 -0.7934 -1.4774
 5976TIP3    H242124   5.972   4.051  10.704 -1.7785  0.8584  1.9726
 5977TIP3   OH242125   1.342   0.562  11.852  0.4103  0.6703  0.0752
 5977TIP3    H142126   1.425   0.517  11.862  0.5452  0.5201 -1.4815
 5977TIP3    H242127   1.341   0.627  11.923  0.2887 -1.5740  2.2624
 5978TIP3   OH242128   1.976   7.402  10.427 -0.1620 -0.2615 -0.5840
 5978TIP3    H142129   1.887   7.408  10.392 -0.5051  0.2092  0.3297
 5978TIP3    H242130   1.963   7.388  10.521  0.6326  4.1782  0.4159
 5979TIP3   OH242131   7.653   6.998  11.911 -0.3604 -0.2481 -0.2115
 5979TIP3    H142132   7.585   6.997  11.843 -1.6114  0.1769  0.9647
 5979TIP3    H242133   7.718   7.060  11.879 -1.7028  1.1691 -0.3583
 5980TIP3   OH242134   4.912   3.433  11.841 -0.5854 -0.0585  0.7497
 5980TIP3    H142135   4.879   3.513  11.798  0.2986 -1.3609 -2.7060
 5980TIP3    H242136   5.001   3.457  11.870 -0.2805  0.2350 -0.3615
 5981TIP3   OH242137   3.461   1.525  11.211  0.0229 -0.1016  0.1952
 5981TIP3    H142138   3.424   1.440  11.189  0.2661 -0.3065  0.5812
 5981TIP3    H242139   3.493   1.559  11.127 -1.8243  0.4775 -0.3083
 5982TIP3   OH242140   7.453   1.682  12.743 -0.0404  0.5577 -0.3552
 5982TIP3    H142141   7.513   1.744  12.701 -1.0668  0.9808 -1.2390
 5982TIP3    H242142   7.401   1.736  12.803  2.0143 -0.1652  2.2951
 5983TIP3   OH242143   6.159   5.220  11.993  0.1388 -0.1340  0.1324
 5983TIP3    H142144   6.174   5.157  12.063  0.1463  0.0580  0.3040
 5983TIP3    H242145   6.072   5.200  11.959 -0.1164  0.1689  0.6062
 5984TIP3   OH242146   6.931   4.622  12.655 -0.2628 -0.2557 -0.0081
 5984TIP3    H142147   7.024   4.603  12.642  0.5666  2.7628  0.7574
 5984TIP3    H242148   6.924   4.643  12.749 -1.1630  1.9156 -0.5057
 5985TIP3   OH242149   4.528   6.780  11.707  0.4682 -0.1283  0.4429
 5985TIP3    H142150   4.560   6.691  11.699 -0.9692 -0.7209  0.9134
 5985TIP3    H242151   4.440   6.777  11.669  0.3413  1.0524  0.6091
 5986TIP3   OH242152   1.949   5.172  10.959 -0.2007  0.2372 -0.0301
 5986TIP3    H142153   1.943   5.265  10.984 -2.9215  0.4912 -1.3153
 5986TIP3    H242154   1.949   5.173  10.864 -1.5129 -1.0836 -0.0800
 5987TIP3   OH242155   4.208   6.387  11.598 -0.2310 -0.2145  0.1229
 5987TIP3    H142156   4.217   6.298  11.632 -3.0589 -0.4656  0.5091
 5987TIP3    H242157   4.167   6.376  11.513  0.0793  0.7044 -0.1504
 5988TIP3   OH242158   0.748   2.061  10.749  0.0401  0.2882  0.1883
 5988TIP3    H142159   0.681   2.019  10.695  0.6525 -0.5097  0.0320
 5988TIP3    H242160   0.749   2.152  10.718 -0.6552  0.2024 -0.1079
 5989TIP3   OH242161   5.783   1.648  12.281  0.9742 -0.4396  0.1425
 5989TIP3    H142162   5.816   1.562  12.255  1.3834 -0.6718  1.3664
 5989TIP3    H242163   5.812   1.707  12.211  0.1967 -1.3639 -1.0052
 5990TIP3   OH242164   2.525   7.667  10.753  0.1473  0.1079 -0.1805
 5990TIP3    H142165   2.526   7.731  10.682  1.8682 -0.0375 -0.3435
 5990TIP3    H242166   2.555   7.585  10.713 -0.7138 -0.4572  0.3127
 5991TIP3   OH242167   7.211   3.834  12.235 -0.1025  0.2015  0.1344
 5991TIP3    H142168   7.285   3.893  12.248 -0.2133  0.8976 -1.9182
 5991TIP3    H242169   7.139   3.891  12.209 -0.6243 -0.6820 -0.4401
 5992TIP3   OH242170   1.133   3.092  11.079  0.2335 -0.2964  0.0927
 5992TIP3    H142171   1.097   3.073  10.993 -0.8015  0.9244  0.2203
 5992TIP3    H242172   1.117   3.013  11.130 -0.7935 -0.3840 -0.3402
 5993TIP3   OH242173   2.841   3.103  10.673  0.1699 -0.1879 -0.3894
 5993TIP3    H142174   2.772   3.169  10.683 -0.7779 -0.7357 -2.5814
 5993TIP3    H242175   2.910   3.147  10.623 -0.9563 -1.0324 -2.8877
 5994TIP3   OH242176   1.719   5.266  12.641 -0.6274  0.1452  0.2915
 5994TIP3    H142177   1.685   5.340  12.691 -0.2538  0.9605 -0.6292
 5994TIP3    H242178   1.667   5.266  12.560 -0.0165 -0.0492 -0.1070
 5995TIP3   OH242179   5.301   0.636  10.758 -0.1403 -0.0623 -0.0749
 5995TIP3    H142180   5.250   0.718  10.760  1.2720  0.8390  0.9533
 5995TIP3    H242181   5.247   0.576  10.708 -2.6244  0.5973  1.5938
 5996TIP3   OH242182   0.477   4.604  11.245  0.4270 -0.4697 -0.2202
 5996TIP3    H142183   0.454   4.514  11.268  2.2514 -0.8145  0.4572
 5996TIP3    H242184   0.467   4.609  11.150 -2.9113 -0.3670  0.0483
 5997TIP3   OH242185   0.907   1.387  11.505  0.1786  0.3695 -0.7307
 5997TIP3    H142186   0.977   1.413  11.445  1.4069 -1.4865 -0.1814
 5997TIP3    H242187   0.936   1.304  11.542 -2.4242 -0.5892 -0.6216
 5998TIP3   OH242188   3.211   4.441  10.925 -0.0060  0.1760 -0.1677
 5998TIP3    H142189   3.201   4.503  10.997 -0.4428  1.5557 -1.3840
 5998TIP3    H242190   3.135   4.383  10.933  0.0010  0.2538  0.5325
 5999TIP3   OH242191   3.584   6.208  11.335 -0.6494 -0.2507  0.2017
 5999TIP3    H142192   3.677   6.185  11.335 -0.2899  0.9053  2.2617
 5999TIP3    H242193   3.564   6.228  11.427 -2.5758  0.8995 -0.4013
 6000TIP3   OH242194   1.171   6.119  12.127  0.0425  0.8027  0.3147
 6000TIP3    H142195   1.143   6.057  12.194  1.1070 -0.0027  0.0341
 6000TIP3    H242196   1.213   6.065  12.060  1.0552  1.8355  0.0876
 6001TIP3   OH242197   1.584   6.157  12.449  0.0479  0.3460 -0.3042
 6001TIP3    H142198   1.604   6.122  12.362  1.2478 -0.6361  0.3291
 6001TIP3    H242199   1.628   6.097  12.509  0.0378  1.5380  0.9367
 6002TIP3   OH242200   4.046   0.325  10.899 -0.6319  0.6529  0.1769
 6002TIP3    H142201   4.017   0.274  10.975 -2.1952 -0.2469 -0.9433
 6002TIP3    H242202   4.047   0.416  10.929 -2.3738  0.4434  0.9816
 6003TIP3   OH242203   0.123   1.614  12.841  0.5142 -0.3881  0.5092
 6003TIP3    H142204   0.084   1.528  12.859  1.6856 -0.8475  1.0000
 6003TIP3    H242205   0.070   1.675  12.891  0.6175 -1.0414  1.4613
 6004TIP3   OH242206   6.805   3.347  11.600  0.1989 -0.0439 -0.6974
 6004TIP3    H142207   6.868   3.375  11.534 -0.3086  0.9828 -0.7647
 6004TIP3    H242208   6.856   3.340  11.681  0.9557 -1.9260 -1.2900
 6005TIP3   OH242209   6.790   2.253  10.948  0.0788  0.1574  0.6660
 6005TIP3    H142210   6.813   2.286  11.035 -0.9223 -0.4469  1.1793
 6005TIP3    H242211   6.696   2.270  10.940  0.3106  0.9807 -0.6574
 6006TIP3   OH242212   0.941   4.610  12.445 -0.3723 -0.8245 -0.7306
 6006TIP3    H142213   0.955   4.531  12.393 -2.0849 -1.1688 -0.7071
 6006TIP3    H242214   0.866   4.653  12.404 -1.1791 -0.6244  0.8876
 6007TIP3   OH242215   5.227   3.610  11.660 -0.4627  0.0825  0.1925
 6007TIP3    H142216   5.206   3.601  11.753 -1.4623 -2.0663 -0.1862
 6007TIP3    H242217   5.194   3.530  11.620 -0.4964  1.1616 -2.1126
 6008TIP3   OH242218   6.940   3.357  11.828  0.1011  0.7316 -0.2098
 6008TIP3    H142219   6.894   3.352  11.912 -0.3850 -2.4492 -0.5587
 6008TIP3    H242220   6.985   3.442  11.831 -1.1229  1.4122  2.5816
 6009TIP3   OH242221   2.966   5.443  11.025 -0.1014  0.3034 -0.0859
 6009TIP3    H142222   2.964   5.448  11.121  1.0544 -0.7085  0.0274
 6009TIP3    H242223   2.874   5.440  10.999 -0.4562 -1.3717  1.1417
 6010TIP3   OH242224   0.699   3.984  12.830 -0.4665  0.3074  0.1975
 6010TIP3    H142225   0.666   3.947  12.912 -1.0722  1.8014  0.6583
 6010TIP3    H242226   0.792   3.962  12.830 -0.1838  1.2700  1.8996
 6011TIP3   OH242227   5.861   6.178  12.126  0.3045  0.6675 -0.4317
 6011TIP3    H142228   5.833   6.218  12.044 -0.1427  2.0410  0.3539
 6011TIP3    H242229   5.918   6.243  12.166 -0.1388  0.3742  0.7189
 6012TIP3   OH242230   1.535   4.808  11.443  0.0102 -0.1737 -0.6538
 6012TIP3    H142231   1.585   4.889  11.452  3.8136 -2.4342  0.7961
 6012TIP3    H242232   1.460   4.820  11.501 -0.0846  2.5917 -1.2143
 6013TIP3   OH242233   7.533   4.920  13.111  0.5273  0.2839 -0.4496
 6013TIP3    H142234   7.581   4.960  13.184  0.1976 -1.1570  0.6064
 6013TIP3    H242235   7.600   4.871  13.063  0.6978  1.0267 -0.9900
 6014TIP3   OH242236   0.454   7.006  11.577  0.4222 -0.3826 -0.0624
 6014TIP3    H142237   0.412   6.938  11.525 -1.0168  0.3770  0.0765
 6014TIP3    H242238   0.447   6.974  11.668 -0.3368 -0.0091  0.0118
 6015TIP3   OH242239   2.328   3.094  11.780  0.2184  0.4034 -0.1366
 6015TIP3    H142240   2.382   3.102  11.859  1.3245  1.6943 -0.9698
 6015TIP3    H242241   2.382   3.132  11.711 -0.3950 -1.3952 -1.6921
 6016TIP3   OH242242   1.571   3.239  10.420 -0.2894 -0.0557 -0.0202
 6016TIP3    H142243   1.485   3.199  10.420  0.1103 -1.0309  2.2708
 6016TIP3    H242244   1.632   3.166  10.408  0.2834  0.4277 -0.1364
 6017TIP3   OH242245   6.164   7.495  13.657 -0.5562 -0.1663 -0.5309
 6017TIP3    H142246   6.121   7.454  13.582 -0.7944  0.6928 -0.8846
 6017TIP3    H242247   6.138   7.441  13.732  0.1810 -1.3943 -1.1321
 6018TIP3   OH242248   3.978   1.087  12.412 -0.4261  0.0174 -0.1898
 6018TIP3    H142249   4.027   1.017  12.454  0.0247  0.3110 -0.2214
 6018TIP3    H242250   3.936   1.045  12.336  1.6548  0.2346 -1.5408
 6019TIP3   OH242251   1.363   3.150  11.931  0.2618 -0.6567 -0.2048
 6019TIP3    H142252   1.388   3.167  11.841  2.0234 -0.2725  0.3085
 6019TIP3    H242253   1.276   3.189  11.941  0.7882  0.8365 -1.2593
 6020TIP3   OH242254   1.848   3.983  12.514 -0.0679 -0.1476 -0.3742
 6020TIP3    H142255   1.829   3.893  12.539 -0.0601  0.1008  0.5605
 6020TIP3    H242256   1.778   4.035  12.554 -0.0525  0.2734 -0.8719
 6021TIP3   OH242257   1.239   3.811  10.745  0.4327 -0.4329 -0.0699
 6021TIP3    H142258   1.283   3.734  10.709 -1.4230 -1.4867 -0.1761
 6021TIP3    H242259   1.242   3.799  10.840  2.3417  0.6588  0.0514
 6022TIP3   OH242260   4.235   3.507  12.163  0.0720 -0.2736 -0.4082
 6022TIP3    H142261   4.141   3.495  12.150 -0.1064 -1.7651  1.8044
 6022TIP3    H242262   4.245   3.601  12.179 -1.3389 -0.3527  1.2230
 6023TIP3   OH242263   7.435   7.196  12.607 -0.4471  0.5301  0.1347
 6023TIP3    H142264   7.439   7.252  12.529  0.4170  1.1935  0.6338
 6023TIP3    H242265   7.526   7.189  12.636 -0.3983 -1.8161 -0.3531
 6024TIP3   OH242266   2.279   1.608  11.644  0.7271  0.3985  0.1514
 6024TIP3    H142267   2.202   1.654  11.611  0.5062 -0.6338 -0.8497
 6024TIP3    H242268   2.328   1.584  11.565  1.5947  0.2224  0.7255
 6025TIP3   OH242269   2.869   0.889  12.570  0.4161  0.2151  0.0036
 6025TIP3    H142270   2.909   0.972  12.542  1.8898 -0.3382  0.3739
 6025TIP3    H242271   2.927   0.858  12.639 -1.2186 -0.1692  1.2396
 6026TIP3   OH242272   4.616   0.867  10.981  0.6003  0.5086  0.4138
 6026TIP3    H142273   4.560   0.873  11.059 -0.5733  1.4684 -0.4675
 6026TIP3    H242274   4.620   0.957  10.948 -0.3445 -0.1131 -1.5839
 6027TIP3   OH242275   5.157   0.419  12.768  0.0286  0.2367 -0.5990
 6027TIP3    H142276   5.228   0.480  12.787  0.2614  0.0710 -0.9364
 6027TIP3    H242277   5.081   0.457  12.812  0.4067  0.2209  0.0754
 6028TIP3   OH242278   7.618   3.002  10.334 -0.1628  0.2560 -0.5612
 6028TIP3    H142279   7.639   2.931  10.394  0.8097  0.6406 -0.4367
 6028TIP3    H242280   7.679   2.992  10.261 -0.7716  0.2968 -1.0881
 6029TIP3   OH242281   1.456   2.076  10.709  0.1756 -0.6784 -0.2898
 6029TIP3    H142282   1.367   2.090  10.675 -0.2004  1.2403  1.3022
 6029TIP3    H242283   1.452   2.107  10.799  2.3365 -1.1095  0.0054
 6030TIP3   OH242284   5.236   1.091  11.140 -0.1421  0.1732  0.1670
 6030TIP3    H142285   5.244   1.082  11.045 -0.1048  0.5304  0.1342
 6030TIP3    H242286   5.145   1.069  11.159 -0.1792  0.2133  0.0342
 6031TIP3   OH242287   7.552   4.433  11.467  0.1793 -0.0166 -0.1759
 6031TIP3    H142288   7.554   4.351  11.418  3.4134  0.6369 -1.3937
 6031TIP3    H242289   7.539   4.406  11.558  0.8779 -1.8866 -0.5773
 6032TIP3   OH242290   5.868   4.488  10.593 -0.1826  0.5814 -0.3766
 6032TIP3    H142291   5.948   4.488  10.540 -2.1530 -0.5501 -3.6129
 6032TIP3    H242292   5.824   4.569  10.571 -0.6933  0.4453  0.1223
 6033TIP3   OH242293   6.668   2.017  12.476  0.7560 -0.1451 -0.2376
 6033TIP3    H142294   6.621   1.969  12.544 -0.5148 -0.1039 -1.0526
 6033TIP3    H242295   6.660   2.109  12.501 -2.6440  0.2298 -2.0486
 6034TIP3   OH242296   5.985   4.905  11.372  0.4458 -0.1321  0.2036
 6034TIP3    H142297   5.987   4.994  11.338  1.8961 -0.5166 -0.8762
 6034TIP3    H242298   5.932   4.856  11.309 -0.0139 -0.1023  0.5706
 6035TIP3   OH242299   6.359   7.455  12.610  0.0966  0.3413  0.0700
 6035TIP3    H142300   6.379   7.437  12.701 -0.0085  1.9470  0.4299
 6035TIP3    H242301   6.424   7.519  12.582  0.7654 -0.8716 -1.3064
 6036TIP3   OH242302   6.414   2.058  10.914  0.5079 -0.7887  0.2243
 6036TIP3    H142303   6.378   1.985  10.964  0.3401 -1.1877 -0.4664
 6036TIP3    H242304   6.450   2.018  10.836  2.2374 -0.3614  0.7677
 6037TIP3   OH242305   1.232   5.479  12.453  0.1175  0.0992  0.2563
 6037TIP3    H142306   1.279   5.502  12.533  0.4487  0.8435 -0.1383
 6037TIP3    H242307   1.141   5.500  12.472  0.6403  4.0589 -0.8074
 6038TIP3   OH242308   6.472   2.453  12.218 -0.3231  0.1352 -0.1065
 6038TIP3    H142309   6.391   2.446  12.168 -0.2797  0.4291 -0.2211
 6038TIP3    H242310   6.472   2.543  12.252 -0.6395 -0.2473  0.9220
 6039TIP3   OH242311   2.785   1.457  12.889 -0.0095  0.0102  0.2113
 6039TIP3    H142312   2.802   1.373  12.847 -0.0074  0.3756 -0.5263
 6039TIP3    H242313   2.863   1.475  12.941  0.6497  0.2880 -0.8486
 6040TIP3   OH242314   3.787   2.983  10.951  0.4859  0.4731 -0.7807
 6040TIP3    H142315   3.694   2.959  10.951 -0.0161  2.1871  1.1220
 6040TIP3    H242316   3.803   3.019  11.038  2.9013  0.4307 -1.1472
 6041TIP3   OH242317   2.496   4.970  11.027  0.3095  0.4811  0.0412
 6041TIP3    H142318   2.422   4.966  11.088  0.7366 -2.2618  0.4732
 6041TIP3    H242319   2.574   4.965  11.083  0.7475 -0.0912 -0.6068
 6042TIP3   OH242320   3.927   4.475  11.377  0.0179  0.4183 -0.1041
 6042TIP3    H142321   3.857   4.540  11.376 -2.7792 -2.3260  1.4732
 6042TIP3    H242322   3.952   4.468  11.469  1.0557 -0.0137 -0.4018
 6043TIP3   OH242323   7.006   5.294  11.985 -0.3172  0.0427 -0.0518
 6043TIP3    H142324   6.954   5.274  11.907 -0.3960  0.5141 -0.1222
 6043TIP3    H242325   6.977   5.230  12.051 -2.4353  1.5209  0.5477
 6044TIP3   OH242326   0.855   1.634  11.249  0.2175 -0.5611 -0.7732
 6044TIP3    H142327   0.831   1.692  11.176 -0.9455 -0.8107 -0.6086
 6044TIP3    H242328   0.834   1.684  11.327  1.9102 -0.1071 -0.5594
 6045TIP3   OH242329   0.194   3.296  12.214  0.0592  0.7133 -0.2690
 6045TIP3    H142330   0.179   3.377  12.262 -3.5434  0.5982 -0.9182
 6045TIP3    H242331   0.197   3.323  12.122  2.3509  0.4305 -0.3209
 6046TIP3   OH242332   0.243   1.145  12.415 -0.1078 -0.0389 -0.1604
 6046TIP3    H142333   0.251   1.239  12.431 -0.5629 -0.1088  0.5134
 6046TIP3    H242334   0.313   1.125  12.352 -0.4083  0.8585 -0.8046
 6047TIP3   OH242335   5.878   7.113  10.646  0.2388 -0.2801  0.0892
 6047TIP3    H142336   5.857   7.020  10.645 -0.9025 -0.1318  2.6978
 6047TIP3    H242337   5.796   7.156  10.671  1.6465  1.0060  2.9862
 6048TIP3   OH242338   2.386   5.084  11.862  0.4206 -0.2073  0.6695
 6048TIP3    H142339   2.469   5.039  11.846  1.8206  0.9847  3.7505
 6048TIP3    H242340   2.394   5.166  11.813 -0.2029 -1.2810 -1.3057
 6049TIP3   OH242341   3.655   0.158  12.138  0.0035  0.0619 -0.4669
 6049TIP3    H142342   3.661   0.218  12.213 -1.5699 -0.3522  0.0252
 6049TIP3    H242343   3.561   0.153  12.119  0.4506  1.5645 -3.6534
 6050TIP3   OH242344   6.561   1.672  11.381 -0.0525 -0.1096 -0.0965
 6050TIP3    H142345   6.577   1.585  11.417 -2.8100 -1.2617 -1.3994
 6050TIP3    H242346   6.591   1.667  11.291  0.2020  0.4929 -0.0564
 6051TIP3   OH242347   1.838   6.568  11.998  0.1218 -0.3962  0.0220
 6051TIP3    H142348   1.748   6.567  11.968 -0.5418  1.9186  1.6851
 6051TIP3    H242349   1.838   6.512  12.076  0.1723 -0.5644 -0.0990
 6052TIP3   OH242350   3.682   1.341  13.008  0.1054  0.2346 -0.0526
 6052TIP3    H142351   3.607   1.316  12.954  1.2058 -0.0766 -1.4918
 6052TIP3    H242352   3.676   1.437  13.015 -1.7375  0.0555  1.9042
 6053TIP3   OH242353   2.334   0.640  11.426 -0.0029 -0.4688  0.2033
 6053TIP3    H142354   2.399   0.613  11.491  1.2449 -0.0029 -0.7841
 6053TIP3    H242355   2.387   0.661  11.348 -1.4812 -1.7353 -1.2097
 6054TIP3   OH242356   0.188   1.587  11.523  0.4522 -0.4191 -0.5210
 6054TIP3    H142357   0.213   1.594  11.431  1.6523  0.2185 -0.1707
 6054TIP3    H242358   0.103   1.543  11.522  0.7413 -0.9817 -1.8880
 6055TIP3   OH242359   5.349   4.889  11.794  0.1313  0.0616  0.0202
 6055TIP3    H142360   5.355   4.973  11.749  0.3821  0.0661  0.0604
 6055TIP3    H242361   5.311   4.910  11.879 -1.5781 -0.1162 -0.6559
 6056TIP3   OH242362   6.957   6.853  12.797  0.4166 -0.1243  0.4218
 6056TIP3    H142363   7.006   6.851  12.715 -0.5667  1.0430 -0.2351
 6056TIP3    H242364   6.888   6.788  12.786  0.7867 -0.5667  0.6738
 6057TIP3   OH242365   2.686   3.551  11.710  0.0019  0.6992  0.1485
 6057TIP3    H142366   2.696   3.609  11.786  1.8581  0.3350  0.2262
 6057TIP3    H242367   2.693   3.609  11.634 -2.9941  1.2423  0.1728
 6058TIP3   OH242368   2.518   6.144  11.781  0.1783  0.2656 -0.1857
 6058TIP3    H142369   2.601   6.111  11.815 -0.1909 -0.7737 -0.2735
 6058TIP3    H242370   2.499   6.089  11.705 -0.9301  0.0434  0.2372
 6059TIP3   OH242371   5.067   2.112  11.859 -0.4505 -0.0675 -0.2771
 6059TIP3    H142372   5.077   2.202  11.827 -2.7128  0.9044  1.4504
 6059TIP3    H242373   5.017   2.069  11.790 -0.7206  0.4642 -0.4251
 6060TIP3   OH242374   0.574   3.283  12.523 -0.1310  0.5036 -0.2289
 6060TIP3    H142375   0.484   3.278  12.556 -0.5670  2.6662 -0.9083
 6060TIP3    H242376   0.613   3.357  12.570  1.2300 -0.2432 -0.1314
 6061TIP3   OH242377   1.429   4.694  12.716  0.1197  0.3810 -0.3570
 6061TIP3    H142378   1.504   4.652  12.758 -0.1526  1.1486  0.9288
 6061TIP3    H242379   1.359   4.628  12.720  0.2685  0.2354 -0.1493
 6062TIP3   OH242380   1.515   0.622  12.175 -0.1785 -0.2004 -0.1389
 6062TIP3    H142381   1.562   0.599  12.255  0.5642 -0.3437 -0.6131
 6062TIP3    H242382   1.427   0.584  12.188 -0.3625  0.5654  0.9901
 6063TIP3   OH242383   3.199   4.805  12.814 -0.4029 -0.2566 -0.1694
 6063TIP3    H142384   3.213   4.851  12.731 -0.8048  1.5491  0.7005
 6063TIP3    H242385   3.287   4.794  12.850 -0.3400  0.6979  0.0144
 6064TIP3   OH242386   0.297   7.076  10.576 -0.4499 -0.6604 -0.2746
 6064TIP3    H142387   0.282   6.984  10.554  0.9861 -0.7243 -1.1264
 6064TIP3    H242388   0.377   7.075  10.628  0.2875  0.2040 -1.3529
 6065TIP3   OH242389   6.945   7.323  12.268  0.2193 -0.4324  0.0577
 6065TIP3    H142390   6.878   7.389  12.285  0.5313  0.2227 -1.1581
 6065TIP3    H242391   6.900   7.255  12.218  0.1908 -0.5691  0.2653
 6066TIP3   OH242392   5.918   0.570  12.501 -0.8160 -0.4307 -0.0293
 6066TIP3    H142393   5.946   0.581  12.591 -1.9387 -0.7435  0.3775
 6066TIP3    H242394   5.992   0.601  12.448 -0.7006  1.1128  0.9970
 6067TIP3   OH242395   1.152   3.833  12.219  0.1365  0.4783  0.0068
 6067TIP3    H142396   1.150   3.928  12.207  2.3296  0.5999  0.1612
 6067TIP3    H242397   1.191   3.800  12.138 -2.2537 -0.5266 -0.8327
 6068TIP3   OH242398   0.025   4.610  11.298  0.3289 -0.5951  0.3418
 6068TIP3    H142399  -0.048   4.575  11.349 -0.0958 -0.6423 -0.2903
 6068TIP3    H242400  -0.013   4.629  11.212 -0.2168  3.9895  1.3180
 6069TIP3   OH242401   4.693   6.303  11.577 -0.1105 -0.1405  0.2543
 6069TIP3    H142402   4.737   6.381  11.609  0.5787 -0.2834 -0.3021
 6069TIP3    H242403   4.605   6.332  11.554  0.2597  0.5678 -0.3137
 6070TIP3   OH242404   0.488   5.793  11.885  0.5243  0.1281 -0.3196
 6070TIP3    H142405   0.570   5.799  11.837  0.6729 -0.8655 -0.2089
 6070TIP3    H242406   0.427   5.750  11.825 -0.9710  3.7307 -1.7024
 6071TIP3   OH242407   4.772   5.209  12.017 -0.0388  0.7369  0.3286
 6071TIP3    H142408   4.796   5.277  11.954 -0.6828  0.2859 -0.4240
 6071TIP3    H242409   4.790   5.248  12.102  0.0486  1.6734 -0.1062
 6072TIP3   OH242410   2.697   4.847  12.176  0.2598 -0.2961  0.0081
 6072TIP3    H142411   2.714   4.907  12.104  0.7137  0.4284  0.7063
 6072TIP3    H242412   2.735   4.764  12.146 -2.2907 -0.8940 -1.8951
 6073TIP3   OH242413   6.257   2.580  11.618 -0.3482 -0.6595  0.2360
 6073TIP3    H142414   6.298   2.559  11.702  1.2842 -0.7219 -0.5229
 6073TIP3    H242415   6.302   2.524  11.555 -1.7104 -0.7947 -0.6643
 6074TIP3   OH242416   0.138   2.108  12.432  0.3996  0.3928 -0.1072
 6074TIP3    H142417   0.163   2.031  12.382  0.9874 -0.3083  1.2061
 6074TIP3    H242418   0.218   2.159  12.440  0.8550 -0.5054  1.7762
 6075TIP3   OH242419   1.754   1.001  11.358 -0.8653  0.6829 -0.3228
 6075TIP3    H142420   1.829   0.950  11.330 -1.3514 -1.6409  2.1993
 6075TIP3    H242421   1.694   0.999  11.283 -0.1728 -1.0862 -0.8731
 6076TIP3   OH242422   1.390   3.169  13.179 -0.0381 -0.8118  0.2520
 6076TIP3    H142423   1.356   3.098  13.234  0.0476 -0.4665  0.7585
 6076TIP3    H242424   1.381   3.247  13.232  0.3659 -0.5212 -0.0966
 6077TIP3   OH242425   1.299   6.873  12.503 -0.2909  0.6302  0.4412
 6077TIP3    H142426   1.386   6.832  12.507 -0.6552 -0.0466  1.9887
 6077TIP3    H242427   1.250   6.819  12.441  0.7470  1.8170 -1.5279
 6078TIP3   OH242428   2.787   2.227  12.366  0.5192 -0.0670  0.1363
 6078TIP3    H142429   2.718   2.290  12.388 -0.7903 -0.7119 -1.8532
 6078TIP3    H242430   2.753   2.143  12.397 -0.0464 -0.5227 -1.6092
 6079TIP3   OH242431   7.589   0.059  12.387  0.9512 -0.1986  0.0735
 6079TIP3    H142432   7.571  -0.035  12.391 -0.3144  0.0653  1.9154
 6079TIP3    H242433   7.570   0.090  12.476 -0.0342  2.0312 -0.8546
 6080TIP3   OH242434   3.673   1.936  11.689 -0.1967 -0.3279  0.4196
 6080TIP3    H142435   3.686   2.027  11.715 -0.7510 -0.4716  1.2558
 6080TIP3    H242436   3.585   1.933  11.652  0.2008 -0.3317 -0.5331
 6081TIP3   OH242437   0.577   5.277  11.435 -0.2353 -0.5472  0.3974
 6081TIP3    H142438   0.549   5.288  11.526  1.0110 -1.3529  0.9043
 6081TIP3    H242439   0.642   5.207  11.438  0.7364  0.2407 -0.9279
 6082TIP3   OH242440   1.506   4.209  11.349 -0.6222  0.2352 -0.5743
 6082TIP3    H142441   1.597   4.177  11.350 -0.4448  0.6391 -1.7519
 6082TIP3    H242442   1.494   4.242  11.260 -2.0821 -0.2411 -0.5722
 6083TIP3   OH242443   5.027   2.485  10.932 -0.2428 -0.4286 -0.9230
 6083TIP3    H142444   4.964   2.482  10.859  1.2026  1.4266 -2.3545
 6083TIP3    H242445   4.975   2.462  11.009 -2.0499 -1.5765 -2.3804
 6084TIP3   OH242446   4.437   5.373  12.028  0.0718  0.5195  0.5679
 6084TIP3    H142447   4.458   5.283  12.003 -2.5866 -0.0400  0.0047
 6084TIP3    H242448   4.477   5.427  11.959  1.9879 -0.1600  1.1012
 6085TIP3   OH242449   3.029   2.024  12.078  0.6218 -0.1038 -0.2492
 6085TIP3    H142450   2.976   1.952  12.044  1.0391 -0.5084 -0.0594
 6085TIP3    H242451   3.058   1.993  12.164  0.6308  0.3804 -0.0747
 6086TIP3   OH242452   4.096   0.931  12.036  0.0452 -0.1291 -0.0477
 6086TIP3    H142453   4.113   0.938  11.942  0.6576 -0.8111  0.0038
 6086TIP3    H242454   4.109   1.020  12.069  1.5259 -0.2088 -0.3473
 6087TIP3   OH242455   6.159   7.232  12.757  0.0206  0.3021  0.5011
 6087TIP3    H142456   6.106   7.253  12.834 -0.5137 -2.5447  1.0097
 6087TIP3    H242457   6.243   7.274  12.774 -0.1940  0.0130  2.5029
 6088TIP3   OH242458   0.306   2.525  12.219 -0.2816  0.0106 -0.8190
 6088TIP3    H142459   0.352   2.447  12.187  0.6733  1.0013 -1.9606
 6088TIP3    H242460   0.219   2.519  12.181 -1.1761 -1.8281  1.2689
 6089TIP3   OH242461   6.468   7.474  13.140 -0.3211  0.3644 -0.1652
 6089TIP3    H142462   6.519   7.534  13.194  0.7168  0.8979 -1.6617
 6089TIP3    H242463   6.398   7.443  13.197  0.7586  0.8386  1.4778
 6090TIP3   OH242464   7.335   6.563  12.478  0.7665  0.0250 -0.6686
 6090TIP3    H142465   7.401   6.553  12.409  0.7796  0.4288 -0.7155
 6090TIP3    H242466   7.374   6.624  12.540  0.2613  0.6091 -0.9136
 6091TIP3   OH242467   2.436   0.223  11.794  0.6337  0.2504  0.1140
 6091TIP3    H142468   2.406   0.133  11.782 -1.0133  1.0036 -2.4330
 6091TIP3    H242469   2.518   0.228  11.744 -0.7406  0.7649 -2.2366
 6092TIP3   OH242470   5.927   4.258  12.227  0.2464  0.0087  0.2396
 6092TIP3    H142471   5.986   4.194  12.187  1.5193  0.1261  1.8465
 6092TIP3    H242472   5.932   4.240  12.321 -1.0544  1.0767  0.5376
 6093TIP3   OH242473   0.037   3.781  11.839 -0.3909  0.6012  0.4689
 6093TIP3    H142474   0.104   3.747  11.779 -1.3592 -1.3406  0.4146
 6093TIP3    H242475  -0.036   3.806  11.782 -1.4370 -1.5412  0.7851
 6094TIP3   OH242476   4.823   3.647  11.701 -0.2513  0.3080 -0.3283
 6094TIP3    H142477   4.810   3.705  11.775 -1.4166 -1.8549  1.2849
 6094TIP3    H242478   4.906   3.675  11.662  0.5967  1.3150  2.0135
 6095TIP3   OH242479   3.289   4.672  10.755 -0.1581 -0.1277 -0.3982
 6095TIP3    H142480   3.207   4.714  10.729  0.3432  0.8245 -0.4524
 6095TIP3    H242481   3.261   4.591  10.797 -1.1679  0.5969  0.3682
 6096TIP3   OH242482   6.589   0.758  11.491 -0.2747  0.1239 -0.9140
 6096TIP3    H142483   6.522   0.782  11.427 -1.1945 -0.9840 -0.3951
 6096TIP3    H242484   6.666   0.737  11.439 -0.9350 -0.5221 -1.6530
 6097TIP3   OH242485   6.046   3.351  11.060  0.2679 -0.4627  0.2397
 6097TIP3    H142486   6.008   3.289  10.998  0.4747 -0.2851 -0.0635
 6097TIP3    H242487   6.044   3.304  11.144 -0.9645 -0.3233  0.3126
 6098TIP3   OH242488   2.634   6.109  10.779  0.4896  0.4124 -0.0761
 6098TIP3    H142489   2.636   6.027  10.828 -0.0826  1.4829  1.8381
 6098TIP3    H242490   2.552   6.151  10.806  1.8307  2.6475  0.7820
 6099TIP3   OH242491   5.156   1.790  11.702 -0.2296 -0.2010 -0.2459
 6099TIP3    H142492   5.251   1.787  11.690 -0.4037 -1.4619 -1.5292
 6099TIP3    H242493   5.144   1.777  11.796  0.9354  2.8814  0.4499
 6100TIP3   OH242494   4.033   3.697  12.811  0.3623  0.4017 -0.1804
 6100TIP3    H142495   3.976   3.675  12.737  1.1912  1.8681 -1.3045
 6100TIP3    H242496   3.980   3.755  12.865 -0.6486 -1.5347  1.0577
 6101TIP3   OH242497   5.366   0.876  12.412 -0.2766 -0.1334 -0.5867
 6101TIP3    H142498   5.442   0.870  12.470  1.0914  1.3195 -2.1224
 6101TIP3    H242499   5.315   0.949  12.447 -0.6560 -0.6877  0.0536
 6102TIP3   OH242500   4.379   7.324  12.990 -0.2313 -0.1955  0.4389
 6102TIP3    H142501   4.351   7.333  13.081  0.5469 -0.5560  0.7289
 6102TIP3    H242502   4.450   7.387  12.980 -0.3955 -0.0665  0.0398
 6103TIP3   OH242503   5.766   2.034  10.893 -0.0362 -0.5120  0.0173
 6103TIP3    H142504   5.714   1.954  10.890 -0.2068 -0.5246  1.9991
 6103TIP3    H242505   5.836   2.015  10.955 -0.1547  0.8927  0.6245
 6104TIP3   OH242506   1.833   4.620  12.906  0.3304  0.1323 -0.1023
 6104TIP3    H142507   1.760   4.673  12.936 -0.0483  1.5840 -3.1339
 6104TIP3    H242508   1.793   4.551  12.853  1.0016 -1.6664  1.5899
 6105TIP3   OH242509   0.200   0.740  11.685 -0.0741  0.3472  0.0842
 6105TIP3    H142510   0.237   0.672  11.741  0.7776  1.2628  0.6633
 6105TIP3    H242511   0.115   0.761  11.725 -0.7003 -0.8922 -0.5432
 6106TIP3   OH242512   6.565   4.124  12.838 -0.5660  0.4819  0.4505
 6106TIP3    H142513   6.576   4.179  12.916  0.9434  1.2069 -0.2211
 6106TIP3    H242514   6.527   4.182  12.773  0.0413  0.4507  0.0590
 6107TIP3   OH242515   1.090   1.241  12.341 -0.3835 -0.2386  0.7256
 6107TIP3    H142516   1.165   1.244  12.401 -0.8005  1.1235  1.2287
 6107TIP3    H242517   1.114   1.302  12.271 -1.3292  0.8664  1.3200
 6108TIP3   OH242518   7.509   2.093  12.504  0.3324  0.0673 -0.0298
 6108TIP3    H142519   7.414   2.081  12.508  0.3311 -0.1632 -0.6429
 6108TIP3    H242520   7.545   2.014  12.543  0.2767 -0.1499 -0.4135
 6109TIP3   OH242521   1.766   3.072  11.213  0.2734  0.3823  0.1296
 6109TIP3    H142522   1.808   3.114  11.137  0.2023  1.8371  0.8518
 6109TIP3    H242523   1.735   2.988  11.180  0.2070  0.9997 -1.4765
 6110TIP3   OH242524   4.735   1.008  11.367  0.0154  0.4879  0.5343
 6110TIP3    H142525   4.713   1.036  11.456 -1.4521 -0.0160  0.3520
 6110TIP3    H242526   4.741   0.913  11.372 -3.0447  0.1316 -0.4392
 6111TIP3   OH242527   0.207   7.060  12.827  0.3427  0.0549  0.7874
 6111TIP3    H142528   0.261   6.980  12.829  1.3742  0.7402  2.1482
 6111TIP3    H242529   0.117   7.028  12.821  0.6584 -1.2786  2.3735
 6112TIP3   OH242530   6.230   3.833  13.021  0.1900  0.3030 -0.5734
 6112TIP3    H142531   6.160   3.899  13.019  0.0792  0.2484  0.6887
 6112TIP3    H242532   6.275   3.843  12.937  0.2037  2.0221 -0.3876
 6113TIP3   OH242533   2.504   0.668  12.756  0.7396  0.4156 -0.3033
 6113TIP3    H142534   2.470   0.743  12.805  0.5508 -0.4204  0.9193
 6113TIP3    H242535   2.427   0.613  12.739  0.9890  0.0991 -0.4368
 6114TIP3   OH242536   2.015   2.153  12.510 -0.3178  0.2537 -0.6301
 6114TIP3    H142537   2.081   2.099  12.553 -1.8126 -0.5509  0.7763
 6114TIP3    H242538   2.012   2.233  12.562 -0.2010  0.4364 -0.9035
 6115TIP3   OH242539   5.076   7.617  12.540 -0.3331 -0.8035 -0.3251
 6115TIP3    H142540   5.082   7.627  12.635  0.3120  0.3105 -0.4672
 6115TIP3    H242541   5.166   7.601  12.512 -0.2540  0.5739 -0.9180
 6116TIP3   OH242542   3.780   7.490  11.309 -0.0839  0.5215  0.2620
 6116TIP3    H142543   3.723   7.413  11.320 -0.9980  1.3312  1.3621
 6116TIP3    H242544   3.723   7.565  11.326  0.7437  1.4797 -0.9967
 6117TIP3   OH242545   2.345   4.014  10.918  0.4936  0.5845 -0.3919
 6117TIP3    H142546   2.363   3.931  10.961  1.5941  0.7864 -0.4341
 6117TIP3    H242547   2.395   4.078  10.968 -0.2073  1.2031 -0.4611
 6118TIP3   OH242548   1.797   1.576  12.014  0.2449 -0.5784  0.1778
 6118TIP3    H142549   1.785   1.642  12.082  0.6699  0.3632 -0.6303
 6118TIP3    H242550   1.756   1.497  12.049  0.6396 -0.1806  1.6114
 6119TIP3   OH242551   1.579   4.746  12.943  0.1579  0.6335  0.4371
 6119TIP3    H142552   1.522   4.806  12.895  0.9724  1.3791  0.3792
 6119TIP3    H242553   1.530   4.726  13.023 -0.7969  0.1264 -0.2531
 6120TIP3   OH242554   3.947   1.874  12.053 -0.2546 -0.4396  0.3571
 6120TIP3    H142555   3.907   1.877  12.140 -0.0267 -1.5479  0.5106
 6120TIP3    H242556   3.874   1.858  11.993 -0.6980  2.1110  0.0998
 6121TIP3   OH242557   6.666   6.639  10.856  0.2868 -0.0212  0.2586
 6121TIP3    H142558   6.700   6.556  10.888 -1.0010 -0.9203 -0.6166
 6121TIP3    H242559   6.580   6.648  10.896 -0.1401  0.2277 -0.6767
 6122TIP3   OH242560   2.932   4.050  12.715  0.4699  0.5883 -0.3329
 6122TIP3    H142561   3.026   4.037  12.727  0.5007 -2.5867 -2.7271
 6122TIP3    H242562   2.891   3.994  12.782  0.2322  1.4213  0.2440
 6123TIP3   OH242563   1.018   0.823  13.298 -0.8419  0.1174 -0.3320
 6123TIP3    H142564   1.023   0.740  13.346 -2.6843 -0.1748 -0.6027
 6123TIP3    H242565   1.070   0.808  13.219 -0.9198 -0.6724 -0.2380
 6124TIP3   OH242566   0.050   7.276  12.315  0.0640 -0.4826  0.3953
 6124TIP3    H142567   0.059   7.181  12.315  0.6984 -0.4316  0.8310
 6124TIP3    H242568   0.138   7.309  12.337  0.3431  0.2701 -1.6142
 6125TIP3   OH242569   7.157   3.658  10.498  0.1092 -0.3823  0.0467
 6125TIP3    H142570   7.169   3.563  10.499 -0.3558 -0.4527 -0.2947
 6125TIP3    H242571   7.073   3.670  10.453 -0.9888  0.0573  2.0466
 6126TIP3   OH242572   3.127   6.874  11.847  0.4735 -0.0096  0.3593
 6126TIP3    H142573   3.166   6.905  11.929  2.7987 -1.6693 -0.0204
 6126TIP3    H242574   3.201   6.840  11.797 -1.3564 -2.2948 -0.9603
 6127TIP3   OH242575   6.576   0.093  11.347  0.1177 -0.2644 -0.0459
 6127TIP3    H142576   6.596   0.067  11.257  1.5335 -0.6393  0.3544
 6127TIP3    H242577   6.501   0.039  11.372 -1.1535  0.7828 -1.4222
 6128TIP3   OH242578   3.671   6.002  12.499  0.5288  0.7032  0.9346
 6128TIP3    H142579   3.721   6.069  12.546  2.9048 -0.2809 -0.0228
 6128TIP3    H242580   3.676   5.924  12.555  1.5178  0.1406  0.1007
 6129TIP3   OH242581   4.232   7.335  11.330  0.2388 -0.4212  0.1169
 6129TIP3    H142582   4.235   7.415  11.382  2.0246 -0.3780 -0.0026
 6129TIP3    H242583   4.188   7.360  11.249  0.3893  0.3218  0.2621
 6130TIP3   OH242584   7.039   0.354  11.945  0.1494  0.0026  0.3819
 6130TIP3    H142585   7.108   0.331  11.882  0.4890  0.1091  0.7073
 6130TIP3    H242586   7.082   0.414  12.006  0.1699 -1.0527  1.4291
 6131TIP3   OH242587   5.106   3.432  10.193  0.1515 -0.1348  0.1070
 6131TIP3    H142588   5.043   3.487  10.145 -0.5752 -1.0064  0.0347
 6131TIP3    H242589   5.052   3.388  10.259  1.0778  0.7961  1.5310
 6132TIP3   OH242590   1.509   1.099  10.877  0.0357  0.1129 -0.4956
 6132TIP3    H142591   1.562   1.038  10.929  0.4894  0.7446 -0.2052
 6132TIP3    H242592   1.443   1.131  10.939  0.0189  0.1779 -0.5473
 6133TIP3   OH242593   0.284   2.867  13.006  0.1135 -0.1768 -0.4584
 6133TIP3    H142594   0.268   2.773  13.005  0.3680 -0.2161 -1.5180
 6133TIP3    H242595   0.224   2.903  12.940  0.8158  0.2612 -0.8748
 6134TIP3   OH242596   5.184   5.447  10.475 -0.1132  0.4573 -0.6187
 6134TIP3    H142597   5.150   5.534  10.494 -1.0673  0.0068 -0.2087
 6134TIP3    H242598   5.279   5.459  10.467 -0.2795  1.5901 -0.9574
 6135TIP3   OH242599   1.490   0.034  13.002 -0.0862  0.2873 -0.4376
 6135TIP3    H142600   1.583   0.046  13.018 -0.2118 -0.7613  1.2552
 6135TIP3    H242601   1.459   0.121  12.977  1.1181  0.9221  0.2004
 6136TIP3   OH242602   3.109   6.498  12.783  0.0828 -0.4561  0.4324
 6136TIP3    H142603   3.031   6.473  12.733 -0.0776 -0.5984  0.7521
 6136TIP3    H242604   3.117   6.593  12.768  0.0713 -0.5054  0.0930
 6137TIP3   OH242605   3.043   6.624  11.130  0.5090 -0.5611  0.5888
 6137TIP3    H142606   2.979   6.646  11.198  1.4186  1.0314  0.9810
 6137TIP3    H242607   3.103   6.562  11.172 -0.4963 -1.7554  0.3382
 6138TIP3   OH242608   0.103   3.493  12.695 -0.2001 -0.1315  0.8504
 6138TIP3    H142609   0.191   3.526  12.711 -0.5794  0.8310  1.0561
 6138TIP3    H242610   0.076   3.454  12.779 -0.1556  0.0161  0.9331
 6139TIP3   OH242611   5.386   1.622  11.112 -0.4335 -0.0967  0.2229
 6139TIP3    H142612   5.296   1.589  11.103 -0.3732 -0.8834  2.1946
 6139TIP3    H242613   5.387   1.700  11.056 -2.2222 -0.2979 -0.1773
 6140TIP3   OH242614   2.879   4.644  12.093  0.8329 -0.4076  0.0323
 6140TIP3    H142615   2.961   4.677  12.130  0.9888 -1.2114  0.4372
 6140TIP3    H242616   2.904   4.560  12.053  0.0428 -1.1247  0.9853
 6141TIP3   OH242617   7.319   5.164  11.563  0.0130 -0.0552 -0.1948
 6141TIP3    H142618   7.315   5.184  11.469  0.9475 -1.3408 -0.5258
 6141TIP3    H242619   7.413   5.160  11.583 -0.1406  1.6414  1.1466
 6142TIP3   OH242620   6.789   3.090  11.477 -0.5882  0.2966  0.1251
 6142TIP3    H142621   6.859   3.142  11.437  0.6840  0.0324  1.8923
 6142TIP3    H242622   6.741   3.153  11.530 -1.7766  0.4856 -1.1233
 6143TIP3   OH242623   4.467   7.232  12.736  0.1159 -0.2739 -0.2622
 6143TIP3    H142624   4.411   7.262  12.807 -0.3474  0.9188 -1.0964
 6143TIP3    H242625   4.556   7.256  12.762  0.2993 -2.1919  1.0795
 6144TIP3   OH242626   2.405   6.174  10.902  0.0615 -0.0595 -0.0760
 6144TIP3    H142627   2.448   6.134  10.976  0.3124 -0.1018 -0.2441
 6144TIP3    H242628   2.393   6.266  10.927 -0.6843 -0.2775  0.3830
 6145TIP3   OH242629   2.635   0.026  12.570  0.2267 -0.2669 -0.3407
 6145TIP3    H142630   2.578  -0.020  12.508 -0.1100  2.3700 -2.1546
 6145TIP3    H242631   2.722  -0.008  12.551  0.0425  0.0294 -1.8763
 6146TIP3   OH242632   4.269   0.414  12.518  0.4987  0.1120 -0.6836
 6146TIP3    H142633   4.356   0.389  12.549  0.3170  0.4941  0.1585
 6146TIP3    H242634   4.223   0.330  12.509  0.4905 -0.0063  0.3132
 6147TIP3   OH242635   6.291   1.862  11.062  0.0325 -0.3079 -0.1749
 6147TIP3    H142636   6.243   1.801  11.118  0.1190 -0.5243 -0.3348
 6147TIP3    H242637   6.370   1.884  11.112 -0.5171  0.5145  0.3415
 6148TIP3   OH242638   2.115   1.001  10.476 -0.1454  0.5488 -0.0730
 6148TIP3    H142639   2.031   1.047  10.474  0.5330  1.8166 -1.1585
 6148TIP3    H242640   2.092   0.909  10.490 -1.7388  0.7953 -0.8547
 6149TIP3   OH242641   1.326   6.736  10.988 -0.6249  0.1242  0.1577
 6149TIP3    H142642   1.252   6.692  10.946 -0.2154 -0.6039  0.1858
 6149TIP3    H242643   1.286   6.805  11.041 -1.4967 -1.7928  2.1302
 6150TIP3   OH242644   1.581   7.607  12.431  0.0443 -0.1748  0.0067
 6150TIP3    H142645   1.642   7.645  12.494 -0.5612  0.6429  0.1187
 6150TIP3    H242646   1.498   7.601  12.477  0.0271 -1.2860 -0.1460
 6151TIP3   OH242647   4.892   4.445  10.568 -0.6273  0.8992  0.9584
 6151TIP3    H142648   4.877   4.395  10.648  0.4818 -0.7458  0.2007
 6151TIP3    H242649   4.851   4.392  10.499  1.4473  0.4541 -0.0068
 6152TIP3   OH242650   1.085   6.596  10.886 -0.0001  0.4540 -0.2450
 6152TIP3    H142651   1.100   6.516  10.937  0.2960  0.4776 -0.2916
 6152TIP3    H242652   0.995   6.620  10.905 -0.3620 -0.3578 -0.8828
 6153TIP3   OH242653   4.935   4.949  11.539 -0.3143 -0.3404  0.3478
 6153TIP3    H142654   4.997   4.877  11.551  0.6478  0.1701 -1.3084
 6153TIP3    H242655   4.886   4.926  11.461 -2.3290 -0.7559  1.6506
 6154TIP3   OH242656   7.145   6.613  10.414 -0.0416  0.3277 -0.1111
 6154TIP3    H142657   7.212   6.547  10.435  0.0050  0.1990 -0.6597
 6154TIP3    H242658   7.066   6.582  10.458  0.1543  0.2601  0.1937
 6155TIP3   OH242659   6.452   3.620  11.390 -0.0621 -0.1199 -0.8166
 6155TIP3    H142660   6.515   3.573  11.445 -0.2890  1.7043  1.1312
 6155TIP3    H242661   6.369   3.575  11.404  0.1715 -0.5418 -0.7909
 6156TIP3   OH242662   6.580   4.324  13.035  0.0658 -0.6226  0.2677
 6156TIP3    H142663   6.654   4.342  13.093  0.0029  2.1746 -0.3727
 6156TIP3    H242664   6.506   4.368  13.076 -0.5049 -0.5777 -0.7768
 6157TIP3   OH242665   2.831   6.831  12.536 -0.2864 -0.1427 -0.6280
 6157TIP3    H142666   2.923   6.810  12.551 -0.3498  0.3402  0.5891
 6157TIP3    H242667   2.806   6.885  12.612 -1.9799 -1.5300 -0.1283
 6158TIP3   OH242668   5.870   4.976  13.389  0.0904 -0.3209  0.1241
 6158TIP3    H142669   5.948   5.029  13.373  0.3879 -1.1712 -1.3775
 6158TIP3    H242670   5.897   4.886  13.371 -1.3948 -0.5686 -1.0874
 6159TIP3   OH242671   6.520   6.578  11.075  0.4684  0.2466 -0.0760
 6159TIP3    H142672   6.444   6.627  11.106 -0.2474 -0.0218 -1.3540
 6159TIP3    H242673   6.595   6.623  11.115 -0.1834  2.2060 -0.9394
 6160TIP3   OH242674   6.436   2.896  11.125 -0.0673 -0.0110  0.5816
 6160TIP3    H142675   6.457   2.893  11.032 -0.1115  0.4593  0.5548
 6160TIP3    H242676   6.396   2.982  11.138 -2.5969 -1.0807  0.4970
 6161TIP3   OH242677   2.505   7.652  12.097 -0.3471 -0.8326  0.2887
 6161TIP3    H142678   2.556   7.604  12.032 -0.1174 -0.1289 -0.0536
 6161TIP3    H242679   2.490   7.588  12.167 -0.4083 -1.5350 -0.3457
 6162TIP3   OH242680   4.734   3.620  11.141  0.3107  0.0228 -0.6660
 6162TIP3    H142681   4.736   3.540  11.089  0.2950  0.2534 -1.0245
 6162TIP3    H242682   4.653   3.614  11.191  1.4169 -1.2830  1.0693
 6163TIP3   OH242683   1.397   3.705  12.302 -0.2754 -0.9592 -0.4384
 6163TIP3    H142684   1.439   3.782  12.263 -0.2453 -0.4031  0.6674
 6163TIP3    H242685   1.303   3.722  12.294 -0.2885 -1.2989 -1.1254
 6164TIP3   OH242686   4.712   5.130  11.557  0.5941  0.1400  0.4303
 6164TIP3    H142687   4.748   5.211  11.521 -0.4119  0.9614  1.2037
 6164TIP3    H242688   4.786   5.070  11.562  1.2489  0.8228 -0.6688
 6165TIP3   OH242689   6.765   4.341  11.104 -0.1976  0.3188  0.1428
 6165TIP3    H142690   6.825   4.268  11.089 -0.1432  0.6075 -1.1148
 6165TIP3    H242691   6.678   4.302  11.095 -0.1660  0.5766 -1.4777
 6166TIP3   OH242692   7.282   7.600  12.728  0.3142 -0.1649  0.1763
 6166TIP3    H142693   7.372   7.569  12.717  0.5119  0.2131  0.7037
 6166TIP3    H242694   7.250   7.551  12.804 -0.1476 -0.7749 -0.3940
 6167TIP3   OH242695   0.917   5.774  11.557 -0.6432  0.1950  0.2598
 6167TIP3    H142696   0.867   5.764  11.476 -0.3511 -3.2334  0.3441
 6167TIP3    H242697   0.963   5.691  11.567  0.9724  1.2742  2.9012
 6168TIP3   OH242698   0.013   2.165  11.713 -0.2900  0.1926  0.4233
 6168TIP3    H142699   0.017   2.242  11.657 -0.2842 -1.0782 -1.4201
 6168TIP3    H242700  -0.077   2.133  11.704 -0.9392  1.1059  2.8507
 6169TIP3   OH242701   3.625   4.770  19.233 -0.3019  0.7550  0.0324
 6169TIP3    H142702   3.669   4.759  19.148 -1.2569  1.4282 -0.5720
 6169TIP3    H242703   3.696   4.790  19.294  0.6413 -1.5709 -0.2037
 6170TIP3   OH242704   2.415   6.777  11.096  0.0035 -0.1251  0.0229
 6170TIP3    H142705   2.399   6.694  11.141  0.1870 -0.3924 -0.4045
 6170TIP3    H242706   2.509   6.791  11.105  0.0529 -0.2201 -0.3497
 6171TIP3   OH242707   5.252   1.059  10.876  0.2808 -0.1860  0.0252
 6171TIP3    H142708   5.335   1.048  10.829 -0.6265  1.3102 -2.0642
 6171TIP3    H242709   5.185   1.030  10.814 -0.7963 -2.1447  1.9620
 6172TIP3   OH242710   5.816   3.049  10.731 -0.1533 -0.3340 -0.0430
 6172TIP3    H142711   5.778   2.971  10.691 -0.8355 -0.0573  0.0639
 6172TIP3    H242712   5.748   3.115  10.726  0.4082  0.2539 -0.0983
 6173TIP3   OH242713   0.797   2.286  11.012 -0.3827 -0.0335 -0.1177
 6173TIP3    H142714   0.706   2.315  11.003 -0.0944  1.0608  0.3905
 6173TIP3    H242715   0.831   2.285  10.922 -0.5907  0.5829 -0.2081
 6174TIP3   OH242716   6.018   3.092  12.734  0.4454  0.2701 -0.1751
 6174TIP3    H142717   5.927   3.116  12.752  1.1326  2.4938  0.6999
 6174TIP3    H242718   6.012   3.021  12.670 -1.8887  0.5097 -0.3068
 6175TIP3   OH242719   7.526   5.033  12.684  0.0419  0.8202 -0.1380
 6175TIP3    H142720   7.481   5.078  12.756  2.7960  0.2526  2.1232
 6175TIP3    H242721   7.503   4.941  12.695 -0.0036  0.8063 -0.3562
 6176TIP3   OH242722   7.470   4.123  13.578 -0.1865  0.3065  0.0749
 6176TIP3    H142723   7.515   4.041  13.556 -0.2895  0.1613  0.4055
 6176TIP3    H242724   7.418   4.143  13.500  1.1627  0.9746 -0.6905
 6177TIP3   OH242725   3.183   7.668  11.904 -0.0159 -0.0846  0.4501
 6177TIP3    H142726   3.175   7.748  11.853  0.3500  0.9180  1.8981
 6177TIP3    H242727   3.192   7.598  11.839  0.7066  1.1614 -0.8418
 6178TIP3   OH242728   6.469   1.911  10.678 -0.1614 -0.0900  0.3945
 6178TIP3    H142729   6.420   1.833  10.700 -2.1580  0.4888 -1.6277
 6178TIP3    H242730   6.551   1.879  10.640 -0.1586 -1.1317  1.2635
 6179TIP3   OH242731   2.115   3.149  12.230  0.4703  0.7597 -0.2160
 6179TIP3    H142732   2.183   3.207  12.194  0.9297  1.7606  2.0245
 6179TIP3    H242733   2.072   3.203  12.296 -1.4884 -0.3860 -0.5003
 6180TIP3   OH242734   2.655   4.062  11.223  0.1856 -0.0876  0.5886
 6180TIP3    H142735   2.579   4.057  11.281 -0.8931  0.5045 -0.7085
 6180TIP3    H242736   2.701   4.142  11.249 -0.2057  0.0927  0.7227
 6181TIP3   OH242737   1.580   3.152  12.992 -0.0063 -0.0192  0.3446
 6181TIP3    H142738   1.512   3.153  13.059 -0.2452 -0.6509  0.1099
 6181TIP3    H242739   1.655   3.110  13.035  0.2612  0.6960  0.6104
 6182TIP3   OH242740   5.608   5.127  11.084 -0.6701  0.0393  0.1167
 6182TIP3    H142741   5.570   5.165  11.005 -0.4746  0.5237  0.2593
 6182TIP3    H242742   5.640   5.041  11.056  0.2542  0.5958 -0.5470
 6183TIP3   OH242743   7.197   5.785  12.431  0.3356  0.3928 -0.1293
 6183TIP3    H142744   7.172   5.738  12.352 -1.9669  2.6377 -0.8781
 6183TIP3    H242745   7.189   5.721  12.501 -1.7683 -0.6072 -1.1876
 6184TIP3   OH242746   3.860   4.616  11.815  0.4444 -0.5519 -0.4122
 6184TIP3    H142747   3.933   4.583  11.868  1.2262  1.6868  0.0380
 6184TIP3    H242748   3.901   4.645  11.733  0.0334  0.3646 -0.3081
 6185TIP3   OH242749   0.846   6.084  12.204  0.0765 -0.1052 -0.4648
 6185TIP3    H142750   0.903   6.126  12.140  1.3236  1.1309  1.3398
 6185TIP3    H242751   0.761   6.127  12.194 -0.1879 -0.9740 -2.2288
 6186TIP3   OH242752   0.348   3.945  12.774  0.7488  0.1996  0.2142
 6186TIP3    H142753   0.312   3.999  12.844 -1.1576  0.4762 -0.9034
 6186TIP3    H242754   0.391   3.872  12.819 -0.4652  0.3455  1.6777
 6187TIP3   OH242755   2.507   4.345  11.065 -0.1487 -0.1013 -0.2833
 6187TIP3    H142756   2.595   4.383  11.063 -0.6451  1.1431 -2.2455
 6187TIP3    H242757   2.474   4.358  10.976 -2.3621 -0.4248  0.4253
 6188TIP3   OH242758   1.969   2.106  11.949 -0.8131 -0.0277  0.1292
 6188TIP3    H142759   1.966   2.124  12.043 -1.0774  1.0004 -0.0642
 6188TIP3    H242760   1.919   2.178  11.910  0.0956  0.0849 -0.8681
 6189TIP3   OH242761   0.389   3.553  12.722  0.0587  0.8085 -0.1945
 6189TIP3    H142762   0.402   3.606  12.643 -0.7208  1.1129 -0.1285
 6189TIP3    H242763   0.432   3.602  12.792  0.3494  0.7705 -0.3481
 6190TIP3   OH242764   2.281   6.677  12.479 -0.4137 -0.1082 -0.0313
 6190TIP3    H142765   2.355   6.652  12.534  0.0666  1.4067  0.0329
 6190TIP3    H242766   2.302   6.764  12.446 -1.8873  0.1046 -0.5190
 6191TIP3   OH242767   1.455   1.298  11.427 -0.2203  0.3772  0.2276
 6191TIP3    H142768   1.510   1.304  11.506  0.2313 -0.4917 -0.0045
 6191TIP3    H242769   1.431   1.206  11.422 -0.0459  0.3761 -0.7885
 6192TIP3   OH242770   4.077   1.740  11.438  0.3841 -0.3658 -0.2287
 6192TIP3    H142771   4.140   1.776  11.502  0.3636  1.6098 -1.2478
 6192TIP3    H242772   3.992   1.770  11.469  0.2903 -0.1660 -0.6687
 6193TIP3   OH242773   5.474   1.142  11.724 -0.4171 -0.4810  0.2446
 6193TIP3    H142774   5.429   1.064  11.757  2.6284 -2.6704 -0.3403
 6193TIP3    H242775   5.551   1.151  11.781  0.9507  0.1600 -1.6027
 6194TIP3   OH242776   3.401   6.986  10.999 -0.2598  0.4243 -0.1526
 6194TIP3    H142777   3.378   7.017  10.911  1.0782 -0.2321 -0.7636
 6194TIP3    H242778   3.353   6.904  11.009 -1.7530  1.3212  0.4380
 6195TIP3   OH242779   1.563   2.252  10.525  0.2661  0.6438 -0.1801
 6195TIP3    H142780   1.546   2.180  10.586  0.7626  0.8220  0.1820
 6195TIP3    H242781   1.519   2.226  10.444  0.0538  0.1491  0.0870
 6196TIP3   OH242782   0.868   1.206  10.568 -0.0128  0.5279 -0.3908
 6196TIP3    H142783   0.829   1.267  10.632 -1.1769 -0.6664  0.0917
 6196TIP3    H242784   0.947   1.173  10.611 -1.2791 -0.9875  0.9137
 6197TIP3   OH242785   4.959   5.123  12.353 -0.0349  0.1382 -0.2178
 6197TIP3    H142786   4.943   5.214  12.327 -1.7495 -0.5525 -1.8051
 6197TIP3    H242787   4.954   5.074  12.271 -0.0256 -1.5021  0.7340
 6198TIP3   OH242788   3.023   1.442  11.653 -0.6381 -0.1459 -0.6713
 6198TIP3    H142789   3.048   1.478  11.738 -0.7990  0.9524 -1.0756
 6198TIP3    H242790   3.089   1.374  11.635  0.1276  0.4697 -0.2433
 6199TIP3   OH242791   4.345   5.911  11.855 -0.1647  0.2713 -0.7368
 6199TIP3    H142792   4.276   5.887  11.916  0.6219 -1.0836 -0.3294
 6199TIP3    H242793   4.335   5.850  11.782 -0.6640  1.4275 -1.6589
 6200TIP3   OH242794   5.853   3.676  11.670  0.1335 -0.0793 -0.0606
 6200TIP3    H142795   5.764   3.650  11.647  0.0649 -0.7159  0.8463
 6200TIP3    H242796   5.843   3.731  11.748  0.5607 -0.7085  0.4567
 6201TIP3   OH242797   3.661   3.539  11.607 -0.3109 -0.2066 -0.4102
 6201TIP3    H142798   3.742   3.491  11.623 -0.1643  0.2203  0.1532
 6201TIP3    H242799   3.684   3.605  11.541  0.3597  1.3223  1.2925
 6202TIP3   OH242800   4.684   2.590  13.253  0.4630  0.1922 -0.0172
 6202TIP3    H142801   4.746   2.651  13.294 -0.8123 -0.2455  2.7733
 6202TIP3    H242802   4.600   2.635  13.257  0.0616 -0.4189 -1.0586
 6203TIP3   OH242803   3.156   5.671  11.193 -0.6889  0.2337  0.1756
 6203TIP3    H142804   3.195   5.645  11.276 -0.6690  0.0948  0.1233
 6203TIP3    H242805   3.083   5.610  11.181 -0.3877 -0.0617 -0.1515
 6204TIP3   OH242806   6.382   1.142  11.196 -0.5989 -0.2239  0.1071
 6204TIP3    H142807   6.352   1.089  11.123  0.2333 -0.7540  0.1364
 6204TIP3    H242808   6.469   1.172  11.170 -0.9038  0.8288  0.2510
 6205TIP3   OH242809   6.017   4.100  11.097  0.7410 -0.6379 -0.1739
 6205TIP3    H142810   6.020   4.030  11.162  2.3784 -1.5697 -1.1841
 6205TIP3    H242811   6.103   4.141  11.103 -0.1379  1.2268  0.2788
 6206TIP3   OH242812   1.737   7.552  11.507  0.1529 -0.0976  0.1299
 6206TIP3    H142813   1.685   7.562  11.427 -0.4038  2.6489  0.7315
 6206TIP3    H242814   1.825   7.579  11.481  0.2387 -0.3008  0.2059
 6207TIP3   OH242815   3.316   3.484  12.806  0.1044 -0.1645  0.0643
 6207TIP3    H142816   3.333   3.526  12.891 -2.2151  0.2075  0.4115
 6207TIP3    H242817   3.292   3.556  12.749  0.1962 -0.5818 -0.5043
 6208TIP3   OH242818   5.381   1.850  12.886 -0.4647  0.1398 -0.1530
 6208TIP3    H142819   5.463   1.839  12.933 -0.0313 -0.6256 -1.0468
 6208TIP3    H242820   5.354   1.761  12.863  0.2144  0.5158 -2.7773
 6209TIP3   OH242821   0.112   4.633  10.967  0.1680  0.0780  0.2374
 6209TIP3    H142822   0.164   4.710  10.991  0.2564  0.2852 -0.5855
 6209TIP3    H242823   0.025   4.668  10.949  0.5170  0.2169 -1.4092
 6210TIP3   OH242824   6.670   3.063  10.792  0.0005 -0.2232  0.0290
 6210TIP3    H142825   6.637   3.134  10.847  0.1646  0.9496 -1.3225
 6210TIP3    H242826   6.673   3.100  10.704  3.5729 -0.6457 -0.1957
 6211TIP3   OH242827   4.204   4.705  12.701  0.3055  0.4325 -0.2657
 6211TIP3    H142828   4.226   4.655  12.780  0.1272  0.3852 -0.2447
 6211TIP3    H242829   4.112   4.685  12.685  0.9921 -1.7747 -2.0576
 6212TIP3   OH242830   4.497   5.736  10.958  0.1620  1.1515  0.2112
 6212TIP3    H142831   4.585   5.772  10.973  0.6681 -0.7328  2.4871
 6212TIP3    H242832   4.442   5.781  11.021  0.5431 -0.8861  2.1501
 6213TIP3   OH242833   0.354   3.869  10.414 -0.6753 -0.3236 -0.5706
 6213TIP3    H142834   0.295   3.795  10.430 -3.0859  1.2626 -1.5620
 6213TIP3    H242835   0.314   3.916  10.341  1.7287  1.0233 -1.1110
 6214TIP3   OH242836   6.126   3.480  10.688  0.5584 -0.4141  0.0571
 6214TIP3    H142837   6.128   3.393  10.728  1.3673 -0.0337  0.8821
 6214TIP3    H242838   6.150   3.465  10.597  2.1094 -0.9048  0.5160
 6215TIP3   OH242839   7.265   0.947  11.858 -0.5776  0.5652 -0.1936
 6215TIP3    H142840   7.198   0.999  11.901 -2.4129 -1.0309 -0.9632
 6215TIP3    H242841   7.256   0.860  11.896  1.1667  0.3314 -0.2359
 6216TIP3   OH242842   4.164   4.631  11.890 -0.3229  0.2406 -0.3373
 6216TIP3    H142843   4.216   4.682  11.828 -0.4873 -0.8397 -1.4160
 6216TIP3    H242844   4.217   4.628  11.969 -0.5848  2.5576 -0.0146
 6217TIP3   OH242845   2.694   4.028  10.937  0.2544 -0.2883  0.4213
 6217TIP3    H142846   2.664   4.040  11.027  0.2116 -0.0758  0.3790
 6217TIP3    H242847   2.711   3.934  10.929 -1.8297 -0.6947  0.0021
 6218TIP3   OH242848   1.622   3.502  10.474  0.1206  0.3485  0.0120
 6218TIP3    H142849   1.717   3.486  10.474  0.2434  1.0148 -0.5427
 6218TIP3    H242850   1.584   3.420  10.443  0.5143  0.0380  0.3504
 6219TIP3   OH242851   6.846   6.179  12.098  0.0992  0.4889  0.4453
 6219TIP3    H142852   6.937   6.200  12.119 -0.2468  1.4949  0.9511
 6219TIP3    H242853   6.795   6.253  12.131 -0.9081 -0.0524  0.1489
 6220TIP3   OH242854   7.507   3.241  12.745  0.7959  0.1059  0.1711
 6220TIP3    H142855   7.574   3.263  12.811  0.4203  1.2747  0.1762
 6220TIP3    H242856   7.551   3.253  12.661  0.5460  1.0976  0.1690
 6221TIP3   OH242857   2.063   0.809  12.044 -0.2780  0.1998 -0.2103
 6221TIP3    H142858   2.116   0.864  11.986  1.1991 -1.6587 -0.7187
 6221TIP3    H242859   1.984   0.790  11.992  0.3310 -0.1760 -1.0224
 6222TIP3   OH242860   6.352   6.620  10.651 -0.2110  0.0436 -0.3764
 6222TIP3    H142861   6.276   6.577  10.610 -1.5957  2.1730 -0.1955
 6222TIP3    H242862   6.366   6.572  10.732 -1.2358 -0.5294 -0.5222
 6223TIP3   OH242863   4.950   2.819  13.609 -0.2112  0.4352  0.5405
 6223TIP3    H142864   5.030   2.866  13.586 -0.3891  0.0684 -0.9445
 6223TIP3    H242865   4.975   2.762  13.682  1.2379 -0.6510 -0.7437
 6224TIP3   OH242866   5.209   2.976  12.726  0.2258 -0.1992  0.1670
 6224TIP3    H142867   5.282   2.925  12.762  0.0251 -0.0510  0.7936
 6224TIP3    H242868   5.179   2.925  12.650  0.3907 -0.7258  0.4509
 6225TIP3   OH242869   5.616   4.909  13.372  0.7876  0.5418  0.3512
 6225TIP3    H142870   5.699   4.956  13.359  0.4686  0.8222 -0.8645
 6225TIP3    H242871   5.559   4.974  13.413  1.0396  0.4813  0.8042
 6226TIP3   OH242872   1.708   6.054  12.686  0.1305 -0.0590 -0.1003
 6226TIP3    H142873   1.648   6.023  12.754 -0.8570  3.9620  1.1268
 6226TIP3    H242874   1.779   6.097  12.734 -0.6829  3.0544 -1.4311
 6227TIP3   OH242875   1.885   5.311  10.372  0.1558  0.3065 -0.1501
 6227TIP3    H142876   1.840   5.248  10.429 -0.0900  2.1320  1.7628
 6227TIP3    H242877   1.831   5.314  10.293  0.9677 -2.9337 -0.9816
 6228TIP3   OH242878   7.346   6.312  11.492 -0.2365  0.2364  0.0169
 6228TIP3    H142879   7.254   6.337  11.503 -0.8303 -1.7205 -0.2345
 6228TIP3    H242880   7.363   6.252  11.565  0.3163 -0.7625 -0.9152
 6229TIP3   OH242881   0.102   7.193  10.701  0.1300  0.3751  0.1909
 6229TIP3    H142882   0.103   7.273  10.649 -0.6002  0.3121  0.0622
 6229TIP3    H242883   0.166   7.136  10.658  0.2378  0.6790 -0.0575
 6230TIP3   OH242884   5.875   4.035  12.769  0.2276  0.0277 -0.3595
 6230TIP3    H142885   5.794   4.079  12.792 -0.8964 -1.4314 -1.3770
 6230TIP3    H242886   5.904   4.079  12.688  0.7549  0.8884  0.2798
 6231TIP3   OH242887   2.815   3.388  12.045  0.2020 -0.0443  0.1553
 6231TIP3    H142888   2.842   3.477  12.024 -1.3452  0.7440  1.3402
 6231TIP3    H242889   2.721   3.395  12.064  0.4874 -1.4874  2.5071
 6232TIP3   OH242890   4.994   2.744  12.868  0.2822 -0.3236 -0.1642
 6232TIP3    H142891   4.935   2.681  12.911  1.4732 -1.3791  0.0064
 6232TIP3    H242892   5.035   2.791  12.941  1.1935 -1.0773 -0.1599
 6233TIP3   OH242893   2.525   0.649  12.254  0.4229  0.2650  0.0188
 6233TIP3    H142894   2.601   0.694  12.291 -0.1996  0.4034  1.1884
 6233TIP3    H242895   2.490   0.711  12.189 -0.9248  1.9584  2.2042
 6234TIP3   OH242896   6.125   5.053  12.739 -0.3608 -0.2648 -0.9556
 6234TIP3    H142897   6.165   4.976  12.780 -0.6065 -0.2466 -0.6716
 6234TIP3    H242898   6.104   5.026  12.650 -1.2622 -0.8252 -0.5908
 6235TIP3   OH242899   0.658   4.089  11.195  0.5239 -0.0811  0.1547
 6235TIP3    H142900   0.633   4.160  11.136  1.2923 -0.1738 -0.2986
 6235TIP3    H242901   0.592   4.021  11.180  0.2891  0.1889 -0.0462
 6236TIP3   OH242902   3.358   7.571  11.035 -0.1374  0.2044 -0.0423
 6236TIP3    H142903   3.264   7.581  11.021 -0.2647 -0.4412  0.3158
 6236TIP3    H242904   3.380   7.636  11.102 -0.7219 -1.0190  1.3814
 6237TIP3   OH242905   4.781   5.323  11.109  0.3382 -0.0806  0.0012
 6237TIP3    H142906   4.769   5.365  11.023 -0.8974 -0.3303  0.0308
 6237TIP3    H242907   4.695   5.330  11.151  1.0778  0.5687  1.4712
 6238TIP3   OH242908   1.792   6.831  10.487  0.1978 -0.0905 -0.2907
 6238TIP3    H142909   1.811   6.887  10.412 -1.1588  0.6544 -0.1194
 6238TIP3    H242910   1.748   6.889  10.549  0.8651 -0.8174  0.8847
 6239TIP3   OH242911   0.406   5.260  10.944 -0.2538 -0.3002  0.2243
 6239TIP3    H142912   0.488   5.309  10.956  0.7408 -2.1177  1.3361
 6239TIP3    H242913   0.413   5.187  11.005 -2.1159 -1.2862 -0.6628
 6240TIP3   OH242914   6.595   5.309  12.042 -0.6311 -0.4098  0.4681
 6240TIP3    H142915   6.618   5.395  12.008  0.8403 -0.8513  0.3067
 6240TIP3    H242916   6.580   5.255  11.965 -0.2529 -0.6377  0.5527
 6241TIP3   OH242917   0.456   2.779  12.303 -0.2742 -0.5424  0.2654
 6241TIP3    H142918   0.414   2.697  12.276 -1.8587 -0.4145  2.1311
 6241TIP3    H242919   0.383   2.840  12.317  0.7343  0.5685  0.8345
 6242TIP3   OH242920   3.078   2.519  11.119  0.2005 -0.1024 -0.5224
 6242TIP3    H142921   3.101   2.612  11.107 -0.2453  0.1247  0.3581
 6242TIP3    H242922   2.983   2.516  11.108  0.0148 -0.1980  0.9294
 6243TIP3   OH242923   1.030   1.449  11.141  0.0857  0.1635  0.0185
 6243TIP3    H142924   1.092   1.498  11.194 -0.3084  0.5842  0.0902
 6243TIP3    H242925   0.944   1.487  11.161 -0.2120 -0.4834  0.0003
 6244TIP3   OH242926   0.718   4.021  12.384  0.4023  0.3598  0.8712
 6244TIP3    H142927   0.798   4.054  12.425  0.2689  2.2556 -0.2835
 6244TIP3    H242928   0.667   3.984  12.457  1.6822  0.4271  1.8344
 6245TIP3   OH242929   6.316   5.792  10.822 -0.7427  0.1839  0.4603
 6245TIP3    H142930   6.315   5.729  10.894 -0.3976  0.3640  0.6264
 6245TIP3    H242931   6.370   5.750  10.754 -0.0908  0.5043  0.7657
 6246TIP3   OH242932   4.530   3.796  12.916  0.7339  0.2657 -0.2573
 6246TIP3    H142933   4.505   3.885  12.893 -1.0692 -0.2623 -0.5098
 6246TIP3    H242934   4.460   3.765  12.974  0.9084 -1.2322 -0.7867
 6247TIP3   OH242935   1.651   4.257  11.671  0.0541 -0.0480  0.0220
 6247TIP3    H142936   1.736   4.232  11.706 -0.5755  0.0202  1.6690
 6247TIP3    H242937   1.588   4.206  11.722 -0.9753  1.1068 -0.0468
 6248TIP3   OH242938   0.657   0.324  10.752  0.7316 -0.1443 -0.4949
 6248TIP3    H142939   0.597   0.315  10.826  0.4111 -3.1999 -1.0090
 6248TIP3    H242940   0.648   0.416  10.726 -2.7625 -0.1155  0.2569
 6249TIP3   OH242941   1.102   2.870  10.922  0.5047 -1.1084 -0.2837
 6249TIP3    H142942   1.080   2.854  10.830 -0.9896  0.6218 -0.2952
 6249TIP3    H242943   1.189   2.831  10.934  1.8848  0.7747 -3.1112
 6250TIP3   OH242944   2.297   1.746  12.669  0.1210  0.3871  0.5492
 6250TIP3    H142945   2.321   1.789  12.751 -0.3378  0.5763  0.5847
 6250TIP3    H242946   2.374   1.755  12.613  0.2110  0.7951  0.7408
 6251TIP3   OH242947   2.216   2.454  10.999  0.2178 -0.5605  0.4688
 6251TIP3    H142948   2.255   2.519  11.058 -0.0411 -1.1176  1.2575
 6251TIP3    H242949   2.137   2.497  10.965 -1.1249 -1.1980  2.6130
 6252TIP3   OH242950   1.358   5.658  12.192 -0.2003  0.3892 -0.1136
 6252TIP3    H142951   1.353   5.595  12.264  0.3843  1.7854  1.2156
 6252TIP3    H242952   1.385   5.607  12.116  2.2569 -0.6796  1.3527
 6253TIP3   OH242953   4.444   5.447  13.079  0.1023  0.2963 -0.0492
 6253TIP3    H142954   4.424   5.529  13.124  0.8574 -0.5518  1.9601
 6253TIP3    H242955   4.503   5.472  13.008  0.2634  1.5016  0.4955
 6254TIP3   OH242956   2.822   0.408  11.727  0.3152  0.6851  0.4166
 6254TIP3    H142957   2.730   0.383  11.718  0.1667  1.0956  0.7869
 6254TIP3    H242958   2.870   0.344  11.673 -0.4325  2.2662 -2.3317
 6255TIP3   OH242959   1.466   0.151  11.960 -0.3741 -0.0395 -0.4096
 6255TIP3    H142960   1.443   0.182  12.047 -0.4524 -1.9725  0.3182
 6255TIP3    H242961   1.522   0.219  11.923 -0.2324  0.7499  1.2068
 6256TIP3   OH242962   3.944   2.641  11.282  0.0208 -0.2395  0.1507
 6256TIP3    H142963   4.022   2.586  11.292  0.3116  0.1439  0.0054
 6256TIP3    H242964   3.871   2.579  11.283  0.0955 -0.4248  2.9230
 6257TIP3   OH242965   4.729   5.495  10.894 -0.5257  0.3650  0.1840
 6257TIP3    H142966   4.758   5.423  10.839 -0.3447  0.3010  0.3624
 6257TIP3    H242967   4.638   5.510  10.868  0.2425  1.9254 -1.8361
 6258TIP3   OH242968   5.216   0.494  13.175  0.4270  0.1525 -0.3202
 6258TIP3    H142969   5.137   0.524  13.130  1.0783  1.1035 -0.8647
 6258TIP3    H242970   5.268   0.451  13.107  1.9672  2.6492 -0.8639
 6259TIP3   OH242971   3.779   4.688  11.184  0.0707 -0.0213 -0.4066
 6259TIP3    H142972   3.752   4.663  11.273  0.6765  0.3420 -0.1194
 6259TIP3    H242973   3.700   4.726  11.146 -0.2129 -0.2383 -0.0489
 6260TIP3   OH242974   0.098   5.214  10.714  0.3329 -0.5551  0.2650
 6260TIP3    H142975   0.089   5.141  10.775 -0.7162  1.0847  2.1821
 6260TIP3    H242976   0.010   5.249  10.704  0.9473  1.1727  0.3825
 6261TIP3   OH242977   4.796   0.098  12.259  0.2932  0.1550 -0.2410
 6261TIP3    H142978   4.882   0.090  12.218  0.5735 -0.6408  0.4817
 6261TIP3    H242979   4.785   0.017  12.309 -0.2621  0.8514  0.8132
 6262TIP3   OH242980   3.495   2.345  10.860  0.1125 -0.1527 -0.1845
 6262TIP3    H142981   3.431   2.390  10.806 -0.0472 -0.5224 -0.3117
 6262TIP3    H242982   3.475   2.252  10.848 -0.5326 -0.2189  1.2676
 6263TIP3   OH242983   1.888   3.132  11.912  0.4715  0.2334 -0.0042
 6263TIP3    H142984   1.797   3.108  11.930  0.2141  1.6936  0.7726
 6263TIP3    H242985   1.882   3.195  11.840  0.8899  0.2452 -0.0319
 6264TIP3   OH242986   4.285   5.380  11.656  0.8535 -0.3566 -0.2010
 6264TIP3    H142987   4.224   5.306  11.659  1.3485 -0.7414  0.7102
 6264TIP3    H242988   4.363   5.345  11.613  0.3013  0.2565 -1.7686
 6265TIP3   OH242989   5.235   2.993  11.849  0.0182 -0.1959  0.3771
 6265TIP3    H142990   5.310   2.959  11.800 -1.4674 -0.3085 -1.9627
 6265TIP3    H242991   5.271   3.017  11.934  2.7502 -0.0260 -0.7309
 6266TIP3   OH242992   6.965   3.053  12.640 -0.0733  0.1204 -0.5959
 6266TIP3    H142993   6.992   3.121  12.578 -1.3242  0.6211 -0.6267
 6266TIP3    H242994   6.907   3.099  12.701 -1.0626 -0.9473 -0.7137
 6267TIP3   OH242995   3.164   1.150  11.880 -0.4675 -0.0435 -0.1669
 6267TIP3    H142996   3.086   1.184  11.923 -0.0652  2.0625 -0.9609
 6267TIP3    H242997   3.133   1.122  11.794 -0.6893 -1.1977  0.2702
 6268TIP3   OH242998   1.441   5.145  12.837  0.4295  0.7591  0.0963
 6268TIP3    H142999   1.460   5.064  12.790 -0.0394  0.6489  0.0938
 6268TIP3    H243000   1.517   5.158  12.894  0.1919 -0.0552  0.6162
 6269TIP3   OH243001   0.763   7.185  12.084  0.3749  0.5589 -0.3836
 6269TIP3    H143002   0.742   7.267  12.128  2.2061 -0.6779  3.2028
 6269TIP3    H243003   0.704   7.182  12.009 -0.3890  4.6575 -0.1584
 6270TIP3   OH243004   4.552   4.596  11.120  0.1863  0.7565  0.6585
 6270TIP3    H143005   4.633   4.555  11.092  0.6610 -0.9060  3.9705
 6270TIP3    H243006   4.483   4.552  11.070  1.1232  0.4164 -0.3633
 6271TIP3   OH243007   1.629   5.866  12.339 -0.1448 -0.9228 -0.1190
 6271TIP3    H143008   1.667   5.788  12.379 -1.9947 -1.6399  0.3301
 6271TIP3    H243009   1.682   5.881  12.260  1.0093 -1.8862  0.4471
 6272TIP3   OH243010   3.498   0.085  11.217 -0.4595 -0.0535 -0.4420
 6272TIP3    H143011   3.459   0.147  11.278 -1.3471  0.1806 -1.2118
 6272TIP3    H243012   3.515   0.006  11.268  0.1447  0.6215  0.4168
 6273TIP3   OH243013   7.488   7.023  11.699 -0.5385  0.7135 -0.1571
 6273TIP3    H143014   7.407   6.984  11.731  0.4806  0.0931  1.8071
 6273TIP3    H243015   7.499   6.986  11.612 -0.7784 -1.6699  0.7571
 6274TIP3   OH243016   3.409   6.420  12.901  0.4951  0.2925  0.2127
 6274TIP3    H143017   3.346   6.348  12.911 -1.0789  1.5603 -0.2083
 6274TIP3    H243018   3.461   6.396  12.825 -0.7352  0.0885 -0.5931
 6275TIP3   OH243019   7.286   5.283  13.798  0.2039  0.6794 -0.3980
 6275TIP3    H143020   7.205   5.328  13.818  0.0823 -0.0471  0.9016
 6275TIP3    H243021   7.270   5.192  13.824  1.0444  0.2804 -1.2065
 6276TIP3   OH243022   6.964   5.411  12.783 -0.1363  0.2141  0.1180
 6276TIP3    H143023   7.028   5.340  12.788  1.2841  1.3637 -0.7813
 6276TIP3    H243024   6.880   5.370  12.806  1.0251 -1.1754  2.2975
 6277TIP3   OH243025   1.063   5.737  11.939  0.0230 -0.0077  0.1292
 6277TIP3    H143026   1.146   5.764  11.978  0.2412  0.0140 -0.3364
 6277TIP3    H243027   1.077   5.646  11.914  1.0290  0.8281 -2.7836
 6278TIP3   OH243028   0.035   0.318  11.095  0.0439  0.6126  0.5897
 6278TIP3    H143029   0.027   0.236  11.046  1.0256  0.0362  1.3404
 6278TIP3    H243030   0.067   0.291  11.182 -2.8252  1.4661  2.0287
 6279TIP3   OH243031   6.444   6.041  11.489 -0.2250 -0.5829  0.1134
 6279TIP3    H143032   6.409   6.111  11.544  0.1845  0.3333 -0.7476
 6279TIP3    H243033   6.385   5.968  11.502 -1.8526  0.5690 -0.4682
 6280TIP3   OH243034   2.055   6.600  12.677 -0.2370  0.6496  0.3153
 6280TIP3    H143035   2.045   6.581  12.584  0.6424 -2.2502  0.7012
 6280TIP3    H243036   2.051   6.514  12.719  2.7280  1.4803  2.6114
 6281TIP3   OH243037   6.547   3.143  10.400 -0.2245 -0.2732 -0.2332
 6281TIP3    H143038   6.626   3.127  10.452  0.7841  0.8413 -1.3571
 6281TIP3    H243039   6.531   3.060  10.354 -0.8144 -1.0968  1.3688
 6282TIP3   OH243040   6.203   2.241  11.033  0.2836  0.4945 -0.6723
 6282TIP3    H143041   6.167   2.182  11.100  0.9590  1.3107  0.4375
 6282TIP3    H243042   6.286   2.201  11.007  1.1650  1.3555  0.7085
 6283TIP3   OH243043   3.627   0.764  12.287  0.0910 -0.1003 -0.1111
 6283TIP3    H143044   3.559   0.796  12.346  0.7583 -0.3296  0.8068
 6283TIP3    H243045   3.705   0.756  12.342  0.4060 -1.5912 -0.7157
 6284TIP3   OH243046   2.833   0.938  10.432 -0.1302  0.1390  0.0114
 6284TIP3    H143047   2.858   0.855  10.392  0.3906  0.4337 -0.2954
 6284TIP3    H243048   2.911   0.993  10.424  0.0274  0.1725  1.5513
 6285TIP3   OH243049   7.640   3.122  11.274  0.2267 -0.4489 -0.2182
 6285TIP3    H143050   7.705   3.106  11.342 -0.3536 -2.1203 -0.0071
 6285TIP3    H243051   7.692   3.136  11.195  0.9227  1.7905  0.5439
 6286TIP3   OH243052   1.234   7.302  11.399  0.5531 -0.1014 -0.1721
 6286TIP3    H143053   1.329   7.293  11.404  0.6343  0.3175 -0.8125
 6286TIP3    H243054   1.220   7.384  11.351 -0.1192 -0.6385 -0.9368
 6287TIP3   OH243055   2.953   3.825  11.773 -0.6176 -0.0047 -0.2869
 6287TIP3    H143056   2.975   3.808  11.681 -2.6384  1.3022 -1.0937
 6287TIP3    H243057   2.975   3.917  11.787 -0.5331 -0.1310  0.4669
 6288TIP3   OH243058   0.957   2.070  11.854 -0.3140 -0.1666  0.0046
 6288TIP3    H143059   0.920   2.146  11.809 -1.8787 -0.4954  0.6670
 6288TIP3    H243060   0.925   1.994  11.805  0.4225 -0.4406 -0.0687
 6289TIP3   OH243061   1.423   3.485  12.119 -0.2012  0.0534 -0.7919
 6289TIP3    H143062   1.427   3.554  12.185  0.2876 -0.1152 -0.6378
 6289TIP3    H243063   1.439   3.531  12.036  1.6809 -0.0630 -0.5474
 6290TIP3   OH243064   0.609   1.586  10.231 -0.1109  0.0334  0.2191
 6290TIP3    H143065   0.630   1.505  10.278 -2.0802 -0.6400  0.0186
 6290TIP3    H243066   0.629   1.566  10.139  1.6529  0.6213  0.4273
 6291TIP3   OH243067   1.740   3.948  11.858  0.0367  0.1531  0.6558
 6291TIP3    H143068   1.756   4.028  11.907 -0.1865 -0.2970  1.4912
 6291TIP3    H243069   1.729   3.880  11.925 -1.0567 -0.3389  0.0242
 6292TIP3   OH243070   7.639   0.170  13.011 -0.1962  0.0154 -0.4696
 6292TIP3    H143071   7.636   0.092  13.066  1.7347  0.6151  0.5835
 6292TIP3    H243072   7.705   0.226  13.053 -0.9785  1.8847 -1.6159
 6293TIP3   OH243073   2.775   6.125  11.897  0.7407 -0.6015 -0.4077
 6293TIP3    H143074   2.811   6.106  11.984 -1.6552 -0.5913  0.6662
 6293TIP3    H243075   2.789   6.218  11.884  2.1372 -0.8178 -0.5644
 6294TIP3   OH243076   4.435   7.627  11.283  0.1747  0.0708 -0.1173
 6294TIP3    H143077   4.363   7.622  11.345  0.3616 -1.0404  0.0292
 6294TIP3    H243078   4.392   7.641  11.198 -0.0623  1.8926  0.2802
 6295TIP3   OH243079   3.560   2.075  11.375  0.6698  0.1420 -0.0759
 6295TIP3    H143080   3.550   1.981  11.390  1.6039 -0.0360 -0.5196
 6295TIP3    H243081   3.486   2.099  11.319 -0.0599 -0.1449  0.7393
 6296TIP3   OH243082   1.097   5.075  11.283  0.5336 -0.1545 -0.0635
 6296TIP3    H143083   1.086   5.007  11.350  0.6146  0.4669  0.6011
 6296TIP3    H243084   1.073   5.156  11.328 -0.0673  0.2002 -0.9925
 6297TIP3   OH243085   7.664   2.147  11.198  0.3254  0.1395  0.1026
 6297TIP3    H143086   7.589   2.091  11.178  0.2854  0.5277 -0.9308
 6297TIP3    H243087   7.680   2.196  11.116  1.4140  0.3941  0.4431
 6298TIP3   OH243088   6.892   4.651  13.476 -0.9259  0.5699  0.2456
 6298TIP3    H143089   6.853   4.708  13.409  0.8447 -0.0048 -1.3815
 6298TIP3    H243090   6.818   4.622  13.530 -2.4428  1.0782 -1.4645
 6299TIP3   OH243091   5.075   2.345  12.849  0.6507  0.3613 -0.0219
 6299TIP3    H143092   4.986   2.362  12.818  0.7101 -2.5434 -2.2860
 6299TIP3    H243093   5.064   2.318  12.940 -0.7177  0.4724 -0.1305
 6300TIP3   OH243094   7.672   6.595  11.381 -0.3397  0.2123 -0.5031
 6300TIP3    H143095   7.729   6.546  11.322 -1.0855  1.5115 -2.4023
 6300TIP3    H243096   7.586   6.553  11.373 -0.1206 -0.6123  0.9689
 6301TIP3   OH243097   1.754   2.613  12.933  0.5524 -0.3745 -0.3493
 6301TIP3    H143098   1.810   2.620  13.010 -0.3764 -1.3862  0.4486
 6301TIP3    H243099   1.680   2.672  12.951 -0.6689 -2.0755  0.4773
 6302TIP3   OH243100   3.859   0.455  12.519 -0.2153 -0.0436 -0.1439
 6302TIP3    H143101   3.808   0.391  12.468 -0.8794 -0.8715  1.4972
 6302TIP3    H243102   3.912   0.500  12.453 -0.3207 -1.7277 -1.4628
 6303TIP3   OH243103   3.028   3.286  10.558 -0.3914  0.9380 -0.7548
 6303TIP3    H143104   3.076   3.275  10.476  1.2962  0.3538  0.2750
 6303TIP3    H243105   3.068   3.362  10.600  0.7628 -0.5003  0.8474
 6304TIP3   OH243106   2.930   3.868  10.718 -0.1484  0.5393 -0.3284
 6304TIP3    H143107   2.913   3.961  10.704 -1.0683  0.4439  0.0776
 6304TIP3    H243108   3.020   3.864  10.750 -0.2676  1.3327  0.1262
 6305TIP3   OH243109   3.419   7.128  11.259 -0.1286  0.3274  0.0879
 6305TIP3    H143110   3.325   7.135  11.272  0.0111  0.7937  0.9067
 6305TIP3    H243111   3.429   7.061  11.192 -1.1318  1.9465 -1.7742
 6306TIP3   OH243112   7.440   0.462  12.447 -0.0415  0.5728 -0.1738
 6306TIP3    H143113   7.402   0.549  12.436  0.5637  0.8194 -0.3915
 6306TIP3    H243114   7.421   0.417  12.365 -0.5952  0.4024  0.0461
 6307TIP3   OH243115   4.539   2.704  11.871 -0.1295 -0.2832  0.1075
 6307TIP3    H143116   4.472   2.689  11.804 -0.0726 -1.8860  0.3651
 6307TIP3    H243117   4.592   2.775  11.836 -0.6564 -0.4739 -1.1386
 6308TIP3   OH243118   0.697   4.304  11.549  0.0175 -0.3571 -0.2032
 6308TIP3    H143119   0.699   4.305  11.645 -1.8854  1.5938 -0.1311
 6308TIP3    H243120   0.709   4.395  11.523 -0.7583 -0.6670 -1.7925
 6309TIP3   OH243121   6.134   2.219  13.434  0.5576 -0.5158  0.1406
 6309TIP3    H143122   6.065   2.183  13.489 -1.2126 -0.6348 -2.0226
 6309TIP3    H243123   6.116   2.313  13.430 -2.4346 -0.9834 -3.9425
 6310TIP3   OH243124   5.531   3.442  12.498 -0.5260  0.1497 -0.0864
 6310TIP3    H143125   5.616   3.417  12.534 -0.3887 -0.1726 -0.6111
 6310TIP3    H243126   5.500   3.513  12.554 -0.3696 -0.3980  0.7106
 6311TIP3   OH243127   5.820   7.472  12.790 -0.1472 -0.5177  0.3369
 6311TIP3    H143128   5.879   7.434  12.725  1.9678  1.1586  1.1476
 6311TIP3    H243129   5.776   7.544  12.744  0.6696  0.0853  0.4692
 6312TIP3   OH243130   6.596   1.877  11.940  0.4401 -0.1394 -0.2201
 6312TIP3    H143131   6.664   1.931  11.900  0.5282  0.8706  1.2152
 6312TIP3    H243132   6.623   1.868  12.031 -0.4105 -1.2936 -0.0561
 6313TIP3   OH243133   7.184   4.892  12.766 -0.1965 -0.2676 -0.0343
 6313TIP3    H143134   7.234   4.810  12.768  1.2301  0.5818  0.9704
 6313TIP3    H243135   7.212   4.936  12.686 -1.1661 -0.8513 -0.7169
 6314TIP3   OH243136   4.005   7.040  11.880  0.1594 -0.1990 -0.0726
 6314TIP3    H143137   4.001   7.002  11.792 -1.4848  1.8805 -0.9874
 6314TIP3    H243138   4.019   7.133  11.865 -0.0040  0.1798  1.8890
 6315TIP3   OH243139   2.845   6.404  11.893  0.1888  0.2404  0.7457
 6315TIP3    H143140   2.795   6.485  11.887 -2.5634 -1.3513  0.7741
 6315TIP3    H243141   2.855   6.376  11.802  1.4669  0.7184  0.7048
 6316TIP3   OH243142   3.403   5.744  12.301 -0.1898 -0.4497 -0.1077
 6316TIP3    H143143   3.307   5.743  12.299 -0.2197  0.3899 -2.2449
 6316TIP3    H243144   3.424   5.802  12.375 -1.4445  1.6043 -1.2469
 6317TIP3   OH243145   6.012   2.109  11.496  0.1210  0.1426 -0.4692
 6317TIP3    H143146   5.919   2.123  11.478  0.0592 -0.5513 -0.7115
 6317TIP3    H243147   6.042   2.052  11.425  0.4553 -0.6080  0.2673
 6318TIP3   OH243148   1.416   6.905  12.912 -0.4726  0.6745 -0.0813
 6318TIP3    H143149   1.489   6.921  12.972  0.3919 -0.0734 -0.8835
 6318TIP3    H243150   1.413   6.809  12.904 -1.3959  0.7123 -0.2328
 6319TIP3   OH243151   6.713   3.791  11.458 -0.3253  0.7569 -0.1735
 6319TIP3    H143152   6.701   3.722  11.523 -2.7424  0.1035 -1.2047
 6319TIP3    H243153   6.640   3.851  11.473 -0.7753  0.7417 -2.0161
 6320TIP3   OH243154   4.732   2.007  12.358  0.4434 -0.0601 -0.1826
 6320TIP3    H143155   4.647   2.016  12.402 -0.3902 -0.7227 -1.5914
 6320TIP3    H243156   4.711   2.005  12.265  2.0390 -0.0176 -0.5705
 6321TIP3   OH243157   6.126   1.488  10.712 -0.1612  0.1373  0.9253
 6321TIP3    H143158   6.176   1.570  10.706 -0.0072  0.0676  1.2633
 6321TIP3    H243159   6.168   1.439  10.783 -0.2406 -0.2437  0.7130
 6322TIP3   OH243160   2.569   3.078  11.601  0.8756 -0.0503  0.3486
 6322TIP3    H143161   2.607   3.162  11.624  1.3739 -0.5783  1.5161
 6322TIP3    H243162   2.543   3.087  11.509  0.5474  1.4959  0.5806
 6323TIP3   OH243163   2.550   6.143  12.197  0.2810  0.2974  0.5947
 6323TIP3    H143164   2.504   6.095  12.265  1.4281 -0.1319  1.1014
 6323TIP3    H243165   2.616   6.081  12.165  2.8249  1.9084  2.3054
 6324TIP3   OH243166   6.987   1.178  11.537 -0.6156  0.2265 -0.0394
 6324TIP3    H143167   7.074   1.139  11.534  0.5267  2.6608 -1.9850
 6324TIP3    H243168   6.937   1.122  11.597  1.3316 -3.0766 -1.2789
 6325TIP3   OH243169   7.187   2.888  11.638  0.3867 -0.3702 -0.0668
 6325TIP3    H143170   7.260   2.947  11.616  0.5695  0.1530  1.8298
 6325TIP3    H243171   7.109   2.941  11.626  0.2079 -1.0027 -2.3494
 6326TIP3   OH243172   7.564   6.373  10.756  0.6313  0.1894 -0.1749
 6326TIP3    H143173   7.495   6.378  10.823  1.5423 -0.9080  0.8958
 6326TIP3    H243174   7.566   6.281  10.731  2.6805 -0.1209  0.9258
 6327TIP3   OH243175   6.389   4.396  11.057 -0.0466  0.1561  0.0108
 6327TIP3    H143176   6.436   4.344  10.992 -1.9446 -0.2377 -1.1029
 6327TIP3    H243177   6.427   4.483  11.050 -1.3468  0.5894 -2.9239
 6328TIP3   OH243178   7.303   5.478  12.829 -0.1394 -0.2375  0.0049
 6328TIP3    H143179   7.368   5.438  12.771  0.1930  0.2938  0.0049
 6328TIP3    H243180   7.247   5.528  12.770  1.1470  1.6024  0.2784
 6329TIP3   OH243181   4.028   7.480  12.528 -0.1350 -0.3983 -0.0644
 6329TIP3    H143182   4.033   7.414  12.597  0.2395  1.0366  1.3462
 6329TIP3    H243183   4.042   7.563  12.574 -1.2234  0.7255 -1.6734
 6330TIP3   OH243184   6.905   5.117  10.794 -0.0556 -0.3536  0.1543
 6330TIP3    H143185   6.923   5.187  10.857  0.2321 -0.8496  0.6416
 6330TIP3    H243186   6.982   5.060  10.800 -0.1946 -0.6057 -0.3831
 6331TIP3   OH243187   3.928   1.209  10.538  0.1599 -0.3884 -0.4594
 6331TIP3    H143188   3.922   1.119  10.569  0.5833 -0.4738 -0.6217
 6331TIP3    H243189   4.022   1.226  10.531  0.1009  0.2953  0.2411
 6332TIP3   OH243190   3.439   0.402  10.696  0.3276 -0.2311 -0.0424
 6332TIP3    H143191   3.491   0.381  10.619 -1.9620 -1.7988 -1.3236
 6332TIP3    H243192   3.362   0.447  10.661 -1.1406 -1.6639  1.1469
 6333TIP3   OH243193   5.981   0.505  12.790 -0.2933  0.0004  0.0340
 6333TIP3    H143194   6.033   0.435  12.751 -1.2978 -0.0166 -1.3505
 6333TIP3    H243195   6.034   0.537  12.863  0.4785 -1.7443  0.2747
 6334TIP3   OH243196   4.866   5.728  12.177  0.0107 -0.0120 -0.2935
 6334TIP3    H143197   4.829   5.651  12.134 -0.0455  0.3403 -0.8982
 6334TIP3    H243198   4.872   5.793  12.107  2.0765 -0.1481 -0.3222
 6335TIP3   OH243199   1.811   2.399  11.056 -0.1454  0.1155  0.4515
 6335TIP3    H143200   1.852   2.314  11.043 -0.7368  0.1180 -1.8420
 6335TIP3    H243201   1.732   2.380  11.108  0.8542 -0.3688  1.8520
 6336TIP3   OH243202   0.501   7.256  11.477 -0.4254  0.1021  0.2645
 6336TIP3    H143203   0.421   7.267  11.424  0.1382  1.0939 -0.4221
 6336TIP3    H243204   0.494   7.168  11.513 -1.9018  0.2191  0.3327
 6337TIP3   OH243205   6.417   6.787  11.783  0.2715  0.3053 -0.7357
 6337TIP3    H143206   6.353   6.800  11.714 -1.3118  2.9776  1.0322
 6337TIP3    H243207   6.383   6.713  11.834 -0.0284  0.0831 -1.2547
 6338TIP3   OH243208   0.310   0.499  10.970 -0.0089 -0.0266 -0.2915
 6338TIP3    H143209   0.335   0.561  10.901 -0.0634 -0.6841 -0.9105
 6338TIP3    H243210   0.379   0.509  11.036 -0.0619  0.7523 -0.3439
 6339TIP3   OH243211   1.166   0.811  13.040 -0.1753  0.6299  0.0951
 6339TIP3    H143212   1.161   0.882  12.976 -0.7762  0.8237  0.3471
 6339TIP3    H243213   1.166   0.731  12.988  1.6256  0.8119 -0.2505
 6340TIP3   OH243214   3.757   5.423  10.846 -0.0194 -0.2285 -0.4794
 6340TIP3    H143215   3.769   5.518  10.845 -2.7433  0.1970 -0.6695
 6340TIP3    H243216   3.783   5.396  10.934  1.4824  0.5260 -0.6543
 6341TIP3   OH243217   1.031   1.107  11.610  1.2019 -0.3715  0.1059
 6341TIP3    H143218   1.090   1.036  11.585 -2.2315 -2.7019 -2.3258
 6341TIP3    H243219   0.979   1.072  11.682 -1.4165 -1.1137 -1.9575
 6342TIP3   OH243220   7.114   3.204  11.659 -0.0459 -0.3481  0.1482
 6342TIP3    H143221   7.062   3.278  11.690  0.4186 -0.1219  0.3870
 6342TIP3    H243222   7.087   3.131  11.715 -2.2320 -0.9870 -1.5547
 6343TIP3   OH243223   1.002   3.298  11.254  0.1617  0.0790  0.2514
 6343TIP3    H143224   1.044   3.247  11.184  0.5244  0.8864 -0.1395
 6343TIP3    H243225   0.909   3.297  11.233  0.2459  0.1409 -0.1290
 6344TIP3   OH243226   7.222   1.962  12.496  0.1635  0.4309 -0.2427
 6344TIP3    H143227   7.238   2.029  12.563  0.1028  0.2279 -0.0248
 6344TIP3    H243228   7.135   1.983  12.463 -0.4149 -0.3197  0.7463
 6345TIP3   OH243229   5.598   0.177  11.962  0.3959 -0.3913  0.1946
 6345TIP3    H143230   5.526   0.210  11.908  0.9960  1.2610  0.3543
 6345TIP3    H243231   5.558   0.157  12.046  0.0435  0.0860  0.1415
 6346TIP3   OH243232   6.143   2.622  13.061 -0.1313 -0.0550  0.3605
 6346TIP3    H143233   6.145   2.528  13.080 -2.6183 -0.6532 -1.7512
 6346TIP3    H243234   6.133   2.627  12.966 -3.1967  2.2160  0.6517
 6347TIP3   OH243235   0.190   7.423  10.603  0.0010  0.0360  0.0938
 6347TIP3    H143236   0.180   7.415  10.508  0.1554 -1.7263  0.1874
 6347TIP3    H243237   0.260   7.487  10.614 -0.8605  1.1924 -0.9378
 6348TIP3   OH243238   0.246   1.250  10.703 -0.7231  0.1489 -0.4559
 6348TIP3    H143239   0.154   1.269  10.726 -0.5992 -0.3151  0.4572
 6348TIP3    H243240   0.290   1.241  10.787 -0.3391 -2.1388 -0.8447
 6349TIP3   OH243241   1.457   5.546  11.088 -0.5066 -0.0807  0.0854
 6349TIP3    H143242   1.488   5.633  11.113 -1.5396  0.2887  0.1255
 6349TIP3    H243243   1.537   5.496  11.072  0.1082  0.7637  0.4272
 6350TIP3   OH243244   1.492   4.105  11.811 -0.5699  0.1392 -0.2453
 6350TIP3    H143245   1.435   4.054  11.754  1.1088 -1.8760 -0.2331
 6350TIP3    H243246   1.565   4.047  11.830 -0.5697  1.0757  3.2097
 6351TIP3   OH243247   4.149   1.573  12.386 -0.7846  0.3216  0.8377
 6351TIP3    H143248   4.103   1.617  12.459 -2.3129 -0.9025  0.6697
 6351TIP3    H243249   4.155   1.482  12.414 -0.2876  0.0725 -0.0673
 6352TIP3   OH243250   5.981   4.660  11.026 -0.5936  0.4524  0.0173
 6352TIP3    H143251   5.900   4.668  11.075 -1.3976 -0.8750 -1.0160
 6352TIP3    H243252   5.978   4.572  10.988  2.9545 -1.1223  2.7615
 6353TIP3   OH243253   5.090   4.314  12.188  0.1043  0.2066 -0.1344
 6353TIP3    H143254   5.141   4.346  12.114  1.3450 -2.1557 -0.4128
 6353TIP3    H243255   5.115   4.370  12.261 -1.7217  3.0910 -1.5360
 6354TIP3   OH243256   2.895   3.371  11.367 -0.0157 -0.1556  0.1070
 6354TIP3    H143257   2.879   3.401  11.457  0.2121 -0.9575  0.4274
 6354TIP3    H243258   2.968   3.425  11.336  0.6853 -0.6523  0.8311
 6355TIP3   OH243259   5.883   4.448  11.335 -0.0593  0.2111  0.8148
 6355TIP3    H143260   5.916   4.427  11.248 -1.2480 -1.0471  0.6406
 6355TIP3    H243261   5.930   4.388  11.393 -2.1765 -1.9172  0.5161
 6356TIP3   OH243262   2.103   7.547  12.211  0.3114  0.2455 -0.3671
 6356TIP3    H143263   2.047   7.512  12.280  0.5101  0.0152 -0.3189
 6356TIP3    H243264   2.185   7.570  12.256  0.5751 -0.2481 -0.5873
 6357TIP3   OH243265   5.624   2.954  10.975  0.3963  0.4289 -0.4375
 6357TIP3    H143266   5.560   2.927  10.909  0.0725 -0.9057  0.3913
 6357TIP3    H243267   5.617   3.049  10.977 -0.1782  0.4420 -1.7289
 6358TIP3   OH243268   2.826   2.193  12.084  0.3785  0.5018 -0.5541
 6358TIP3    H143269   2.837   2.225  12.173 -0.5943 -1.2280  0.2341
 6358TIP3    H243270   2.908   2.148  12.064  1.0595  1.8890 -1.0099
 6359TIP3   OH243271   6.623   5.318  11.488 -0.8345 -0.4074 -0.0025
 6359TIP3    H143272   6.631   5.223  11.490  1.2281 -0.2717 -0.0954
 6359TIP3    H243273   6.606   5.342  11.579  3.8777 -0.5905  1.1811
 6360TIP3   OH243274   0.307   1.660  11.752  0.2429 -0.3159  0.1415
 6360TIP3    H143275   0.258   1.649  11.670 -0.7413 -1.7826  0.8862
 6360TIP3    H243276   0.327   1.571  11.781  3.7943  0.1867 -0.3100
 6361TIP3   OH243277   1.259   0.812  11.000  0.3500  0.1715  0.1665
 6361TIP3    H143278   1.345   0.823  11.040  0.5707  0.8816 -0.4630
 6361TIP3    H243279   1.276   0.814  10.905 -0.4128  0.9489  0.0244
 6362TIP3   OH243280   1.442   5.750  11.707 -0.4333  0.2017  0.2816
 6362TIP3    H143281   1.415   5.667  11.745  1.7791 -1.5217 -1.6101
 6362TIP3    H243282   1.391   5.757  11.626  2.8850 -2.0953 -2.2830
 6363TIP3   OH243283   7.136   6.992  12.135  0.0128  0.3774 -0.1752
 6363TIP3    H143284   7.197   7.064  12.152  1.2224 -0.8296  0.8663
 6363TIP3    H243285   7.123   6.994  12.040  0.4438  1.6304 -0.2208
 6364TIP3   OH243286   4.035   5.806  11.724 -0.4509  0.4505  0.1198
 6364TIP3    H143287   4.003   5.895  11.706  1.8827  1.2714 -0.2446
 6364TIP3    H243288   4.121   5.803  11.683 -0.5781 -2.0966 -0.1009
 6365TIP3   OH243289   2.357   7.192  12.766  0.1043  0.5342 -0.3063
 6365TIP3    H143290   2.431   7.132  12.758  0.9653  1.6333 -0.8517
 6365TIP3    H243291   2.333   7.213  12.676  0.6843  2.0009 -0.1586
 6366TIP3   OH243292   0.153   0.585  13.238 -0.1933 -0.1081 -0.2815
 6366TIP3    H143293   0.145   0.497  13.201 -2.0141 -0.0397 -0.1655
 6366TIP3    H243294   0.192   0.638  13.168  0.0205 -0.7992 -0.6948
 6367TIP3   OH243295   1.578   3.281  10.832  0.8407 -0.3526  0.2241
 6367TIP3    H143296   1.667   3.284  10.798  1.4840 -1.3640  1.6825
 6367TIP3    H243297   1.562   3.188  10.847 -0.4276 -0.1697  0.0977
 6368TIP3   OH243298   7.087   3.693  11.955  0.1603  0.6163  0.3607
 6368TIP3    H143299   7.182   3.685  11.961  0.0654 -0.3661  0.8828
 6368TIP3    H243300   7.064   3.654  11.871  0.3725  2.7164 -0.7329
 6369TIP3   OH243301   0.325   3.001  13.280  0.2531 -0.5216  0.5127
 6369TIP3    H143302   0.353   2.916  13.247  0.1937 -0.5713  0.5923
 6369TIP3    H243303   0.310   3.053  13.201  0.1418 -0.6311  0.4606
 6370TIP3   OH243304   2.333   2.251  10.851 -0.8309  0.1756  0.2410
 6370TIP3    H143305   2.295   2.312  10.915 -0.5811  0.4832  0.1041
 6370TIP3    H243306   2.422   2.285  10.837 -0.8994  0.1404 -0.3043
 6371TIP3   OH243307   1.958   5.197  12.515 -0.0335 -0.0996  0.2411
 6371TIP3    H143308   2.019   5.242  12.574 -0.4622  0.3134  0.3793
 6371TIP3    H243309   1.871   5.222  12.547 -0.2775  0.8408 -1.0693
 6372TIP3   OH243310   3.838   4.845  10.809  0.2077  0.0048 -0.3252
 6372TIP3    H143311   3.806   4.787  10.878  1.7667 -0.7572 -0.1973
 6372TIP3    H243312   3.781   4.826  10.734  1.4092 -2.6973 -0.6779
 6373TIP3   OH243313   6.631   1.691  12.349 -0.6092  0.3615  0.0801
 6373TIP3    H143314   6.592   1.682  12.436  2.4918  1.2100  1.6668
 6373TIP3    H243315   6.703   1.629  12.347  0.6713  1.7917 -1.0873
 6374TIP3   OH243316   1.473   4.291  11.086 -0.2661 -0.7190  0.2841
 6374TIP3    H143317   1.493   4.385  11.082  1.9615 -1.1795 -0.8187
 6374TIP3    H243318   1.396   4.280  11.031 -0.3934  0.4137  0.2206
 6375TIP3   OH243319   1.480   0.749  11.464 -0.3815 -0.0697 -0.1658
 6375TIP3    H143320   1.413   0.690  11.497  0.0131 -0.7163 -0.5036
 6375TIP3    H243321   1.553   0.740  11.525 -1.2169  1.9797  1.2585
 6376TIP3   OH243322   2.322   6.424  10.967  0.4147  1.2028  0.2788
 6376TIP3    H143323   2.229   6.427  10.945  0.2008 -1.8541  0.2857
 6376TIP3    H243324   2.328   6.461  11.055 -0.7586  1.5956  0.2053
 6377TIP3   OH243325   0.634   5.667  12.258 -0.1781  0.5085  0.5541
 6377TIP3    H143326   0.551   5.659  12.211 -0.8522  0.8185  1.6455
 6377TIP3    H243327   0.636   5.591  12.316  0.9150 -0.1823 -0.3603
 6378TIP3   OH243328   6.634   2.298  12.059  0.5883  0.5351  0.6674
 6378TIP3    H143329   6.710   2.353  12.042  0.0334  0.9686 -0.6092
 6378TIP3    H243330   6.576   2.353  12.113  1.0256  0.3241  1.3630
 6379TIP3   OH243331   1.145   0.856  12.601 -0.0910 -0.3846  0.1125
 6379TIP3    H143332   1.098   0.788  12.649 -0.6073  0.1386  0.3598
 6379TIP3    H243333   1.189   0.907  12.669  0.5527 -0.6544 -0.0931
 6380TIP3   OH243334   4.035   6.092  11.672  0.4569 -0.0350  0.4832
 6380TIP3    H143335   4.125   6.115  11.649 -0.3014  2.3297 -0.3755
 6380TIP3    H243336   4.014   6.147  11.747 -0.3697 -0.3432  0.4871
 6381TIP3   OH243337   7.486   5.755  13.415  0.0628  0.2236  0.6348
 6381TIP3    H143338   7.429   5.823  13.381  0.0473  0.1093  0.4334
 6381TIP3    H243339   7.533   5.796  13.488 -2.9075 -0.6218  3.2611
 6382TIP3   OH243340   7.321   3.723  10.703 -0.5200 -0.1413 -0.1588
 6382TIP3    H143341   7.255   3.705  10.637 -1.1150  1.0215  0.0932
 6382TIP3    H243342   7.313   3.817  10.721 -0.8870 -0.5452  2.0751
 6383TIP3   OH243343   2.399   0.493  11.734  0.0302 -0.4131 -0.0105
 6383TIP3    H143344   2.368   0.404  11.719  0.5508 -0.4817 -0.7176
 6383TIP3    H243345   2.471   0.505  11.672 -0.8443  0.9396 -0.8302
 6384TIP3   OH243346   0.669   5.146  12.580 -0.1253 -0.7268 -0.1125
 6384TIP3    H143347   0.756   5.183  12.589 -0.7492  0.8743 -0.3143
 6384TIP3    H243348   0.684   5.054  12.558  1.5203 -0.1806 -1.4991
 6385TIP3   OH243349   7.566   5.318  13.073  0.2226  0.7630 -0.0566
 6385TIP3    H143350   7.484   5.365  13.058 -0.2948  0.3616  1.4113
 6385TIP3    H243351   7.570   5.305  13.168  1.9101  0.6272 -0.1153
 6386TIP3   OH243352   4.459   1.944  10.955 -0.0674  0.6052 -0.1923
 6386TIP3    H143353   4.395   1.926  10.886  1.7754 -2.6427 -1.2977
 6386TIP3    H243354   4.528   1.994  10.912  0.3738 -0.1290 -0.3675
 6387TIP3   OH243355   6.502   1.330  12.263  0.0670 -0.1653 -0.3681
 6387TIP3    H143356   6.447   1.322  12.341  0.4208  0.7915 -0.0144
 6387TIP3    H243357   6.510   1.240  12.231  1.0261 -0.7900  1.4719
 6388TIP3   OH243358   6.989   7.226  11.639  0.2217 -0.0030  0.1171
 6388TIP3    H143359   7.060   7.229  11.703 -0.0453  0.7340  0.3863
 6388TIP3    H243360   6.917   7.182  11.685  0.5732 -0.9837 -0.2397
 6389TIP3   OH243361   4.331   2.664  10.492 -0.0545 -0.0377  0.4528
 6389TIP3    H143362   4.323   2.583  10.441  0.0921 -0.7977  1.6028
 6389TIP3    H243363   4.242   2.681  10.523 -0.0937  0.2744  0.1702
 6390TIP3   OH243364   1.736   5.598  10.239 -0.2755 -0.4811  0.1564
 6390TIP3    H143365   1.731   5.643  10.323 -1.4302 -1.0543  0.4107
 6390TIP3    H243366   1.830   5.585  10.225 -0.0216  0.4211  0.9110
 6391TIP3   OH243367   4.181   2.905  11.728  0.4036 -0.0702  0.0573
 6391TIP3    H143368   4.214   2.815  11.728 -1.3542 -0.7650  0.4076
 6391TIP3    H243369   4.239   2.952  11.788  0.8430 -1.1875  0.5313
 6392TIP3   OH243370   0.262   2.610  11.570  0.5603 -0.5631 -0.0035
 6392TIP3    H143371   0.244   2.667  11.644 -1.9273  0.7865 -1.5191
 6392TIP3    H243372   0.191   2.628  11.508  1.2848 -3.2622 -1.7713
 6393TIP3   OH243373   5.387   4.061  11.093  0.4019 -0.5952  0.3766
 6393TIP3    H143374   5.344   4.118  11.156  0.5165  0.7716 -0.7248
 6393TIP3    H243375   5.460   4.022  11.141 -1.3490 -2.1033  1.9628
 6394TIP3   OH243376   0.602   5.848  10.969  0.0961  0.0832  0.3426
 6394TIP3    H143377   0.594   5.845  11.065  1.0107 -0.6507  0.4080
 6394TIP3    H243378   0.608   5.941  10.948 -1.0984  0.3157  0.8961
 6395TIP3   OH243379   1.516   2.583  12.580  0.3375  0.0577 -0.2842
 6395TIP3    H143380   1.478   2.549  12.661  1.8707  0.5662  0.6740
 6395TIP3    H243381   1.499   2.515  12.515  0.6186 -1.1437  0.8741
 6396TIP3   OH243382   4.068   2.269  18.647  0.0675  0.1671  0.1355
 6396TIP3    H143383   4.131   2.198  18.661 -1.5612 -1.5246 -0.7298
 6396TIP3    H243384   4.061   2.275  18.551 -0.6477  0.7288  0.2185
 6397TIP3   OH243385   4.587   7.452  11.477  0.1205  0.4943 -0.2921
 6397TIP3    H143386   4.535   7.475  11.400  1.8415  1.0503 -1.3288
 6397TIP3    H243387   4.670   7.421  11.442  0.3794 -0.7716  1.3085
 6398TIP3   OH243388   1.368   2.180  10.331 -0.2022 -0.1017  0.0452
 6398TIP3    H143389   1.316   2.208  10.256  1.1560 -1.7592 -1.6297
 6398TIP3    H243390   1.346   2.087  10.342  2.7790 -1.1094 -1.2459
 6399TIP3   OH243391   4.774   0.269  10.853  0.0743  0.4742  0.6173
 6399TIP3    H143392   4.734   0.322  10.784  0.5368 -0.3499 -0.3062
 6399TIP3    H243393   4.716   0.194  10.864  1.1704 -0.5664 -0.5115
 6400TIP3   OH243394   7.641   7.204  10.930 -0.6364 -0.2624  0.2092
 6400TIP3    H143395   7.608   7.114  10.925 -1.0782 -0.0311 -1.5437
 6400TIP3    H243396   7.704   7.210  10.858  1.2915  0.1163  1.8235
 6401TIP3   OH243397   0.206   6.207  11.936  0.3716 -0.5320  0.5061
 6401TIP3    H143398   0.288   6.251  11.960  1.0503 -1.4182 -0.1011
 6401TIP3    H243399   0.199   6.135  11.999 -0.4449  0.0800  1.1420
 6402TIP3   OH243400   4.457   6.874  11.952  0.1676  0.0249  0.4121
 6402TIP3    H143401   4.489   6.841  11.869 -0.6025 -0.0753  0.1427
 6402TIP3    H243402   4.429   6.964  11.933 -0.8170 -0.2806  0.3378
 6403TIP3   OH243403   4.052   6.524  11.782 -0.3709  0.6523 -0.2562
 6403TIP3    H143404   3.978   6.508  11.724 -0.8344 -0.4970  0.6247
 6403TIP3    H243405   4.125   6.476  11.743 -1.0697 -1.4625  0.8925
 6404TIP3   OH243406   5.942   1.930  11.058  0.1910 -0.2114 -0.0289
 6404TIP3    H143407   6.037   1.939  11.065  0.2383 -1.2355  1.0035
 6404TIP3    H243408   5.928   1.836  11.043 -0.6453 -0.0275 -0.4574
 6405TIP3   OH243409   0.696   5.587  11.345  0.1438  0.0950  0.0331
 6405TIP3    H143410   0.668   5.497  11.360 -0.2544  0.3146  0.6371
 6405TIP3    H243411   0.784   5.579  11.306  0.5427 -0.5401  1.0348
 6406TIP3   OH243412   6.868   5.958  11.921  0.3655  0.5802 -0.1163
 6406TIP3    H143413   6.833   5.869  11.933  1.0931  0.4527  1.1837
 6406TIP3    H243414   6.836   6.007  11.997 -0.9744  1.7786 -1.3794
 6407TIP3   OH243415   1.787   0.347  10.622 -0.0561  0.2626  0.4918
 6407TIP3    H143416   1.826   0.360  10.536 -3.3786  1.4779 -0.9732
 6407TIP3    H243417   1.809   0.256  10.645  1.9580  0.3165 -0.9833
 6408TIP3   OH243418   0.437   3.766  13.305  0.2329  0.2168 -0.9123
 6408TIP3    H143419   0.446   3.846  13.254 -0.6900  0.7999 -0.1984
 6408TIP3    H243420   0.421   3.796  13.395  0.7544 -0.7724 -0.4676
 6409TIP3   OH243421   6.895   7.148  12.072 -0.3632  0.4589  0.3316
 6409TIP3    H143422   6.963   7.080  12.063 -1.0041 -0.2158  0.4960
 6409TIP3    H243423   6.856   7.154  11.985 -1.6127 -0.7995  0.7638
 6410TIP3   OH243424   4.939   6.751  12.172 -0.2659 -0.6350  0.4583
 6410TIP3    H143425   4.911   6.776  12.260  0.9445 -2.0631  1.2875
 6410TIP3    H243426   4.996   6.823  12.144 -2.2054  0.8005 -0.0202
 6411TIP3   OH243427   5.875   1.930  10.610  0.5933  0.2364  0.7946
 6411TIP3    H143428   5.850   1.937  10.702 -0.6771  1.9828  0.3844
 6411TIP3    H243429   5.824   1.857  10.576 -0.2031  0.6335  1.1161
 6412TIP3   OH243430   0.290   7.667  12.910  0.0828 -0.6001 -0.3972
 6412TIP3    H143431   0.383   7.658  12.928  0.0742  0.9882  0.6414
 6412TIP3    H243432   0.247   7.640  12.991 -0.3832 -1.3636 -0.8807
 6413TIP3   OH243433   7.439   4.273  11.997  0.1980  0.2479  0.0967
 6413TIP3    H143434   7.500   4.212  12.038 -2.5268 -1.7600  1.4789
 6413TIP3    H243435   7.428   4.343  12.062  0.7848  0.4692 -0.0378
 6414TIP3   OH243436   5.327   6.814  11.278  0.1333 -0.3042  0.3169
 6414TIP3    H143437   5.375   6.893  11.301  0.0891 -0.9434  2.8436
 6414TIP3    H243438   5.377   6.743  11.318 -1.3597 -1.2656  0.5499
 6415TIP3   OH243439   2.780   0.424  10.718 -0.1553  0.2965 -0.3323
 6415TIP3    H143440   2.779   0.385  10.806 -1.3195 -0.8913 -0.8284
 6415TIP3    H243441   2.802   0.516  10.732  1.7744 -0.2969  0.9878
 6416TIP3   OH243442   3.451   4.945  10.851  0.0198 -0.0266  0.1599
 6416TIP3    H143443   3.480   4.866  10.804  1.6063  0.0044  1.0132
 6416TIP3    H243444   3.500   5.016  10.811 -0.4227  0.3409  0.2685
 6417TIP3   OH243445   3.385   6.309  10.702 -0.0283 -0.3496  0.1148
 6417TIP3    H143446   3.369   6.237  10.763 -1.9319 -0.1116 -0.0206
 6417TIP3    H243447   3.311   6.369  10.716 -1.0712 -0.7133 -2.9621
 6418TIP3   OH243448   6.490   0.255  10.788 -0.0669 -0.2961  0.2877
 6418TIP3    H143449   6.434   0.178  10.799  0.6207 -0.8184  0.1540
 6418TIP3    H243450   6.560   0.244  10.852  0.2731  0.0049 -0.0261
 6419TIP3   OH243451   0.040   1.485  10.473 -0.8486  0.8031 -0.2263
 6419TIP3    H143452  -0.013   1.409  10.495 -0.4752  0.1107 -1.5876
 6419TIP3    H243453   0.119   1.449  10.431 -1.2974  1.9265 -2.2025
 6420TIP3   OH243454   3.333   2.640  10.734  0.6980  0.5656  0.1588
 6420TIP3    H143455   3.385   2.657  10.655  1.0776  0.4869  0.3937
 6420TIP3    H243456   3.317   2.726  10.772 -1.8934  0.9441 -1.5090
 6421TIP3   OH243457   1.829   3.624  10.791 -0.5479 -0.1664 -0.0777
 6421TIP3    H143458   1.767   3.696  10.804  0.4278  0.8221 -0.6910
 6421TIP3    H243459   1.841   3.621  10.696  0.1581 -0.5025  0.0200
 6422TIP3   OH243460   5.485   4.296  13.276  0.2643 -0.5616  0.2268
 6422TIP3    H143461   5.513   4.216  13.232 -1.8905 -2.1448  1.5074
 6422TIP3    H243462   5.413   4.329  13.223 -0.2461 -0.6780  0.8370
 6423TIP3   OH243463   7.061   6.561  11.867  0.2365  0.2374  0.0815
 6423TIP3    H143464   6.982   6.557  11.921  0.2192 -0.1024  0.0339
 6423TIP3    H243465   7.035   6.612  11.790  0.4262  1.2276  0.6631
 6424TIP3   OH243466   0.512   7.575  12.479  0.1616 -0.3330 -0.2495
 6424TIP3    H143467   0.537   7.544  12.567  0.2957  0.4237 -0.0152
 6424TIP3    H243468   0.419   7.554  12.472 -0.1428  0.6515  0.5490
 6425TIP3   OH243469   4.115   2.240  13.030 -0.3339 -0.1105  0.5708
 6425TIP3    H143470   4.082   2.308  12.971  1.6260 -1.0316 -1.7601
 6425TIP3    H243471   4.045   2.176  13.035 -0.6992  0.1902 -0.4729
 6426TIP3   OH243472   2.629   5.584  11.063 -0.2539 -0.0574 -0.3063
 6426TIP3    H143473   2.655   5.497  11.035  1.9710  0.7433 -0.9307
 6426TIP3    H243474   2.560   5.569  11.128 -0.6466 -2.2018 -1.1433
 6427TIP3   OH243475   5.180   3.372  11.516  0.0009 -0.0768 -0.3766
 6427TIP3    H143476   5.140   3.286  11.531 -0.5084  0.1000 -0.6784
 6427TIP3    H243477   5.175   3.384  11.421  0.6719  0.0029 -0.4073
 6428TIP3   OH243478   2.065   5.312  11.488 -0.3733  0.3739  1.1370
 6428TIP3    H143479   2.106   5.227  11.505  0.5204  0.6147  0.2513
 6428TIP3    H243480   1.973   5.291  11.472  0.2432 -0.7512 -1.4226
 6429TIP3   OH243481   1.255   2.103  11.580 -0.7898 -0.0937 -0.1384
 6429TIP3    H143482   1.329   2.042  11.573  0.1309  0.7680  1.6649
 6429TIP3    H243483   1.178   2.046  11.587 -0.3597 -0.9999 -2.0233
 6430TIP3   OH243484   0.766   4.572  10.931 -0.3779  1.0764  0.8022
 6430TIP3    H143485   0.767   4.478  10.951 -0.1819  1.2178  1.4621
 6430TIP3    H243486   0.802   4.578  10.842  0.2305  0.5839  1.0079
 6431TIP3   OH243487   2.081   6.877  12.661  0.4785  0.2174 -0.0406
 6431TIP3    H143488   2.076   6.782  12.673 -0.5867  0.1018 -1.2223
 6431TIP3    H243489   2.120   6.909  12.743  2.4589 -1.3772 -0.2892
 6432TIP3   OH243490   4.290   1.015  11.384  0.0904  0.1996 -0.3540
 6432TIP3    H143491   4.299   1.009  11.289 -1.1135  1.3242 -0.5654
 6432TIP3    H243492   4.325   1.101  11.406  0.5742 -0.1448  0.2712
 6433TIP3   OH243493   3.082   0.499  10.945  0.0601  0.2687 -0.3195
 6433TIP3    H143494   3.068   0.533  11.033  0.5386 -0.5587  0.0973
 6433TIP3    H243495   3.058   0.406  10.952 -1.9677  0.6345 -1.6025
 6434TIP3   OH243496   3.029   2.046  10.933  0.1936 -0.6494 -0.6886
 6434TIP3    H143497   3.035   2.113  11.001  0.0461 -1.6074  0.2759
 6434TIP3    H243498   3.116   2.046  10.892  1.2963 -2.1681  1.5183
 6435TIP3   OH243499   5.348   3.104  12.075  0.1347 -0.3152  0.7908
 6435TIP3    H143500   5.422   3.163  12.058  0.0103 -0.0766  1.0590
 6435TIP3    H243501   5.277   3.163  12.099  0.0405 -0.5828  1.1765
 6436TIP3   OH243502   4.943   2.599  12.057  0.2591 -0.1133 -0.4345
 6436TIP3    H143503   5.025   2.622  12.014  1.0187  0.1691  1.0775
 6436TIP3    H243504   4.897   2.683  12.067  1.0033  0.1639  1.0468
 6437TIP3   OH243505   4.253   0.536  10.988  0.0294 -0.5839 -0.6586
 6437TIP3    H143506   4.222   0.501  11.071  0.4918  0.1467 -0.1690
 6437TIP3    H243507   4.223   0.627  10.987 -0.4890 -0.7456 -1.5657
 6438TIP3   OH243508   7.071   4.845  12.108 -0.5711  0.1406  0.5984
 6438TIP3    H143509   7.014   4.770  12.092 -1.2007  0.8313 -0.4969
 6438TIP3    H243510   7.071   4.857  12.203 -2.3605  0.2155  0.6062
 6439TIP3   OH243511   6.544   3.654  13.217  0.3122 -0.4606  0.0409
 6439TIP3    H143512   6.556   3.635  13.309  2.3431  0.0034 -0.0879
 6439TIP3    H243513   6.516   3.746  13.214 -0.4772 -0.6858  0.2029
 6440TIP3   OH243514   6.156   3.281  12.505  0.4500  0.0727 -0.2602
 6440TIP3    H143515   6.246   3.277  12.537  0.5385  3.8315  0.3641
 6440TIP3    H243516   6.105   3.239  12.574  1.5273 -0.6506  0.1407
 6441TIP3   OH243517   6.251   1.661  13.353  0.0487 -0.4321 -0.1518
 6441TIP3    H143518   6.216   1.621  13.432  3.2142 -1.6345  0.8201
 6441TIP3    H243519   6.344   1.637  13.353  1.2013  3.1889 -1.9229
 6442TIP3   OH243520   1.784   1.955  11.672 -0.1856 -0.0263  0.1295
 6442TIP3    H143521   1.821   1.906  11.598  0.5968  0.1897  0.3709
 6442TIP3    H243522   1.830   1.921  11.749  0.6614  1.3746  0.2541
 6443TIP3   OH243523   6.187   0.593  10.943 -0.5622 -0.2055  0.8579
 6443TIP3    H143524   6.233   0.637  11.014 -0.8100  4.1416 -1.3041
 6443TIP3    H243525   6.097   0.623  10.950 -0.4454  0.9816 -1.5845
 6444TIP3   OH243526   5.569   3.892  11.949  0.0014 -0.1270 -0.4478
 6444TIP3    H143527   5.494   3.909  11.893 -0.8657  0.0306  0.7303
 6444TIP3    H243528   5.553   3.943  12.028  1.2874 -0.1990 -0.1139
 6445TIP3   OH243529   2.635   1.917  10.881 -0.5844  0.0139 -0.2099
 6445TIP3    H143530   2.630   1.862  10.803 -2.1971 -0.4373  0.1699
 6445TIP3    H243531   2.545   1.949  10.894 -0.2810  0.3587  1.2489
 6446TIP3   OH243532   6.944   2.001  11.970  0.1159  1.0887  0.5656
 6446TIP3    H143533   6.888   2.025  12.044 -0.5630  1.3239 -0.0171
 6446TIP3    H243534   6.892   2.023  11.893  0.4381 -0.0432  0.0169
 6447TIP3   OH243535   1.666   5.923  10.925  0.3797 -0.8802 -0.0028
 6447TIP3    H143536   1.704   5.933  10.837  1.7251  0.6483  0.6865
 6447TIP3    H243537   1.641   6.012  10.949  2.0401 -0.8772  1.9798
 6448TIP3   OH243538   2.164   7.677  10.760  0.0316  0.1978  0.3426
 6448TIP3    H143539   2.249   7.687  10.718 -0.8664 -0.5647 -1.7997
 6448TIP3    H243540   2.150   7.582  10.765 -0.4671  0.3052  1.1299
 6449TIP3   OH243541   3.751   2.446  11.306  0.0142 -0.5465  0.1101
 6449TIP3    H143542   3.666   2.427  11.346  0.0600  0.3879  0.6712
 6449TIP3    H243543   3.797   2.362  11.306 -0.7528 -0.9745  0.1749
 6450TIP3   OH243544   5.995   0.930  11.641  0.0832 -0.5338 -0.5254
 6450TIP3    H143545   6.003   1.003  11.579 -0.4849 -2.2978 -2.8474
 6450TIP3    H243546   5.909   0.942  11.681  1.2990  1.7864  1.6191
 6451TIP3   OH243547   2.708   6.451  12.423  0.0957 -0.1233  0.1180
 6451TIP3    H143548   2.672   6.539  12.418  1.2185  0.3148 -0.7276
 6451TIP3    H243549   2.711   6.421  12.332  0.3706 -0.7622  0.3306
 6452TIP3   OH243550   7.196   7.375  11.784 -0.2753  0.2738  0.2132
 6452TIP3    H143551   7.279   7.348  11.824 -0.3143  2.5838  2.0844
 6452TIP3    H243552   7.217   7.388  11.691  1.9585  2.3407  0.9015
 6453TIP3   OH243553   1.873   3.848  12.963  0.0914  0.2177  0.2713
 6453TIP3    H143554   1.895   3.760  12.992  1.1124 -0.0662 -1.2197
 6453TIP3    H243555   1.777   3.850  12.960  0.0625 -1.1823 -0.5614
 6454TIP3   OH243556   2.321   2.324  12.667  0.2871  0.3282  0.2020
 6454TIP3    H143557   2.335   2.273  12.587  0.9763  0.3275  0.3225
 6454TIP3    H243558   2.336   2.262  12.738  1.1062  0.6870  0.3506
 6455TIP3   OH243559   1.648   0.227  11.172 -0.0931 -0.0380  0.5167
 6455TIP3    H143560   1.565   0.187  11.145  0.6418 -2.0725  1.1143
 6455TIP3    H243561   1.624   0.285  11.244 -1.2341  0.9161 -0.5606
 6456TIP3   OH243562   0.741   5.423  11.934 -0.2716 -0.4959  0.7929
 6456TIP3    H143563   0.655   5.436  11.973 -0.8408 -1.2802 -0.1538
 6456TIP3    H243564   0.734   5.460  11.847  0.2441 -0.8559  0.5942
 6457TIP3   OH243565   5.291   4.992  13.221  0.0823 -0.3437 -0.0135
 6457TIP3    H143566   5.262   4.914  13.268 -1.5146  0.1359 -0.1458
 6457TIP3    H243567   5.327   5.049  13.289 -0.5221 -0.4153  0.3769
 6458TIP3   OH243568   6.390   0.153  12.727  0.6391 -0.5778 -0.6278
 6458TIP3    H143569   6.389   0.105  12.810  0.1468 -0.8429 -0.7822
 6458TIP3    H243570   6.481   0.150  12.699  0.9591  0.1987  0.2969
 6459TIP3   OH243571   3.289   1.798  11.284 -0.1072  0.0480 -0.2343
 6459TIP3    H143572   3.360   1.774  11.344  1.0460  0.3015 -1.4438
 6459TIP3    H243573   3.247   1.715  11.262  0.4023 -0.2256 -0.1975
 6460TIP3   OH243574   2.399   1.887  11.515 -0.5455  0.3741 -0.2375
 6460TIP3    H143575   2.427   1.966  11.561 -0.7663  0.8160 -0.8391
 6460TIP3    H243576   2.441   1.893  11.429 -0.0975 -0.4618 -0.0814
 6461TIP3   OH243577   6.866   4.029  13.013  0.2118  0.5832 -0.1228
 6461TIP3    H143578   6.781   3.989  12.994 -0.2394  1.3719  0.1509
 6461TIP3    H243579   6.883   4.009  13.105 -1.5692  3.6152  1.0243
 6462TIP3   OH243580   4.301   4.651  12.157  0.0092 -0.1394 -0.7453
 6462TIP3    H143581   4.257   4.618  12.236 -1.7051 -1.0783 -2.0214
 6462TIP3    H243582   4.317   4.743  12.175 -1.4723 -0.0337  0.2644
 6463TIP3   OH243583   6.167   3.047  12.333  0.1272 -0.0023  0.5251
 6463TIP3    H143584   6.130   3.113  12.392  0.2426 -0.7254  1.4269
 6463TIP3    H243585   6.212   3.098  12.265 -1.0459  0.8647  0.3575
 6464TIP3   OH243586   2.794   4.292  11.331  0.3839  0.0375  0.0109
 6464TIP3    H143587   2.809   4.369  11.385 -1.4909  0.0102  0.6366
 6464TIP3    H243588   2.808   4.322  11.241 -0.4458  1.1469  0.2370
 6465TIP3   OH243589   5.868   1.206  12.640 -0.4838  0.4564 -0.4192
 6465TIP3    H143590   5.840   1.157  12.718 -0.8028  0.4968 -0.5082
 6465TIP3    H243591   5.951   1.246  12.666  1.0034 -1.9835 -1.0881
 6466TIP3   OH243592   3.345   0.402  11.077  0.3974 -0.1987 -0.1772
 6466TIP3    H143593   3.266   0.454  11.062  0.0608 -1.0203 -1.4717
 6466TIP3    H243594   3.338   0.330  11.014  0.2341 -2.5485  2.3721
 6467TIP3   OH243595   5.768   3.044  13.056  0.0700 -0.5541  0.0128
 6467TIP3    H143596   5.737   3.049  12.966 -0.0872 -2.8899 -0.1264
 6467TIP3    H243597   5.773   3.135  13.085  0.2816  0.2664 -2.3860
 6468TIP3   OH243598   1.689   5.331  10.160  0.2072 -0.0870  0.1992
 6468TIP3    H143599   1.689   5.427  10.169  0.2972 -0.1949  1.4970
 6468TIP3    H243600   1.622   5.314  10.093 -1.8459  0.7475  1.9227
 6469TIP3   OH243601   0.140   7.142  10.351 -0.2347  0.0327 -0.9638
 6469TIP3    H143602   0.101   7.057  10.329 -0.9315 -0.2063  0.9795
 6469TIP3    H243603   0.183   7.128  10.435  0.0223  1.5005 -0.8230
 6470TIP3   OH243604   6.643   0.216  11.838 -0.3923  0.3055 -0.4337
 6470TIP3    H143605   6.643   0.255  11.751  0.9027 -1.4744 -1.2923
 6470TIP3    H243606   6.554   0.183  11.849 -1.0412  1.9826 -0.3499
 6471TIP3   OH243607   2.657   6.505  11.596  0.5346  0.4379  0.2269
 6471TIP3    H143608   2.640   6.543  11.682 -1.3358 -1.9361  1.0292
 6471TIP3    H243609   2.716   6.432  11.613  2.0324  1.3407 -0.8972
 6472TIP3   OH243610   3.642   1.073  12.629  0.0015  0.1812  0.1041
 6472TIP3    H143611   3.558   1.071  12.675 -0.4905  3.7105 -0.3334
 6472TIP3    H243612   3.619   1.066  12.537  0.8605 -5.0444 -0.0280
 6473TIP3   OH243613   2.940   2.891  10.863  0.0666  0.3979 -0.2387
 6473TIP3    H143614   2.908   2.938  10.786  0.4490 -0.2988 -0.8399
 6473TIP3    H243615   2.922   2.799  10.844 -1.5695  0.3465  1.3447
 6474TIP3   OH243616   5.102   2.303  10.563 -0.2281  0.2673  0.4170
 6474TIP3    H143617   5.044   2.239  10.521  2.4045  0.1955 -3.6926
 6474TIP3    H243618   5.081   2.386  10.520  0.9841  0.7147  0.6374
 6475TIP3   OH243619   1.032   4.124  10.892 -0.1645  0.3152  0.1156
 6475TIP3    H143620   1.120   4.107  10.857  0.1992  0.3393  0.9847
 6475TIP3    H243621   1.046   4.133  10.987 -0.8909  1.6984  0.1118
 6476TIP3   OH243622   3.533   6.605  11.516  0.2136  0.3941 -0.1647
 6476TIP3    H143623   3.498   6.549  11.447  0.7074 -1.9901  1.3875
 6476TIP3    H243624   3.620   6.631  11.485  0.4306 -0.6474 -0.4444
 6477TIP3   OH243625   6.428   5.013  12.697  0.4457 -0.0201 -0.0323
 6477TIP3    H143626   6.474   5.014  12.781 -1.3135  0.1051  0.9788
 6477TIP3    H243627   6.406   5.105  12.681 -1.5218 -0.3299  0.7264
 6478TIP3   OH243628   4.820   0.574  11.804 -0.2618 -0.0365 -0.1873
 6478TIP3    H143629   4.902   0.528  11.787 -0.1803 -0.6372  1.6445
 6478TIP3    H243630   4.793   0.545  11.891 -0.8193  2.4654  0.5636
 6479TIP3   OH243631   5.817   7.262  12.238 -0.0761 -0.7523  0.4936
 6479TIP3    H143632   5.834   7.220  12.322 -1.4476 -0.3574  1.0017
 6479TIP3    H243633   5.834   7.194  12.173  0.8123 -1.1210  1.1001
 6480TIP3   OH243634   2.069   1.980  12.717 -0.1395 -0.4485 -0.0885
 6480TIP3    H143635   2.089   2.035  12.793  0.8046  1.3653 -1.5704
 6480TIP3    H243636   2.084   1.891  12.748 -1.2405  0.1123  2.2686
 6481TIP3   OH243637   7.599   0.118  10.653 -0.5135 -0.3939 -0.2078
 6481TIP3    H143638   7.668   0.184  10.646  0.9122 -1.9860 -2.2517
 6481TIP3    H243639   7.518   0.166  10.633  0.0632  1.2779  1.1877
 6482TIP3   OH243640   0.554   3.393  13.735 -0.2196  0.0092  0.4717
 6482TIP3    H143641   0.624   3.336  13.704  0.8034  1.1196  0.6727
 6482TIP3    H243642   0.497   3.335  13.786  0.3473 -0.9843  0.0078
 6483TIP3   OH243643   2.069   3.065  10.696 -0.7953  0.0633  0.1927
 6483TIP3    H143644   2.091   3.141  10.642 -1.0983  0.6423  0.8603
 6483TIP3    H243645   2.152   3.017  10.704 -0.6669  0.1552 -0.4789
 6484TIP3   OH243646   1.830   6.590  13.063  0.3839  0.3958 -0.8463
 6484TIP3    H143647   1.754   6.533  13.065 -0.9686  2.0858 -1.5547
 6484TIP3    H243648   1.842   6.611  12.971  0.4671  1.7430 -0.5425
 6485TIP3   OH243649   1.661   2.453  10.764 -0.4345 -0.5591  0.3658
 6485TIP3    H143650   1.682   2.382  10.825  1.6771 -0.0545  0.3155
 6485TIP3    H243651   1.661   2.410  10.678 -1.1981 -0.8543  0.5028
 6486TIP3   OH243652   1.647   3.676  11.179  0.0344  0.0698  0.0353
 6486TIP3    H143653   1.553   3.687  11.166  0.0769  0.0078 -0.3348
 6486TIP3    H243654   1.676   3.626  11.103  0.3590  0.0399  0.1767
 6487TIP3   OH243655   1.918   2.266  10.500 -0.3315 -0.1067 -0.3598
 6487TIP3    H143656   1.987   2.218  10.454 -1.7044 -0.7037 -1.8886
 6487TIP3    H243657   1.944   2.262  10.592  1.5422 -0.5012 -0.8644
 6488TIP3   OH243658   6.405   5.125  11.236 -0.2170  0.2600 -0.0832
 6488TIP3    H143659   6.408   5.067  11.160 -0.9383  1.3614 -0.9886
 6488TIP3    H243660   6.320   5.169  11.230  0.0069  0.8761  0.9744
 6489TIP3   OH243661   1.184   3.471  10.653  0.3861 -0.0449  0.1572
 6489TIP3    H143662   1.124   3.544  10.640  0.5368  0.3396  1.4373
 6489TIP3    H243663   1.171   3.446  10.745  2.0261 -0.0876  0.4020
 6490TIP3   OH243664   4.678   4.753  11.584 -0.0027 -0.0261 -0.3639
 6490TIP3    H143665   4.670   4.705  11.667  0.4772 -1.6006 -1.1942
 6490TIP3    H243666   4.606   4.721  11.530 -1.9139  2.8532  0.2411
 6491TIP3   OH243667   6.420   5.749  12.477  0.1706  0.2979  0.0048
 6491TIP3    H143668   6.424   5.837  12.513  0.1518  0.4797 -0.4347
 6491TIP3    H243669   6.465   5.755  12.393  1.3281 -0.4033  0.5525
 6492TIP3   OH243670   4.001   6.214  11.923 -0.4754 -0.1631 -0.2932
 6492TIP3    H143671   3.968   6.139  11.972 -0.8259  0.4762  0.4655
 6492TIP3    H243672   3.922   6.260  11.893 -0.2642 -0.2581 -1.0040
 6493TIP3   OH243673   2.914   0.262  10.949  0.2292 -0.1231  0.5557
 6493TIP3    H143674   2.863   0.231  11.024 -1.2713 -0.6361 -0.6241
 6493TIP3    H243675   2.917   0.187  10.889  0.4381  0.6126 -0.3855
 6494TIP3   OH243676   7.028   4.022  12.640  0.0182 -0.1998  0.6371
 6494TIP3    H143677   7.002   4.063  12.557  0.6711  0.4055  0.7204
 6494TIP3    H243678   6.992   3.933  12.635 -1.5889  0.4290  0.5350
 6495TIP3   OH243679   3.368   7.136  10.774 -0.0845 -0.0551  0.5923
 6495TIP3    H143680   3.334   7.206  10.830 -2.2615  1.0873 -1.9122
 6495TIP3    H243681   3.425   7.181  10.712 -0.6332 -0.6605 -0.3671
 6496TIP3   OH243682   3.934   4.483  10.737  0.3905 -0.3354  0.1351
 6496TIP3    H143683   3.898   4.531  10.662  2.1674 -0.6725 -0.9850
 6496TIP3    H243684   3.883   4.515  10.811 -0.6116  0.9312 -1.0275
 6497TIP3   OH243685   2.010   2.205  12.905 -0.1763 -0.1163 -0.9289
 6497TIP3    H143686   1.934   2.252  12.941  1.1326  1.2004  0.2610
 6497TIP3    H243687   2.082   2.229  12.964  1.3186 -0.7516 -2.4399
 6498TIP3   OH243688   4.906   7.655  11.534  0.0082 -0.4748 -0.1138
 6498TIP3    H143689   4.969   7.586  11.516 -0.1958 -0.5564 -0.5310
 6498TIP3    H243690   4.854   7.661  11.454 -0.3281 -0.2143  0.1221
 6499TIP3   OH243691   0.385   3.942  11.466 -0.0944 -0.0016 -0.7428
 6499TIP3    H143692   0.344   3.872  11.515 -1.8031 -0.1260 -2.2570
 6499TIP3    H243693   0.443   3.986  11.529 -1.1480 -0.9878  0.9578
 6500TIP3   OH243694   7.032   2.811  13.355  0.1431 -0.0305 -0.1327
 6500TIP3    H143695   7.008   2.868  13.428  0.8306 -1.5789  1.3596
 6500TIP3    H243696   7.006   2.724  13.382  0.9012 -0.7333 -1.5271
 6501TIP3   OH243697   2.690   5.232  11.413 -0.0028 -0.1517  0.0443
 6501TIP3    H143698   2.771   5.283  11.410  0.6413 -1.0786  1.2033
 6501TIP3    H243699   2.624   5.294  11.444  1.0768 -0.3227  2.9974
 6502TIP3   OH243700   1.680   0.996  11.081 -0.4350  0.1366 -0.1331
 6502TIP3    H143701   1.652   0.911  11.116  1.5166 -0.2550  0.5889
 6502TIP3    H243702   1.757   0.977  11.028 -0.4114  1.3793 -0.5879
 6503TIP3   OH243703   3.619   4.042  12.175 -0.4399 -0.3556 -0.2970
 6503TIP3    H143704   3.555   3.985  12.133  0.0007 -1.7763  0.8674
 6503TIP3    H243705   3.697   3.986  12.186  1.0699  1.3247 -1.7458
 6504TIP3   OH243706   5.789   3.483  10.189  0.3901  0.0907 -0.8990
 6504TIP3    H143707   5.713   3.541  10.196 -0.2266 -0.2555 -3.6565
 6504TIP3    H243708   5.757   3.398  10.217  0.6409  0.5227  0.8256
 6505TIP3   OH243709   0.035   3.303  12.501 -0.7129 -0.3830  0.0072
 6505TIP3    H143710  -0.021   3.354  12.442 -0.2545  0.4023  0.2379
 6505TIP3    H243711   0.079   3.369  12.554  0.3561 -1.0052 -0.0953
 6506TIP3   OH243712   1.464   1.750  12.486 -0.5034 -0.2857  0.2102
 6506TIP3    H143713   1.535   1.716  12.541 -1.3559 -1.7665  0.4462
 6506TIP3    H243714   1.384   1.713  12.524 -1.1897 -0.7250 -1.5539
 6507TIP3   OH243715   1.318   3.179  11.274  0.2590  0.3575 -0.4839
 6507TIP3    H143716   1.403   3.205  11.238  0.9484 -0.6407  0.3847
 6507TIP3    H243717   1.267   3.152  11.198  1.4670 -1.0919 -0.8218
 6508TIP3   OH243718   3.237   3.338  11.518 -0.0095 -0.0268  0.3563
 6508TIP3    H143719   3.187   3.257  11.519 -0.7420  0.3488 -1.7004
 6508TIP3    H243720   3.300   3.327  11.446 -0.5291  1.4309 -0.3631
 6509TIP3   OH243721   0.423   3.948  11.210  0.6065  0.7601  0.2236
 6509TIP3    H143722   0.415   3.914  11.300  0.0599 -0.2170 -0.1799
 6509TIP3    H243723   0.388   4.037  11.215 -0.8075  0.2087  0.6861
 6510TIP3   OH243724   0.285   4.826  11.066 -0.0746  0.1562 -0.5546
 6510TIP3    H143725   0.364   4.787  11.030  1.1946  2.6659 -0.7202
 6510TIP3    H243726   0.287   4.803  11.159 -0.1647 -1.3269 -0.9020
 6511TIP3   OH243727   6.953   2.867  11.338 -0.2625  0.4966  0.5766
 6511TIP3    H143728   7.025   2.914  11.296  0.3324 -0.1805  0.8281
 6511TIP3    H243729   6.939   2.915  11.420 -0.9746  1.4062 -0.0496
 6512TIP3   OH243730   2.601   3.531  12.213 -0.4449 -0.5384  0.1801
 6512TIP3    H143731   2.626   3.621  12.193  1.4569 -1.0008  0.3611
 6512TIP3    H243732   2.544   3.539  12.290 -1.1369  0.5579 -0.4168
 6513TIP3   OH243733   1.787   2.735  11.776 -0.2270  0.0856  0.4431
 6513TIP3    H143734   1.708   2.711  11.728  0.2640  0.0938 -0.3877
 6513TIP3    H243735   1.758   2.804  11.835 -0.7095  0.5639 -0.3278
 6514TIP3   OH243736   4.717   3.383  10.975 -0.1196 -0.2629  0.0149
 6514TIP3    H143737   4.754   3.299  11.003  0.0857 -0.7512 -1.6270
 6514TIP3    H243738   4.629   3.361  10.944 -0.0645  0.1249 -0.4277
 6515TIP3   OH243739   5.736   2.473  11.751 -0.2252  0.1550  0.5758
 6515TIP3    H143740   5.809   2.530  11.727  0.0732 -1.2863 -2.3270
 6515TIP3    H243741   5.705   2.437  11.668 -2.5841 -1.2877  1.9720
 6516TIP3   OH243742   4.007   5.035  11.722  0.5842  0.8988  0.3544
 6516TIP3    H143743   4.078   5.048  11.785 -1.6663  0.4108  3.2371
 6516TIP3    H243744   3.993   5.122  11.684  2.1144  1.1809  0.3758
 6517TIP3   OH243745   7.554   5.591  13.162 -0.4981  0.4275 -0.3475
 6517TIP3    H143746   7.547   5.684  13.187  0.8363 -0.2733  3.3645
 6517TIP3    H243747   7.647   5.570  13.174 -0.8953 -1.5499 -0.3979
 6518TIP3   OH243748   7.278   5.977  10.491 -0.3388 -0.2119 -0.1876
 6518TIP3    H143749   7.259   6.024  10.410 -0.1165 -0.5465 -0.4352
 6518TIP3    H243750   7.334   6.037  10.541  0.9957 -0.7035 -1.0414
 6519TIP3   OH243751   2.327   6.136  12.899 -0.1183  0.2334 -0.2244
 6519TIP3    H143752   2.354   6.207  12.840 -1.2364  0.6415 -0.2586
 6519TIP3    H243753   2.269   6.177  12.962  0.9456 -0.2313  1.1120
 6520TIP3   OH243754   7.371   6.129  10.712  0.1384 -0.3065  0.0565
 6520TIP3    H143755   7.300   6.173  10.761  0.7579 -0.3517  1.0198
 6520TIP3    H243756   7.430   6.096  10.780  1.3126  0.1044 -0.7367
 6521TIP3   OH243757   0.333   6.773  12.639 -0.3668  0.6648 -0.1729
 6521TIP3    H143758   0.424   6.765  12.611 -0.8808 -1.2324 -1.5360
 6521TIP3    H243759   0.338   6.785  12.734  1.3028 -2.6211  0.3098
 6522TIP3   OH243760   7.343   4.871  10.768 -0.0900  0.5998  0.2681
 6522TIP3    H143761   7.248   4.883  10.763 -0.3086 -1.2126 -1.0971
 6522TIP3    H243762   7.371   4.930  10.837 -2.3639  0.4166  1.4472
 6523TIP3   OH243763   4.749   0.707  12.094 -0.2966  0.1092  0.2979
 6523TIP3    H143764   4.713   0.618  12.096  1.1018 -0.4772  1.1851
 6523TIP3    H243765   4.844   0.694  12.092 -0.0690  1.5906 -1.0177
 6524TIP3   OH243766   0.600   1.687  10.613 -0.0609 -0.1024  0.2898
 6524TIP3    H143767   0.576   1.711  10.524 -1.0139 -2.7099 -0.2485
 6524TIP3    H243768   0.527   1.634  10.644  0.9264 -0.5114  2.0761
 6525TIP3   OH243769   0.936   6.655  11.221 -0.0982  0.2688 -0.5613
 6525TIP3    H143770   0.904   6.671  11.310 -2.7994 -0.5266 -1.2991
 6525TIP3    H243771   0.979   6.570  11.226 -1.8635 -0.6606 -0.3216
 6526TIP3   OH243772   7.679   1.933  11.979 -0.7440  0.3833  0.2282
 6526TIP3    H143773   7.663   1.957  12.070 -1.0998 -0.7920  0.4906
 6526TIP3    H243774   7.593   1.908  11.945 -0.1769 -2.1052  0.4744
 6527TIP3   OH243775   5.008   1.195  11.517  0.0951 -0.0559 -1.0646
 6527TIP3    H143776   4.985   1.108  11.551 -2.7800  0.2879 -1.8010
 6527TIP3    H243777   5.086   1.220  11.565  0.0246 -2.3339  0.3985
 6528TIP3   OH243778   2.974   4.425  11.948  0.2013 -0.5866 -0.5937
 6528TIP3    H143779   3.064   4.390  11.944  0.4450 -0.3890  1.7702
 6528TIP3    H243780   2.935   4.398  11.865  2.3912 -0.7993 -1.6492
 6529TIP3   OH243781   2.810   4.308  11.714  0.0238 -0.0465 -0.5570
 6529TIP3    H143782   2.813   4.403  11.712  0.5322 -0.0552 -0.3276
 6529TIP3    H243783   2.720   4.287  11.737 -0.9483  0.3303 -3.5666
 6530TIP3   OH243784   3.515   4.460  11.940 -0.5277  0.6539 -0.0583
 6530TIP3    H143785   3.559   4.541  11.967  0.7653  0.0218 -0.1939
 6530TIP3    H243786   3.574   4.390  11.970 -0.5885 -0.1717 -1.7449
 6531TIP3   OH243787   4.564   6.576  12.104 -0.1669  0.1659 -0.4223
 6531TIP3    H143788   4.647   6.569  12.056 -0.4151  0.2221 -0.8720
 6531TIP3    H243789   4.541   6.669  12.097 -0.3373  0.1232 -0.4203
 6532TIP3   OH243790   0.257   5.636  11.759  0.3212  0.1703  0.7084
 6532TIP3    H143791   0.204   5.563  11.792  0.6827 -0.0717  0.7636
 6532TIP3    H243792   0.213   5.663  11.679  0.3130 -0.2685  0.5582
 6533TIP3   OH243793   0.594   1.776  12.308 -0.1947  0.3673 -0.0661
 6533TIP3    H143794   0.500   1.786  12.326 -0.5843  0.5528 -2.0571
 6533TIP3    H243795   0.628   1.866  12.309 -0.4968  0.5169 -1.5734
 6534TIP3   OH243796   5.680   3.120  12.225  0.7946  0.8378  0.2100
 6534TIP3    H143797   5.609   3.163  12.273 -0.1958  0.5249 -0.9266
 6534TIP3    H243798   5.654   3.028  12.222  2.0580  0.4134  1.1473
 6535TIP3   OH243799   4.076   1.604  10.420 -0.2223  0.1207  0.4323
 6535TIP3    H143800   4.142   1.583  10.485 -0.2098  1.9417  1.0723
 6535TIP3    H243801   4.121   1.596  10.336  0.0903 -1.1025  0.7052
 6536TIP3   OH243802   6.556   7.064  12.655 -0.1597 -0.4806  0.5223
 6536TIP3    H143803   6.511   7.010  12.590  1.7059 -1.4406 -0.0579
 6536TIP3    H243804   6.495   7.072  12.727 -1.1307 -1.9540 -0.1023
 6537TIP3   OH243805   5.606   6.793  10.876 -0.5792 -0.4911  0.3325
 6537TIP3    H143806   5.517   6.785  10.912 -1.0828  1.4756 -0.3482
 6537TIP3    H243807   5.630   6.884  10.891  1.4651 -1.0411  0.7319
 6538TIP3   OH243808   2.957   4.086  11.402 -0.4071 -0.2387 -0.1050
 6538TIP3    H143809   2.934   4.169  11.361  0.7521 -0.6522 -1.6938
 6538TIP3    H243810   2.900   4.080  11.479 -1.7370  1.1823 -0.9392
 6539TIP3   OH243811   4.927   3.344  10.375  0.3661  0.4554 -0.0187
 6539TIP3    H143812   4.835   3.341  10.398  0.5533  1.3689  0.8957
 6539TIP3    H243813   4.970   3.288  10.440  0.4606  0.0351 -0.4396
 6540TIP3   OH243814   4.403   6.584  11.052  0.1078  0.6277 -0.2710
 6540TIP3    H143815   4.365   6.636  10.981 -0.1599  3.1345  1.5320
 6540TIP3    H243816   4.469   6.641  11.091  1.4911 -1.3427  0.4275
 6541TIP3   OH243817   4.910   2.691  11.323 -0.3821  0.4469  0.2788
 6541TIP3    H143818   4.913   2.713  11.229 -0.5833  2.2652  0.6603
 6541TIP3    H243819   4.846   2.621  11.329 -0.7602  0.6661 -0.8837
 6542TIP3   OH243820   7.173   6.826  10.227  0.4214  0.0169  0.2303
 6542TIP3    H143821   7.170   6.769  10.150  0.1797 -0.9610  0.9318
 6542TIP3    H243822   7.187   6.765  10.301  0.9997  0.9580  0.9213
 6543TIP3   OH243823   2.464   0.275  10.887 -0.1052  0.5542 -0.4173
 6543TIP3    H143824   2.553   0.281  10.851 -0.0410  0.1146 -0.3364
 6543TIP3    H243825   2.449   0.360  10.928  0.7667  0.2171  0.6639
 6544TIP3   OH243826   0.682   7.443  11.541 -0.7014  0.5638  0.0729
 6544TIP3    H143827   0.682   7.469  11.449 -0.5330 -1.2625 -0.4963
 6544TIP3    H243828   0.613   7.377  11.547  0.0326 -0.1500  0.9903
 6545TIP3   OH243829   1.017   7.505  12.334 -0.1081 -0.2920  0.1290
 6545TIP3    H143830   0.986   7.487  12.245  1.5605 -2.8445 -0.0436
 6545TIP3    H243831   0.992   7.596  12.350  3.1211  1.7996 -4.5347
 6546TIP3   OH243832   0.495   4.282  10.734  0.1764  0.0157 -0.7047
 6546TIP3    H143833   0.492   4.287  10.829  1.9970 -1.2801 -0.5181
 6546TIP3    H243834   0.450   4.361  10.704  0.4217  0.9567  1.2431
 6547TIP3   OH243835   0.477   5.505  12.889  0.2398 -0.8045 -0.0979
 6547TIP3    H143836   0.482   5.578  12.950  1.9076  0.1634 -1.3166
 6547TIP3    H243837   0.391   5.515  12.847  0.7574  0.9818 -0.8275
 6548TIP3   OH243838   7.673   4.175  12.615 -0.3791 -0.2532 -0.3694
 6548TIP3    H143839   7.762   4.210  12.625  0.0852 -0.9932 -1.6058
 6548TIP3    H243840   7.657   4.128  12.697  0.7594 -0.9115 -0.4963
 6549TIP3   OH243841   4.360   3.398  12.472  0.1545  0.4422 -0.0926
 6549TIP3    H143842   4.374   3.469  12.410 -2.5729  0.6878 -0.5359
 6549TIP3    H243843   4.310   3.332  12.423 -1.7947  0.4952  1.6823
 6550TIP3   OH243844   6.588   2.903  12.809 -0.6148  0.3005  0.5268
 6550TIP3    H143845   6.553   2.845  12.877 -2.2248  0.6560  0.0574
 6550TIP3    H243846   6.597   2.846  12.733  0.8114 -0.0073  0.8979
 6551TIP3   OH243847   1.654   3.859  10.822  0.0910 -0.5915 -0.0140
 6551TIP3    H143848   1.599   3.857  10.744  1.6845  0.3312 -1.2184
 6551TIP3    H243849   1.599   3.897  10.890 -0.8091  0.1398 -1.1334
 6552TIP3   OH243850   2.999   2.630  10.788 -0.0887  0.2245 -0.0512
 6552TIP3    H143851   3.093   2.638  10.775 -0.0374  0.6899  0.6053
 6552TIP3    H243852   2.983   2.536  10.791  0.2403  0.1317 -0.9597
 6553TIP3   OH243853   5.036   5.579  12.542  0.1635 -0.1566 -0.2660
 6553TIP3    H143854   5.055   5.649  12.480  0.3086 -0.2128 -0.2875
 6553TIP3    H243855   4.965   5.530  12.502 -0.3738  0.3552  0.0523
 6554TIP3   OH243856   3.148   3.088  11.568 -0.0380 -0.5517 -0.3688
 6554TIP3    H143857   3.135   3.097  11.663  1.0659  0.1664 -0.2737
 6554TIP3    H243858   3.060   3.092  11.532 -0.6271 -2.2834  0.7208
 6555TIP3   OH243859   3.997   2.331  10.488 -0.2792  0.5788  0.1903
 6555TIP3    H143860   4.017   2.333  10.581 -0.1998 -0.4203  0.2022
 6555TIP3    H243861   3.913   2.376  10.480 -1.5975 -1.5542  1.1154
 6556TIP3   OH243862   5.508   0.996  11.141  0.6011 -0.3344  0.0418
 6556TIP3    H143863   5.525   1.000  11.235  0.0978  1.0158  0.1001
 6556TIP3    H243864   5.413   1.009  11.134  0.6397 -0.4266 -0.6525
 6557TIP3   OH243865   2.093   4.487  11.033 -0.2488  0.4853 -0.5085
 6557TIP3    H143866   2.054   4.480  11.120 -1.6209 -0.7427 -1.1732
 6557TIP3    H243867   2.146   4.567  11.036  0.2626  0.1060  1.6266
 6558TIP3   OH243868   0.559   6.895  12.299  0.4069  0.0851 -0.0115
 6558TIP3    H143869   0.492   6.959  12.273  0.9736  2.1330  3.0576
 6558TIP3    H243870   0.601   6.871  12.216 -0.6985  2.7027 -1.4977
 6559TIP3   OH243871   6.241   7.667  12.223  0.1388  0.0390  0.1145
 6559TIP3    H143872   6.199   7.651  12.307  0.3646  0.9676  0.4153
 6559TIP3    H243873   6.326   7.622  12.229  0.4700  0.7272  0.6728
 6560TIP3   OH243874   5.121   5.813  13.098  0.3500 -0.3948 -0.6376
 6560TIP3    H143875   5.169   5.751  13.044 -2.2439 -1.5134 -1.8685
 6560TIP3    H243876   5.078   5.758  13.164 -0.7886  0.2439 -0.8158
 6561TIP3   OH243877   5.549   4.462  11.288  0.4729 -1.1272 -0.4117
 6561TIP3    H143878   5.613   4.395  11.312  0.8353 -1.3220 -1.8486
 6561TIP3    H243879   5.511   4.431  11.206  0.8249  0.5035 -1.2471
 6562TIP3   OH243880   3.545   4.070  11.820 -0.0887 -0.3493  0.1782
 6562TIP3    H143881   3.499   4.045  11.900  0.5337 -0.0499  0.6430
 6562TIP3    H243882   3.560   4.164  11.830  0.5084 -0.4175 -0.0140
 6563TIP3   OH243883   7.460   4.587  13.201  0.4341 -0.5401  0.8384
 6563TIP3    H143884   7.389   4.641  13.167 -0.1066  0.5531  3.4927
 6563TIP3    H243885   7.428   4.497  13.192  0.9488 -0.5306 -2.7268
 6564TIP3   OH243886   4.034   2.375  11.081  0.5667 -0.0593  0.4254
 6564TIP3    H143887   3.972   2.441  11.051  1.8673  0.3251 -1.5829
 6564TIP3    H243888   4.059   2.403  11.169  1.3535  2.3549 -0.5118
 6565TIP3   OH243889   4.781   0.387  12.540  0.4518 -0.0523 -0.1007
 6565TIP3    H143890   4.864   0.434  12.550  0.1042  0.3741  0.9102
 6565TIP3    H243891   4.805   0.294  12.549  0.8965  0.0330 -0.3700
 6566TIP3   OH243892   4.664   0.393  12.294  0.1628 -0.0530  0.3375
 6566TIP3    H143893   4.697   0.383  12.383  1.1984 -1.3301 -0.1627
 6566TIP3    H243894   4.615   0.313  12.277  1.8918 -0.8901 -1.0033
 6567TIP3   OH243895   0.625   3.127  11.833 -0.0171 -0.1369 -0.0920
 6567TIP3    H143896   0.549   3.124  11.890  0.2073 -0.5581  0.1915
 6567TIP3    H243897   0.700   3.113  11.891  0.2662  0.1448 -0.3840
 6568TIP3   OH243898   0.292   6.508  10.529 -0.2721  0.1584 -0.2308
 6568TIP3    H143899   0.292   6.474  10.619 -1.2187 -3.3653 -1.4205
 6568TIP3    H243900   0.339   6.442  10.478  2.1916  3.1001 -2.1045
 6569TIP3   OH243901   5.972   1.071  11.026  0.4095  0.7864 -0.8479
 6569TIP3    H143902   5.882   1.047  11.002  0.7314 -0.9319 -0.4211
 6569TIP3    H243903   5.980   1.163  10.998 -1.8535  1.3735  0.1854
 6570TIP3   OH243904   1.070   4.834  10.819  0.1497  0.5785 -0.0614
 6570TIP3    H143905   1.069   4.871  10.907 -2.4514 -0.3701  0.4214
 6570TIP3    H243906   1.017   4.895  10.767  1.2421  0.8637 -0.8680
 6571TIP3   OH243907   4.369   1.514  11.152  0.3400 -0.0986  0.1013
 6571TIP3    H143908   4.398   1.445  11.211 -1.0148  0.6779  1.7459
 6571TIP3    H243909   4.426   1.589  11.173  0.6775 -0.1811 -0.4828
 6572TIP3   OH243910   1.814   4.918  13.059  0.3330 -0.4182 -0.7495
 6572TIP3    H143911   1.731   4.873  13.039  0.1974  0.3255 -1.9362
 6572TIP3    H243912   1.864   4.853  13.109 -1.3341 -0.5556  0.8953
 6573TIP3   OH243913   4.574   0.225  11.853 -0.0978  0.2262 -0.1083
 6573TIP3    H143914   4.546   0.139  11.819 -0.0996 -0.4089  1.4385
 6573TIP3    H243915   4.636   0.257  11.787 -1.7918  0.0935 -1.8407
 6574TIP3   OH243916   0.230   5.609  12.363 -1.0152 -0.1953 -0.0578
 6574TIP3    H143917   0.263   5.692  12.397 -1.2437 -0.2038  0.1931
 6574TIP3    H243918   0.149   5.632  12.316 -1.4915 -0.3620  0.6560
 6575TIP3   OH243919   7.088   0.647  11.493  0.3512  0.0107  0.5630
 6575TIP3    H143920   7.090   0.738  11.524 -2.8311 -0.6216  3.1940
 6575TIP3    H243921   7.148   0.601  11.551 -0.7047 -0.0680  1.6502
 6576TIP3   OH243922   3.651   6.171  10.925  0.3476  0.4028 -0.0769
 6576TIP3    H143923   3.556   6.168  10.914  0.3717  1.5599 -0.7329
 6576TIP3    H243924   3.675   6.262  10.908  1.8332 -0.3008 -2.2476
 6577TIP3   OH243925   0.925   0.335  11.539  0.0171  0.5425 -0.2138
 6577TIP3    H143926   0.948   0.399  11.471 -0.9669  1.0039 -0.1246
 6577TIP3    H243927   0.989   0.351  11.609  2.0218 -0.9678 -1.6181
 6578TIP3   OH243928   1.843   3.893  11.159  0.7731 -0.2322 -0.0723
 6578TIP3    H143929   1.762   3.844  11.168 -0.4931  2.0874  2.2526
 6578TIP3    H243930   1.842   3.924  11.068 -0.8736 -0.3052 -0.0983
 6579TIP3   OH243931   3.874   1.208  11.413 -0.3513  0.0307  0.0737
 6579TIP3    H143932   3.787   1.193  11.451  0.3075  0.7905  2.0265
 6579TIP3    H243933   3.877   1.303  11.397 -0.2823 -0.1545 -1.1090
 6580TIP3   OH243934   1.576   6.160  10.572  0.4062  0.1878  0.0376
 6580TIP3    H143935   1.515   6.227  10.540 -0.1973 -0.0985  0.5618
 6580TIP3    H243936   1.636   6.208  10.628 -0.3295  0.2260  0.8137
 6581TIP3   OH243937   4.079   2.265  10.771  0.3043 -0.1782  0.2299
 6581TIP3    H143938   4.108   2.288  10.859 -2.4154  0.9464  0.9474
 6581TIP3    H243939   4.000   2.213  10.785 -0.6561  0.7142 -1.5008
 6582TIP3   OH243940   2.313   2.187  12.910  0.5378  0.4464 -0.6454
 6582TIP3    H143941   2.351   2.102  12.932 -1.0435 -0.1452 -0.0425
 6582TIP3    H243942   2.287   2.224  12.995 -0.7428  0.5412 -1.0499
 6583TIP3   OH243943   6.808   0.779  12.812  0.4172  0.5920 -0.2866
 6583TIP3    H143944   6.770   0.853  12.860  1.4535  0.0507  1.4470
 6583TIP3    H243945   6.858   0.821  12.741 -0.1747  1.4714 -0.2063
 6584TIP3   OH243946   5.854   2.341  13.183 -0.4437 -0.4556 -0.1778
 6584TIP3    H143947   5.793   2.328  13.256  0.7559  0.7038  1.0965
 6584TIP3    H243948   5.843   2.433  13.159  2.8441  0.7508  2.1711
 6585TIP3   OH243949   7.667   0.222  11.877  0.3036 -0.5052 -0.0548
 6585TIP3    H143950   7.763   0.221  11.873  0.3030 -0.0738 -0.1832
 6585TIP3    H243951   7.638   0.184  11.794  0.3629 -0.2457 -0.1960
 6586TIP3   OH243952   6.395   5.955  11.142  0.2273  0.0834  0.3042
 6586TIP3    H143953   6.309   5.986  11.115  0.0836  0.1535  0.8260
 6586TIP3    H243954   6.457   6.018  11.105 -0.0228  0.6605  0.8520
 6587TIP3   OH243955   7.049   5.935  11.168 -0.5025  0.2518  0.3601
 6587TIP3    H143956   7.117   5.883  11.125 -0.8033  0.5100 -0.4504
 6587TIP3    H243957   7.047   5.903  11.258  0.8660  0.4067  0.4739
 6588TIP3   OH243958   3.625   7.268  11.342 -0.6544  0.6137  1.0179
 6588TIP3    H143959   3.681   7.207  11.391 -0.3312 -0.1627 -0.2693
 6588TIP3    H243960   3.555   7.213  11.308  0.4328  0.5948 -1.4190
 6589TIP3   OH243961   0.506   5.738  13.405 -0.2249  0.3911 -0.4633
 6589TIP3    H143962   0.459   5.702  13.330 -0.5557  1.8370 -0.9947
 6589TIP3    H243963   0.472   5.828  13.413  0.6469  0.6420  0.7018
 6590TIP3   OH243964   6.895   1.669  10.905 -0.1515 -0.3746  0.0194
 6590TIP3    H143965   6.914   1.728  10.978  0.1808 -0.8856  0.3555
 6590TIP3    H243966   6.972   1.674  10.849 -0.0184 -0.6654  0.1726
 6591TIP3   OH243967   3.450   6.479  10.987  0.1808  0.0178  0.2875
 6591TIP3    H143968   3.487   6.476  10.899  3.3332 -1.5192  1.4983
 6591TIP3    H243969   3.381   6.412  10.986  0.0347  0.1603 -1.0488
 6592TIP3   OH243970   4.426   5.978  12.770 -0.8795 -0.1351 -0.2678
 6592TIP3    H143971   4.356   5.926  12.730 -0.7085 -2.5322  2.2837
 6592TIP3    H243972   4.474   5.916  12.824  2.6394  1.6420 -1.0876
 6593TIP3   OH243973   1.261   2.416  10.500  0.5197  0.1669 -0.6733
 6593TIP3    H143974   1.291   2.338  10.454 -3.3602 -0.9578 -1.6863
 6593TIP3    H243975   1.259   2.390  10.592 -1.0554 -1.1851 -1.0256
 6594TIP3   OH243976   5.010   0.622  12.115 -0.1283  0.2829  0.3315
 6594TIP3    H143977   5.012   0.526  12.110 -0.2398  0.2762  0.4257
 6594TIP3    H243978   5.074   0.650  12.049 -2.4859  0.2324 -2.1343
 6595TIP3   OH243979   7.674   4.159  12.982 -0.0654  0.3635  0.6867
 6595TIP3    H143980   7.635   4.125  13.063 -1.4500  0.8874  0.2658
 6595TIP3    H243981   7.695   4.081  12.931  3.2364 -0.1483  2.5246
 6596TIP3   OH243982   2.226   6.226  11.958  0.2807 -0.2223 -0.1639
 6596TIP3    H143983   2.255   6.141  11.925 -1.0866  0.0381 -2.1698
 6596TIP3    H243984   2.135   6.213  11.982  0.3793  0.4116  0.6017
 6597TIP3   OH243985   7.192   7.261  12.384  0.8042  0.0328  0.0382
 6597TIP3    H143986   7.226   7.216  12.307  1.1943 -0.5042  0.5184
 6597TIP3    H243987   7.117   7.311  12.352  1.3527  0.3276 -0.8112
 6598TIP3   OH243988   5.119   2.670  10.680  0.5548  0.1006 -0.4366
 6598TIP3    H143989   5.025   2.686  10.672  0.7001  0.4841 -1.4184
 6598TIP3    H243990   5.132   2.655  10.774 -0.2028  1.8402 -0.0159
 6599TIP3   OH243991   6.846   2.916  11.973 -0.1242  0.8103 -0.6691
 6599TIP3    H143992   6.787   2.988  11.995  1.0707  1.6372 -0.0806
 6599TIP3    H243993   6.806   2.875  11.896 -2.2025  0.4568  0.5190
 6600TIP3   OH243994   4.021   3.837  13.186  0.0780 -0.0653 -0.3090
 6600TIP3    H143995   3.975   3.891  13.122 -1.4494  2.2234  2.4458
 6600TIP3    H243996   3.957   3.771  13.213  0.8373 -1.2533 -1.3465
 6601TIP3   OH243997   0.602   3.932  13.096  0.0465  0.5555 -0.5106
 6601TIP3    H143998   0.622   4.026  13.097 -0.8859  0.7603  0.2382
 6601TIP3    H243999   0.677   3.891  13.138 -1.3169  1.3960  3.0847
 6602TIP3   OH244000   5.919   2.599  12.341  0.0402 -0.1087 -0.1859
 6602TIP3    H144001   5.933   2.639  12.255  1.8240 -0.1843  0.0285
 6602TIP3    H244002   5.883   2.513  12.322  0.9686 -0.3544 -0.9222
 6603TIP3   OH244003   6.171   0.081  13.530  0.3687  0.1654  0.5297
 6603TIP3    H144004   6.166   0.014  13.461 -0.7970  0.7915 -0.0207
 6603TIP3    H244005   6.163   0.033  13.612  1.5239 -0.5684  0.2266
 6604TIP3   OH244006   7.519   1.057  11.683 -0.4837 -0.4494 -0.0414
 6604TIP3    H144007   7.532   1.000  11.607 -0.5658  0.0665 -0.4501
 6604TIP3    H244008   7.447   1.017  11.732 -0.9122 -0.4005 -0.6202
 6605TIP3   OH244009   3.981   3.796  10.724  0.0897  0.1730  0.1269
 6605TIP3    H144010   3.954   3.823  10.636  0.9329  0.5297 -0.0331
 6605TIP3    H244011   3.900   3.767  10.766  0.0438 -2.5830 -1.6370
 6606TIP3   OH244012   5.617   5.551  12.194  0.1527  0.0002  0.1056
 6606TIP3    H144013   5.656   5.573  12.109 -0.6628 -0.3748 -0.3673
 6606TIP3    H244014   5.673   5.596  12.257  0.8601  0.1598 -0.6147
 6607TIP3   OH244015   1.957   5.538  12.279  0.1054  0.2721  0.0191
 6607TIP3    H144016   1.893   5.563  12.345  1.4949  0.5914  1.2940
 6607TIP3    H244017   1.911   5.550  12.196 -2.1959 -1.5091  0.9057
 6608TIP3   OH244018   5.250   3.844  10.640  0.1696 -0.2564  0.1403
 6608TIP3    H144019   5.291   3.910  10.696 -1.5301 -0.2474  1.4309
 6608TIP3    H244020   5.159   3.839  10.670  0.0212 -2.5780 -0.4840
 6609TIP3   OH244021   7.378   2.969  10.674 -0.5030  0.7669 -0.1861
 6609TIP3    H144022   7.438   3.043  10.674 -0.8853  1.0930  0.8496
 6609TIP3    H244023   7.387   2.931  10.586  2.1291  0.0489  0.3045
 6610TIP3   OH244024   6.645   6.367  18.146 -0.0946  0.1895  0.2073
 6610TIP3    H144025   6.635   6.380  18.052  0.9147  1.8832  0.2980
 6610TIP3    H244026   6.667   6.274  18.155  0.7365  0.2107 -1.3126
 6611TIP3   OH244027   3.496   1.089  10.959  0.3677 -0.3797  0.5464
 6611TIP3    H144028   3.515   1.082  11.052  1.0137 -2.0197  0.3204
 6611TIP3    H244029   3.430   1.158  10.954  0.9843  0.3827  2.1037
 6612TIP3   OH244030   1.343   1.530  10.896 -0.3021  0.0739  0.1926
 6612TIP3    H144031   1.427   1.501  10.932 -0.5578 -0.1911  0.5965
 6612TIP3    H244032   1.288   1.452  10.900  0.2022 -0.5409 -2.6157
 6613TIP3   OH244033   0.661   3.324  11.641 -0.1133 -0.5089 -0.5287
 6613TIP3    H144034   0.595   3.390  11.663  1.0265  1.5585 -2.8849
 6613TIP3    H244035   0.655   3.260  11.712 -3.4047  0.4954  0.2692
 6614TIP3   OH244036   5.440   6.533  11.287 -0.7145  0.0510 -0.1993
 6614TIP3    H144037   5.445   6.448  11.331 -0.2113  0.0421 -0.2732
 6614TIP3    H244038   5.464   6.515  11.196 -0.2920  0.3255 -0.1434
 6615TIP3   OH244039   3.822   0.961  12.226  0.2357  0.4774  0.3249
 6615TIP3    H144040   3.796   0.875  12.193 -0.5158  0.2157  1.5480
 6615TIP3    H244041   3.791   1.022  12.159  2.8754 -0.2770 -1.7886
 6616TIP3   OH244042   0.762   0.307  11.188  0.3600 -0.5235 -0.2001
 6616TIP3    H144043   0.849   0.277  11.216 -0.1729 -1.7662  0.1916
 6616TIP3    H244044   0.779   0.366  11.114  1.5088 -1.0404 -0.3600
 6617TIP3   OH244045   4.070   6.854  10.719  0.4127  0.2481 -0.2285
 6617TIP3    H144046   4.030   6.933  10.753  0.3606 -0.7436  2.1843
 6617TIP3    H244047   4.164   6.874  10.716  0.1888  1.3593 -2.5518
 6618TIP3   OH244048   1.824   4.502  11.891 -0.1686  0.1339 -1.0132
 6618TIP3    H144049   1.861   4.442  11.956 -0.3275 -0.8366 -1.7924
 6618TIP3    H244050   1.730   4.488  11.897 -0.1287 -1.0731 -2.4316
 6619TIP3   OH244051   6.280   3.824  11.011 -0.2732 -0.6564  0.5213
 6619TIP3    H144052   6.336   3.803  10.936  0.2777  1.4052  0.3201
 6619TIP3    H244053   6.220   3.749  11.017  0.5303 -1.4860 -1.1462
 6620TIP3   OH244054   4.967   1.970  12.229 -0.1441 -0.4734 -0.4425
 6620TIP3    H144055   4.968   1.875  12.235  0.0388 -0.4742 -0.4820
 6620TIP3    H244056   4.887   1.996  12.275  0.7119 -0.5383  1.1441
 6621TIP3   OH244057   5.569   5.497  12.834 -0.2825 -0.4132 -0.0861
 6621TIP3    H144058   5.584   5.577  12.885 -0.7760 -1.2311  1.4205
 6621TIP3    H244059   5.479   5.471  12.855  0.4956 -2.4336  1.0915
 6622TIP3   OH244060   6.017   2.596  10.543 -0.2906 -0.5365 -0.5509
 6622TIP3    H144061   5.931   2.569  10.575 -0.9635  2.4197  0.4243
 6622TIP3    H244062   6.074   2.523  10.565 -1.6086 -0.6154  3.4198
 6623TIP3   OH244063   4.403   1.939  11.821  0.0502 -0.6860 -0.4264
 6623TIP3    H144064   4.313   1.968  11.840  0.3399 -0.2618  0.3328
 6623TIP3    H244065   4.432   1.897  11.901  0.7245 -0.3340 -0.4797
 6624TIP3   OH244066   0.576   0.939  12.800 -0.1127 -0.3371  0.4603
 6624TIP3    H144067   0.665   0.920  12.769 -0.3311 -1.6659  0.5787
 6624TIP3    H244068   0.528   0.858  12.785 -1.2251  0.2640  0.7057
 6625TIP3   OH244069   0.105   5.583  10.693  0.5150  0.0128  0.2794
 6625TIP3    H144070   0.120   5.605  10.601 -0.4824  1.9149  0.5039
 6625TIP3    H244071   0.186   5.542  10.722  1.5868  1.1684 -0.9416
 6626TIP3   OH244072   1.582   7.634  11.284  0.0900  0.2448  0.3251
 6626TIP3    H144073   1.647   7.689  11.242 -0.7861  1.2650  0.2654
 6626TIP3    H244074   1.513   7.694  11.311 -1.7596 -1.0008 -1.3293
 6627TIP3   OH244075   1.150   2.024  12.639 -0.3557  0.8655 -0.1730
 6627TIP3    H144076   1.085   2.024  12.569  0.2090  1.9063 -0.7106
 6627TIP3    H244077   1.121   1.954  12.698 -1.5052  0.7766 -0.8163
 6628TIP3   OH244078   5.465   4.304  12.242  0.8980 -0.0958 -0.3115
 6628TIP3    H144079   5.539   4.357  12.271  1.5359 -1.5792  0.9673
 6628TIP3    H244080   5.388   4.345  12.282  1.2509  0.4248 -0.1602
 6629TIP3   OH244081   0.369   0.708  10.817 -0.6563  0.1942 -0.1171
 6629TIP3    H144082   0.440   0.771  10.829 -0.7713  0.1310  1.0278
 6629TIP3    H244083   0.294   0.761  10.789 -0.2199  0.2895 -1.1209
 6630TIP3   OH244084   3.751   6.593  11.914  0.0261  0.0952 -0.1751
 6630TIP3    H144085   3.802   6.566  11.837  0.0726 -0.1800 -0.0506
 6630TIP3    H244086   3.675   6.535  11.914  1.0858 -1.3740  1.1770
 6631TIP3   OH244087   5.982   6.662  12.300 -0.4355  0.9087 -0.0707
 6631TIP3    H144088   6.020   6.713  12.228 -0.0539 -0.3515 -0.8068
 6631TIP3    H244089   6.027   6.693  12.378  1.1794  0.3862 -0.7519
 6632TIP3   OH244090   1.127   4.019  11.317  0.0768  0.1921  0.0097
 6632TIP3    H144091   1.092   3.936  11.348 -1.2785  1.3121  1.7001
 6632TIP3    H244092   1.201   4.037  11.375  0.5538  0.0426 -0.5427
 6633TIP3   OH244093   7.061   5.881  12.750 -0.0701  0.3495  0.0671
 6633TIP3    H144094   6.979   5.925  12.729 -0.3735 -0.4650 -0.5047
 6633TIP3    H244095   7.129   5.935  12.710 -0.4087  0.4767 -0.3390
 6634TIP3   OH244096   2.686   1.137  11.781  0.3314 -0.5658 -0.1432
 6634TIP3    H144097   2.703   1.179  11.866  1.5925 -1.0606 -0.1367
 6634TIP3    H244098   2.769   1.141  11.735 -0.1997 -0.8117 -1.1427
 6635TIP3   OH244099   4.851   5.916  11.994  0.2733  0.5117  0.2968
 6635TIP3    H144100   4.863   5.867  11.913  0.9560  0.8542  0.1841
 6635TIP3    H244101   4.833   6.006  11.966 -4.0822 -0.1501  0.3944
 6636TIP3   OH244102   7.100   2.159  11.206  0.3126  0.4063 -0.3559
 6636TIP3    H144103   7.040   2.224  11.243 -1.7151 -1.3158 -0.4217
 6636TIP3    H244104   7.106   2.091  11.273 -0.0478 -0.7646 -1.4736
 6637TIP3   OH244105   2.222   4.552  13.018  0.3914 -0.2842 -0.3830
 6637TIP3    H144106   2.314   4.576  13.008  0.4288 -0.8700 -1.6615
 6637TIP3    H244107   2.174   4.629  12.987  0.4397 -0.0584  0.0883
 6638TIP3   OH244108   3.529   3.947  10.847 -0.1332  0.2570 -0.3250
 6638TIP3    H144109   3.502   4.012  10.912  1.3469 -0.3781  0.9895
 6638TIP3    H244110   3.451   3.893  10.833  0.1726 -1.3584  3.1381
 6639TIP3   OH244111   0.731   0.592  11.400 -0.2513 -0.3493 -0.3048
 6639TIP3    H144112   0.824   0.591  11.421 -0.4197  2.4451  1.0813
 6639TIP3    H244113   0.725   0.646  11.320 -0.7222  0.3801  0.2073
 6640TIP3   OH244114   3.608   1.774  12.510  0.2118 -0.3717  0.0845
 6640TIP3    H144115   3.605   1.715  12.585 -0.1063  0.9721  1.1776
 6640TIP3    H244116   3.698   1.807  12.508  0.4516 -1.0478 -0.6607
 6641TIP3   OH244117   6.012   0.316  12.436  0.2624 -0.2930 -0.0060
 6641TIP3    H144118   5.982   0.401  12.469 -1.2489 -0.8141  0.0734
 6641TIP3    H244119   6.060   0.336  12.356  0.8518  0.7140  0.5878
 6642TIP3   OH244120   6.790   2.478  11.951 -0.7505  0.3962 -0.2337
 6642TIP3    H144121   6.756   2.561  11.919 -0.2925  1.0535  0.9384
 6642TIP3    H244122   6.885   2.484  11.937 -0.8168 -0.3970 -1.1597
 6643TIP3   OH244123   2.411   0.747  11.196  0.6743  0.7145  0.0194
 6643TIP3    H144124   2.448   0.787  11.117  1.1468  1.2939  0.5282
 6643TIP3    H244125   2.338   0.805  11.220 -0.6163 -0.4100 -0.9683
 6644TIP3   OH244126   6.319   3.793  11.736 -0.6484 -0.2360  0.2227
 6644TIP3    H144127   6.235   3.801  11.782 -0.1745  1.8356  0.8073
 6644TIP3    H244128   6.312   3.854  11.663  0.1836 -0.3947  0.0025
 6645TIP3   OH244129   1.446   4.294  12.009  0.0192 -0.2989  0.3062
 6645TIP3    H144130   1.480   4.230  11.947  1.0487  0.6053 -0.0919
 6645TIP3    H244131   1.352   4.276  12.014 -0.0347 -0.5485 -1.3068
 6646TIP3   OH244132   4.400   1.618  12.243  0.2831 -0.0422 -0.0090
 6646TIP3    H144133   4.324   1.592  12.295 -0.6117  1.9318 -0.2390
 6646TIP3    H244134   4.426   1.538  12.198 -2.7976 -0.4697 -1.3033
 6647TIP3   OH244135   6.178   5.283  11.250  0.3319 -0.3413  0.2138
 6647TIP3    H144136   6.159   5.358  11.307  2.1727  0.7456 -0.4936
 6647TIP3    H244137   6.109   5.286  11.184 -0.1390  0.1851  0.7088
 6648TIP3   OH244138   5.908   1.684  11.843  0.5414 -0.4165  0.2892
 6648TIP3    H144139   5.891   1.753  11.907  1.1716 -0.9685  1.0576
 6648TIP3    H244140   5.835   1.622  11.854 -1.1713  1.0553 -1.7811
 6649TIP3   OH244141   3.945   2.910  11.200  0.2388 -0.3281  0.3100
 6649TIP3    H144142   4.032   2.944  11.224  0.1945 -0.6253  0.9114
 6649TIP3    H244143   3.952   2.816  11.212  0.2997 -0.5394 -1.1608
 6650TIP3   OH244144   1.521   2.876  11.903  0.1884  0.0013  0.6036
 6650TIP3    H144145   1.467   2.839  11.973  0.2266 -2.1950 -0.4664
 6650TIP3    H244146   1.559   2.955  11.942 -2.1613  0.5104  2.0444
 6651TIP3   OH244147   6.899   4.639  12.124  0.3250 -0.6659 -0.7399
 6651TIP3    H144148   6.831   4.590  12.078 -0.7196 -0.9554  1.0308
 6651TIP3    H244149   6.872   4.636  12.216  0.9170  2.1469 -0.4087
 6652TIP3   OH244150   1.332   6.802  12.119 -0.1248 -0.2446 -0.2308
 6652TIP3    H144151   1.381   6.759  12.049  0.2044 -0.7981  0.3282
 6652TIP3    H244152   1.324   6.893  12.091  0.5766 -0.3127 -0.6733
 6653TIP3   OH244153   3.713   6.531  11.104  0.2913 -0.3459  0.5423
 6653TIP3    H144154   3.691   6.571  11.188  0.0290  2.8185 -0.9097
 6653TIP3    H244155   3.633   6.486  11.077  0.1101 -0.6760  1.5626
 6654TIP3   OH244156   3.720   6.069  12.217 -0.2148 -0.3903 -0.1632
 6654TIP3    H144157   3.704   6.032  12.303  0.1337 -1.2904 -0.4774
 6654TIP3    H244158   3.799   6.026  12.186  1.9091  2.6117  0.5981
 6655TIP3   OH244159   6.799   0.710  11.659 -0.2202 -0.0905  0.3335
 6655TIP3    H144160   6.796   0.620  11.692 -0.8968 -0.8446 -1.5786
 6655TIP3    H244161   6.714   0.722  11.616 -0.0169  1.3673  0.2836
 6656TIP3   OH244162   6.666   0.935  10.721  0.0146 -0.1799 -0.3794
 6656TIP3    H144163   6.616   0.969  10.647 -1.5573  0.0570  0.7566
 6656TIP3    H244164   6.633   0.846  10.733 -1.0170  0.3807  1.1167
 6657TIP3   OH244165   3.015   4.696  10.677  0.3381 -0.1237  0.2530
 6657TIP3    H144166   3.005   4.601  10.683  1.6156 -0.1904  1.9634
 6657TIP3    H244167   2.926   4.730  10.689 -0.2878 -1.0855 -1.3113
 6658TIP3   OH244168   1.578   1.370  10.252  0.1685 -0.2110  0.4736
 6658TIP3    H144169   1.502   1.407  10.207 -0.6151 -0.4808  1.5391
 6658TIP3    H244170   1.559   1.382  10.345  1.0273 -1.0736  0.7751
 6659TIP3   OH244171   0.245   1.827  12.546 -0.4692  0.2717 -0.3933
 6659TIP3    H144172   0.232   1.921  12.558  0.3407  0.3244  0.1237
 6659TIP3    H244173   0.254   1.817  12.451  0.4077  0.8605 -0.3889
 6660TIP3   OH244174   5.140   3.741  12.930 -0.0817  0.1285  0.6374
 6660TIP3    H144175   5.133   3.652  12.897 -1.7655  0.0161  1.1958
 6660TIP3    H244176   5.128   3.796  12.853  2.2751 -0.0756  0.0603
 6661TIP3   OH244177   3.777   7.196  12.253 -0.8827 -0.4332 -0.1595
 6661TIP3    H144178   3.773   7.104  12.225 -1.5597 -0.6915  0.7419
 6661TIP3    H244179   3.693   7.212  12.297  0.2887 -0.2200  2.1780
 6662TIP3   OH244180   4.843   4.801  11.824 -0.2553 -0.0353  0.5107
 6662TIP3    H144181   4.890   4.867  11.875 -1.6581  2.2468 -0.9527
 6662TIP3    H244182   4.856   4.829  11.733 -1.7089 -1.2354 -0.0945
 6663TIP3   OH244183   3.872   2.462  12.004 -0.0239 -0.2950 -0.3622
 6663TIP3    H144184   3.956   2.500  12.028 -1.2021  2.9485 -0.9104
 6663TIP3    H244185   3.813   2.487  12.075 -1.7498  2.5999 -2.5946
 6664TIP3   OH244186   1.934   0.590  10.679 -0.5513 -0.2812  0.2485
 6664TIP3    H144187   2.015   0.552  10.714 -1.2167 -0.0378  2.1323
 6664TIP3    H244188   1.874   0.516  10.671 -0.0916 -0.5260 -1.4917
 6665TIP3   OH244189   1.177   6.629  13.122 -0.8247 -0.1589  0.1259
 6665TIP3    H144190   1.137   6.676  13.195 -0.8705 -2.0355  1.3761
 6665TIP3    H244191   1.104   6.593  13.072 -0.8699  2.2534 -1.7742
 6666TIP3   OH244192   7.295   7.017  12.759  0.4000 -0.0602 -0.3119
 6666TIP3    H144193   7.265   7.014  12.850 -2.3310 -0.0290 -1.1415
 6666TIP3    H244194   7.366   7.082  12.761  0.2216  0.1616  1.7430
 6667TIP3   OH244195   3.819   5.072  12.269  1.0910 -0.0050  0.0972
 6667TIP3    H144196   3.910   5.069  12.242  0.9547  0.7792 -0.4901
 6667TIP3    H244197   3.804   5.163  12.295  0.6018 -0.2335  0.6472
 6668TIP3   OH244198   1.393   5.826  10.823 -0.2322  0.7110  0.4911
 6668TIP3    H144199   1.340   5.780  10.887 -0.5501  1.3902  0.7191
 6668TIP3    H244200   1.417   5.908  10.865  0.2903  0.7823  0.0719
 6669TIP3   OH244201   3.908   6.621  10.754 -0.4883  0.7550 -0.0104
 6669TIP3    H144202   3.963   6.543  10.755 -0.8446  0.5029  0.5832
 6669TIP3    H244203   3.968   6.693  10.737 -0.0271  0.4430  0.2963
 6670TIP3   OH244204   5.820   3.076  10.391 -0.4223 -0.2341 -0.4902
 6670TIP3    H144205   5.762   3.104  10.462  2.3208 -1.9489  2.7121
 6670TIP3    H244206   5.771   3.006  10.348 -1.9671  0.4756  0.0164
 6671TIP3   OH244207   3.885   1.115  11.768  0.4440  0.0289 -0.7122
 6671TIP3    H144208   3.955   1.177  11.792  0.2398 -0.2738  0.7331
 6671TIP3    H244209   3.918   1.073  11.689  1.0582  1.2266 -1.1336
 6672TIP3   OH244210   2.460   7.525  10.982  0.4477 -0.2867  0.2793
 6672TIP3    H144211   2.377   7.532  11.029 -0.5365  1.3898 -1.5714
 6672TIP3    H244212   2.450   7.584  10.907  2.9824 -0.7352 -0.4933
 6673TIP3   OH244213   0.768   1.606  12.169 -0.1350  0.4720  0.4484
 6673TIP3    H144214   0.848   1.658  12.156 -0.7312  1.2396 -0.2692
 6673TIP3    H244215   0.708   1.665  12.214  0.2495 -0.6445  2.5268
 6674TIP3   OH244216   6.313   7.605  11.366  0.6722  0.3139  0.2546
 6674TIP3    H144217   6.240   7.666  11.376  0.3196  0.0526 -0.6024
 6674TIP3    H244218   6.305   7.546  11.441 -1.3286 -1.0385 -0.8979
 6675TIP3   OH244219   1.504   1.965  11.600 -0.0148 -0.0386 -0.5886
 6675TIP3    H144220   1.584   1.987  11.647 -1.8029  0.3238  2.5366
 6675TIP3    H244221   1.509   1.870  11.587  1.0931  0.0427 -0.8484
 6676TIP3   OH244222   7.318   5.404  13.084 -0.1914  0.0092  0.2074
 6676TIP3    H144223   7.310   5.487  13.129 -0.5581  0.9134 -1.4258
 6676TIP3    H244224   7.320   5.427  12.991  1.4538 -1.6751 -0.2495
 6677TIP3   OH244225   5.670   4.658  13.460  0.1880  0.1287 -0.3660
 6677TIP3    H144226   5.764   4.662  13.443  0.6338  0.6965  1.9040
 6677TIP3    H244227   5.637   4.743  13.432  0.2966 -0.1350 -1.3348
 6678TIP3   OH244228   2.963   5.972  12.825  0.3017 -0.1313 -0.2062
 6678TIP3    H144229   2.973   6.002  12.915 -0.3231 -0.3430 -0.0601
 6678TIP3    H244230   2.943   6.051  12.775  1.4084  0.1051 -0.2971
 6679TIP3   OH244231   1.836   1.147  11.581 -0.1130 -0.9099 -0.5278
 6679TIP3    H144232   1.812   1.114  11.495 -0.1093 -0.2163 -0.8028
 6679TIP3    H244233   1.772   1.108  11.641  1.1081 -3.0577 -0.5073
 6680TIP3   OH244234   6.063   0.919  10.811 -0.2372 -0.6522  0.3388
 6680TIP3    H144235   6.039   0.959  10.894  0.9182  0.6126  0.1035
 6680TIP3    H244236   6.148   0.958  10.789  0.2432 -2.1413 -0.6581
 6681TIP3   OH244237   3.886   5.812  11.262  0.3867 -0.0878 -0.0494
 6681TIP3    H144238   3.855   5.722  11.272  0.2685  0.1266  1.8373
 6681TIP3    H244239   3.981   5.806  11.267  0.3426 -0.0085  1.4586
 6682TIP3   OH244240   3.266   7.188  12.692  0.0733  0.1950 -0.2388
 6682TIP3    H144241   3.338   7.124  12.694 -0.6121 -0.5757  0.2507
 6682TIP3    H244242   3.189   7.139  12.720 -1.1712  0.3624 -2.9768
 6683TIP3   OH244243   5.923   4.677  11.775 -0.3515  0.3375  0.0260
 6683TIP3    H144244   5.852   4.690  11.713 -0.8979  0.8838  0.7535
 6683TIP3    H244245   5.999   4.655  11.720 -0.4411  2.2973 -0.9466
 6684TIP3   OH244246   4.489   5.109  12.596  0.0196 -0.2734  0.3480
 6684TIP3    H144247   4.442   5.159  12.662  0.5799 -1.5849  1.8059
 6684TIP3    H244248   4.575   5.151  12.589 -0.6045  0.8688 -0.8032
 6685TIP3   OH244249   1.499   2.128  10.978 -0.9247 -0.1010 -0.4525
 6685TIP3    H144250   1.586   2.161  10.957 -0.7440 -0.2072  0.1099
 6685TIP3    H244251   1.460   2.196  11.033 -0.5794 -0.7624  0.6463
 6686TIP3   OH244252   2.800   1.370  10.604  0.4096 -0.0094 -0.3272
 6686TIP3    H144253   2.829   1.428  10.675  0.3103 -0.3753  0.0134
 6686TIP3    H244254   2.792   1.428  10.528 -1.1982  0.7473  0.3795
 6687TIP3   OH244255   6.942   4.112  12.390  0.1523  0.2651 -0.7114
 6687TIP3    H144256   6.853   4.115  12.424  0.3400  0.6440 -0.2405
 6687TIP3    H244257   6.979   4.198  12.411  1.6399 -0.8734  1.9181
 6688TIP3   OH244258   0.815   0.558  10.353  0.2304  0.1403  0.0252
 6688TIP3    H144259   0.905   0.578  10.379  1.0863 -2.3758 -0.6172
 6688TIP3    H244260   0.761   0.618  10.403  2.0943 -0.3637  2.8710
 6689TIP3   OH244261   7.632   4.958  12.277 -0.0973  0.1692 -0.1759
 6689TIP3    H144262   7.670   4.989  12.358  0.0546 -0.6788  0.0945
 6689TIP3    H244263   7.697   4.979  12.210 -0.0034  0.4319 -0.0004
 6690TIP3   OH244264   7.386   5.528  11.380  0.1684  0.3361  0.7419
 6690TIP3    H144265   7.450   5.457  11.389 -0.0988  0.1338  1.0648
 6690TIP3    H244266   7.313   5.502  11.435 -0.0172  0.7709  0.7091
 6691TIP3   OH244267   1.561   2.086  11.952  0.4080 -0.1394 -0.4555
 6691TIP3    H144268   1.609   2.130  12.021  0.7086  0.4848 -1.0550
 6691TIP3    H244269   1.558   2.149  11.880 -3.1292  0.7185  0.2713
 6692TIP3   OH244270   5.726   1.090  11.848 -0.4993  0.0559 -0.4507
 6692TIP3    H144271   5.776   1.159  11.806  1.2684 -0.3865  0.7959
 6692TIP3    H244272   5.747   1.099  11.941 -1.7273 -0.9918 -0.0428
 6693TIP3   OH244273   4.309   1.088  10.796  0.2520  0.5822  0.1099
 6693TIP3    H144274   4.240   1.108  10.734 -1.0293  0.9565  1.5777
 6693TIP3    H244275   4.315   0.993  10.796  0.0111  0.5653 -0.3058
 6694TIP3   OH244276   4.453   2.106  11.483 -0.2127  0.0071 -0.1452
 6694TIP3    H144277   4.498   2.120  11.566 -0.6721  0.6665  0.0029
 6694TIP3    H244278   4.439   2.194  11.447  0.3593 -0.2878 -1.1329
 6695TIP3   OH244279   2.658   4.061  12.031  0.2356 -0.2395  0.6486
 6695TIP3    H144280   2.627   4.097  12.114 -0.2754  0.2310  0.2559
 6695TIP3    H244281   2.753   4.055  12.042  0.2016  0.0893  1.1625
 6696TIP3   OH244282   5.797   5.570  11.993  0.1521 -0.1389  0.5246
 6696TIP3    H144283   5.816   5.538  11.905  2.0775  0.6278  0.6083
 6696TIP3    H244284   5.858   5.522  12.049 -1.0030 -0.5645  1.4626
 6697TIP3   OH244285   4.909   5.762  11.013 -0.5431  0.2261 -0.3685
 6697TIP3    H144286   4.850   5.798  10.946  0.0498 -0.0128 -1.0270
 6697TIP3    H244287   4.980   5.826  11.019 -2.0132  1.7768  2.1733
 6698TIP3   OH244288   2.680   1.564  11.757 -0.2110  0.1426 -0.2157
 6698TIP3    H144289   2.774   1.578  11.744 -0.6061  1.6745 -1.8021
 6698TIP3    H244290   2.644   1.652  11.765 -1.6713 -0.3465 -1.0593
 6699TIP3   OH244291   4.315   0.690  11.844 -0.1209 -0.2050  0.3831
 6699TIP3    H144292   4.384   0.750  11.871  1.0055 -0.9994 -0.6348
 6699TIP3    H244293   4.358   0.604  11.839 -0.3973 -0.2730 -3.1013
 6700TIP3   OH244294   3.791   1.534  11.813 -0.2595  0.4129 -0.3757
 6700TIP3    H144295   3.882   1.564  11.812  0.0907 -0.6533 -0.6684
 6700TIP3    H244296   3.751   1.585  11.884  0.5402  0.9324 -0.2789
 6701TIP3   OH244297   3.235   6.590  11.394 -0.6086  0.2967 -0.2646
 6701TIP3    H144298   3.175   6.523  11.426  0.4572 -0.6249 -0.1509
 6701TIP3    H244299   3.319   6.546  11.387 -0.1765  1.2636 -1.5203
 6702TIP3   OH244300   1.653   3.804  10.444  0.1676  0.4816  0.5343
 6702TIP3    H144301   1.580   3.746  10.423 -1.2576  2.3759 -0.1241
 6702TIP3    H244302   1.730   3.758  10.413 -0.9134 -0.9801 -0.1060
 6703TIP3   OH244303   2.223   4.478  12.350 -0.8445 -0.3583 -0.1188
 6703TIP3    H144304   2.259   4.394  12.377 -2.5222 -1.0205  0.1327
 6703TIP3    H244305   2.160   4.457  12.282 -1.1536  0.7181 -0.1837
 6704TIP3   OH244306   5.157   5.916  12.095 -0.2661 -0.0726  0.3393
 6704TIP3    H144307   5.067   5.936  12.120  0.0589  0.3567  1.2067
 6704TIP3    H244308   5.183   5.844  12.153  0.2920  0.5179  0.8419
 6705TIP3   OH244309   2.095   1.502  11.006 -0.4797  0.0769 -0.5180
 6705TIP3    H144310   2.146   1.556  10.946 -0.2075  1.3340  0.7900
 6705TIP3    H244311   2.007   1.540  11.003 -0.3504  0.4557  0.2101
 6706TIP3   OH244312   3.606   6.763  12.498  0.2590 -0.0273  0.2901
 6706TIP3    H144313   3.682   6.811  12.530 -0.8096  1.9604 -0.0118
 6706TIP3    H244314   3.579   6.810  12.419  0.5115 -2.5215 -1.3854
 6707TIP3   OH244315   0.860   3.003  11.920  0.0287  0.3748 -0.1013
 6707TIP3    H144316   0.953   3.001  11.898 -0.0661 -0.1079 -0.4729
 6707TIP3    H244317   0.841   2.916  11.955 -0.1379  0.6847  0.5888
 6708TIP3   OH244318   7.045   7.198  11.357 -0.3496 -0.0171 -0.8037
 6708TIP3    H144319   7.053   7.215  11.450 -0.7682  0.1924 -0.8051
 6708TIP3    H244320   6.951   7.202  11.339 -0.4485 -1.9312 -0.8766
 6709TIP3   OH244321   1.207   1.795  11.944 -0.4640 -0.4092  0.1101
 6709TIP3    H144322   1.161   1.832  11.869  0.9246 -1.2374 -1.1933
 6709TIP3    H244323   1.275   1.859  11.964 -0.4478 -0.4767  0.2731
 6710TIP3   OH244324   0.027   7.602  12.029  0.1911 -0.2376 -0.2111
 6710TIP3    H144325  -0.047   7.612  11.969 -1.0645  0.0807  1.3223
 6710TIP3    H244326   0.075   7.685  12.022  0.5945 -0.5522 -1.4233
 6711TIP3   OH244327   3.413   3.703  11.143  0.4372 -0.3814 -0.7666
 6711TIP3    H144328   3.385   3.769  11.207  2.1988 -0.8541  0.5671
 6711TIP3    H244329   3.383   3.737  11.059 -0.1026  1.3274  0.0671
 6712TIP3   OH244330   4.913   4.624  11.240  0.0115 -0.7106  0.3333
 6712TIP3    H144331   4.886   4.667  11.159  0.2580  0.3869  0.8118
 6712TIP3    H244332   5.005   4.648  11.250  0.9861 -3.6159 -0.7875
 6713TIP3   OH244333   6.920   3.975  10.872  0.3228 -0.0062  0.3830
 6713TIP3    H144334   6.932   3.882  10.891 -0.0850 -0.0543  0.4189
 6713TIP3    H244335   6.833   3.980  10.832  1.5843 -0.0905 -2.6397
 6714TIP3   OH244336   3.030   6.071  12.331 -0.3329  0.1279  0.4235
 6714TIP3    H144337   3.075   5.988  12.320 -2.6341 -0.9874 -1.5477
 6714TIP3    H244338   3.023   6.082  12.426  0.9693 -1.3551  0.7337
 6715TIP3   OH244339   0.424   4.525  10.658  0.0839  0.1458  0.0909
 6715TIP3    H144340   0.476   4.599  10.625 -0.6915  0.3875 -0.6402
 6715TIP3    H244341   0.338   4.563  10.676  0.0271 -0.3383  0.8656
 6716TIP3   OH244342   3.192   7.517  11.691  0.2172  0.4084 -0.1802
 6716TIP3    H144343   3.207   7.435  11.643 -0.2449  0.4990 -0.4910
 6716TIP3    H244344   3.203   7.586  11.626  0.0452  0.5595 -0.0507
 6717TIP3   OH244345   6.082   7.206  11.491  0.3622 -0.2146  0.2311
 6717TIP3    H144346   6.039   7.163  11.564  0.6381  0.6747  0.9352
 6717TIP3    H244347   6.091   7.138  11.424 -0.9810 -0.7350  0.5501
 6718TIP3   OH244348   3.231   2.433  11.586 -0.2549 -0.3810 -0.3404
 6718TIP3    H144349   3.148   2.465  11.548 -0.3897 -1.1366 -0.7066
 6718TIP3    H244350   3.251   2.496  11.655 -1.5359 -0.6063  0.2617
 6719TIP3   OH244351   4.367   2.298  11.277 -0.2093 -0.7575 -0.5796
 6719TIP3    H144352   4.437   2.321  11.216 -0.4544 -0.8392 -0.8968
 6719TIP3    H244353   4.349   2.205  11.259 -0.2939 -0.7780 -0.3956
 6720TIP3   OH244354   7.277   2.637  11.555  0.1494 -0.2449  0.0334
 6720TIP3    H144355   7.368   2.659  11.536  0.2927  0.7126  1.6794
 6720TIP3    H244356   7.246   2.706  11.614 -0.7699 -2.0026  1.7677
 6721TIP3   OH244357   0.875   0.877  12.740 -0.4623  0.4723 -0.1166
 6721TIP3    H144358   0.917   0.791  12.740  0.1409  0.7534 -0.8534
 6721TIP3    H244359   0.894   0.914  12.826  0.8725  0.6107 -0.4410
 6722TIP3   OH244360   5.779   6.133  12.659 -0.4394 -0.7859 -0.1825
 6722TIP3    H144361   5.733   6.085  12.590 -2.7575  0.2129  0.5792
 6722TIP3    H244362   5.711   6.155  12.723  0.6606  2.5955  0.0291
 6723TIP3   OH244363   2.374   0.297  11.504  0.5047  0.0503 -0.0845
 6723TIP3    H144364   2.443   0.284  11.438  0.3443 -1.0593 -0.0551
 6723TIP3    H244365   2.394   0.233  11.572 -1.2213 -1.1684 -0.6537
 6724TIP3   OH244366   6.677   2.790  11.497  0.6404 -0.4362 -0.2162
 6724TIP3    H144367   6.710   2.879  11.501  0.5427 -0.3941 -0.3364
 6724TIP3    H244368   6.606   2.793  11.433  0.8127 -0.6570 -0.4184
 6725TIP3   OH244369   6.820   2.172  12.187  0.0708  0.4659 -0.2281
 6725TIP3    H144370   6.894   2.212  12.140  0.7761 -0.8027 -0.2522
 6725TIP3    H244371   6.743   2.214  12.151  0.6034 -0.3550 -2.4362
 6726TIP3   OH244372   1.206   1.472  11.429 -0.3303 -0.2254 -0.6143
 6726TIP3    H144373   1.245   1.471  11.516 -1.4869 -1.7545 -0.0625
 6726TIP3    H244374   1.239   1.391  11.388 -0.1465  0.2576 -1.4400
 6727TIP3   OH244375   0.861   2.432  11.998  0.5264 -0.8104  0.3912
 6727TIP3    H144376   0.828   2.501  11.940  2.4954  0.4177  0.6265
 6727TIP3    H244377   0.950   2.415  11.967  0.5566 -2.3002  1.2009
 6728TIP3   OH244378   0.181   7.126  11.518 -0.1963 -0.3424 -0.2555
 6728TIP3    H144379   0.247   7.099  11.582  0.1974  0.8329 -0.1412
 6728TIP3    H244380   0.102   7.077  11.543 -0.3088  0.7214  1.6813
 6729TIP3   OH244381   5.660   6.212  10.477  0.4984  0.4321  0.2549
 6729TIP3    H144382   5.638   6.301  10.446  2.9440  0.8854 -0.4093
 6729TIP3    H244383   5.655   6.218  10.572  0.1026  1.1127  0.2019
 6730TIP3   OH244384   0.318   1.735  12.291  0.6052 -0.3666 -0.1175
 6730TIP3    H144385   0.297   1.765  12.202 -0.0211 -0.9402 -0.1729
 6730TIP3    H244386   0.330   1.641  12.283 -0.2831 -0.5587  0.5346
 6731TIP3   OH244387   0.715   5.560  11.697 -0.2787  0.5238 -0.5274
 6731TIP3    H144388   0.717   5.653  11.674  2.1807  0.2489 -1.7267
 6731TIP3    H244389   0.622   5.537  11.696 -0.8208  2.5226 -2.0929
 6732TIP3   OH244390   4.436   7.584  12.173 -0.3782 -0.7627 -0.1183
 6732TIP3    H144391   4.531   7.570  12.174 -0.3525 -0.5623  0.4990
 6732TIP3    H244392   4.400   7.501  12.205 -0.4525 -1.0917 -1.0199
 6733TIP3   OH244393   2.975   0.457  12.332  0.1929 -0.0922 -0.1775
 6733TIP3    H144394   2.914   0.444  12.404  2.7768  1.0007  2.4343
 6733TIP3    H244395   2.974   0.374  12.284 -1.8110 -0.7741  0.9509
 6734TIP3   OH244396   2.387   3.573  12.414 -0.2438  0.4125 -0.0690
 6734TIP3    H144397   2.341   3.616  12.486 -1.6797 -1.1092 -0.0040
 6734TIP3    H244398   2.382   3.635  12.341  1.0238  1.8743  1.0258
 6735TIP3   OH244399   2.214   1.678  10.848  0.3873 -0.1659 -0.4205
 6735TIP3    H144400   2.209   1.773  10.852  0.1583 -0.1935  0.0586
 6735TIP3    H244401   2.174   1.654  10.765 -0.7581  0.0749  0.0407
 6736TIP3   OH244402   5.740   3.054  11.786 -0.0628 -0.2201 -0.6808
 6736TIP3    H144403   5.713   3.073  11.696 -1.0271 -0.8197 -0.5294
 6736TIP3    H244404   5.832   3.030  11.778  0.6317  2.2593 -1.1669
 6737TIP3   OH244405   2.630   1.263  12.091  0.7132  1.0299  0.3124
 6737TIP3    H144406   2.650   1.172  12.114 -2.9576  0.4700  2.0242
 6737TIP3    H244407   2.655   1.314  12.168 -2.6147  0.4951  1.9289
 6738TIP3   OH244408   5.381   5.790  11.103 -0.0762 -0.0934 -0.0072
 6738TIP3    H144409   5.388   5.732  11.027  2.3390  1.6667 -1.2696
 6738TIP3    H244410   5.408   5.737  11.177  2.1090 -0.6618 -1.1357
 6739TIP3   OH244411   4.070   5.065  11.231 -1.0343  0.4797 -0.0127
 6739TIP3    H144412   4.158   5.052  11.197 -1.2119  0.8838 -0.6362
 6739TIP3    H244413   4.081   5.130  11.300 -0.6334 -0.5416  0.9212
 6740TIP3   OH244414   4.101   2.073  11.392  0.8010  0.4380 -0.1069
 6740TIP3    H144415   4.133   1.999  11.340  0.3795  0.2123 -0.0552
 6740TIP3    H244416   4.141   2.060  11.478 -0.0574 -0.3053  0.1992
 6741TIP3   OH244417   4.040   0.016  12.268  0.0257  0.1435 -0.1719
 6741TIP3    H144418   4.025  -0.077  12.252 -1.0003  0.2439  0.1612
 6741TIP3    H244419   3.979   0.039  12.338 -0.7981  1.4065 -1.2664
 6742TIP3   OH244420   6.519   1.071  10.911 -0.3672 -0.0340  0.6811
 6742TIP3    H144421   6.578   1.051  10.838 -1.1143  2.2334 -0.6389
 6742TIP3    H244422   6.577   1.084  10.986  0.7597  1.0018 -0.3202
 6743TIP3   OH244423   3.373   4.649  12.112 -0.2980 -0.3919  0.3901
 6743TIP3    H144424   3.355   4.574  12.056 -1.0828  0.5349 -0.6646
 6743TIP3    H244425   3.465   4.671  12.096 -0.4201 -0.3554 -0.2715
 6744TIP3   OH244426   6.364   4.637  11.476  0.1178 -0.6094 -0.5520
 6744TIP3    H144427   6.368   4.732  11.466  0.3879 -0.4168  1.0868
 6744TIP3    H244428   6.280   4.621  11.519  0.7575 -0.9326  0.6279
 6745TIP3   OH244429   5.440   3.220  11.627 -0.1095 -0.6368  0.6034
 6745TIP3    H144430   5.440   3.134  11.586 -2.1351 -0.2215 -0.3990
 6745TIP3    H244431   5.354   3.257  11.606  0.1110  1.0210  2.3051
 6746TIP3   OH244432   5.819   3.133  12.468 -0.2949  0.8043 -0.4282
 6746TIP3    H144433   5.771   3.051  12.479 -0.4747  1.0998  1.2209
 6746TIP3    H244434   5.808   3.156  12.376 -0.5636 -0.8178 -0.8227
 6747TIP3   OH244435   7.081   3.105  10.478  0.2561  0.0063  0.6042
 6747TIP3    H144436   7.060   3.018  10.510 -0.7938 -0.1664 -0.4836
 6747TIP3    H244437   7.135   3.090  10.400 -0.3912  0.3026  0.0903
 6748TIP3   OH244438   0.252   6.881  11.107  0.7327  0.5622 -0.1826
 6748TIP3    H144439   0.248   6.977  11.107  0.8693  0.5673 -0.2567
 6748TIP3    H244440   0.338   6.861  11.142  2.0167  0.5139 -3.1315
 6749TIP3   OH244441   7.552   4.376  10.827  0.2876  0.1078 -0.0251
 6749TIP3    H144442   7.624   4.348  10.770 -0.1939 -0.7423 -0.2300
 6749TIP3    H244443   7.517   4.294  10.863 -0.6404  0.5040 -0.0035
 6750TIP3   OH244444   6.494   3.311  12.350 -0.6326 -0.3059 -0.6334
 6750TIP3    H144445   6.416   3.282  12.303  0.0243  1.3416 -2.9283
 6750TIP3    H244446   6.480   3.404  12.365  0.3378 -0.2621  0.0725
 6751TIP3   OH244447   4.923   7.495  10.960 -0.0157  0.1805  0.1217
 6751TIP3    H144448   4.903   7.405  10.934  0.2833 -0.6605  2.5893
 6751TIP3    H244449   5.003   7.516  10.912 -0.0123 -0.9139 -0.3945
 6752TIP3   OH244450   7.601   2.455  10.627 -0.6552 -0.3505  0.2513
 6752TIP3    H144451   7.641   2.492  10.706 -2.0586  1.3804  0.2129
 6752TIP3    H244452   7.523   2.409  10.658  0.6678 -2.7889  0.2081
 6753TIP3   OH244453   4.775   1.034  12.444  0.2237  0.2115  0.3896
 6753TIP3    H144454   4.731   1.079  12.371  0.3590 -0.1306  0.0923
 6753TIP3    H244455   4.862   1.074  12.447  0.1025  0.4613  0.5818
 6754TIP3   OH244456   4.019   2.154  11.682  0.3119  0.0145 -0.7527
 6754TIP3    H144457   4.056   2.242  11.689 -0.4594  0.3211 -0.4337
 6754TIP3    H244458   3.925   2.168  11.669 -0.1812 -0.7481  1.5109
 6755TIP3   OH244459   6.965   1.445  12.887 -0.1747  0.5101  0.8170
 6755TIP3    H144460   6.926   1.452  12.975 -0.3597 -0.6343  0.8434
 6755TIP3    H244461   6.992   1.353  12.881  0.1861  0.6788 -0.1810
 6756TIP3   OH244462   1.328   4.088  11.523  0.3912 -0.3271  0.0484
 6756TIP3    H144463   1.384   4.132  11.459 -0.5264  1.0894  0.2015
 6756TIP3    H244464   1.317   4.151  11.594  1.0010 -1.6886  1.4408
 6757TIP3   OH244465   1.852   6.370  11.042 -0.2011 -0.8281 -0.1493
 6757TIP3    H144466   1.881   6.406  11.126  0.6769 -1.6968 -0.0659
 6757TIP3    H244467   1.925   6.385  10.982 -2.2707  3.6057 -2.0383
 6758TIP3   OH244468   5.460   2.525  12.687  0.0768  0.2327  0.0008
 6758TIP3    H144469   5.472   2.431  12.701 -1.7503  0.1181  1.1640
 6758TIP3    H244470   5.370   2.534  12.655  1.2111  1.3691 -3.3083
 6759TIP3   OH244471   3.026   6.482  12.403  0.0942  0.0881 -0.0154
 6759TIP3    H144472   2.998   6.512  12.490  1.2241 -0.5799  0.5946
 6759TIP3    H244473   3.119   6.503  12.399  0.1422 -0.2507 -0.9249
 6760TIP3   OH244474   1.094   3.238  12.022  0.5485 -0.2441 -0.3269
 6760TIP3    H144475   1.021   3.263  11.964 -0.2418  1.6152  1.3242
 6760TIP3    H244476   1.068   3.272  12.108  3.0696 -0.1433  0.4719
 6761TIP3   OH244477   2.078   3.602  11.896  0.1278 -0.3410 -0.0635
 6761TIP3    H144478   2.159   3.649  11.919  1.8387 -2.9983 -0.2618
 6761TIP3    H244479   2.049   3.643  11.815  3.2490 -1.4301 -1.8949
 6762TIP3   OH244480   1.980   1.185  11.866 -0.5355  0.1798 -0.3377
 6762TIP3    H144481   2.013   1.109  11.819  0.7383  0.0557  0.7152
 6762TIP3    H244482   1.931   1.149  11.940 -1.2575  0.3856 -0.7031
 6763TIP3   OH244483   3.995   2.787  10.917 -0.2241  0.3369 -0.0871
 6763TIP3    H144484   3.952   2.707  10.947  1.2861  0.3920  2.5020
 6763TIP3    H244485   3.935   2.858  10.940 -1.0556  0.0757 -1.3582
 6764TIP3   OH244486   6.153   0.130  10.983  0.3558  0.4689 -0.3082
 6764TIP3    H144487   6.164   0.210  10.931  1.4859 -0.0670 -0.9167
 6764TIP3    H244488   6.087   0.080  10.935 -0.5387  1.1192  0.2042
 6765TIP3   OH244489   5.403   3.166  12.902  0.1590  0.2115  0.0863
 6765TIP3    H144490   5.453   3.215  12.967  0.8051 -0.0425 -0.2090
 6765TIP3    H244491   5.378   3.085  12.947 -0.5967  0.6429  0.4583
 6766TIP3   OH244492   0.276   7.430  12.411  0.0850  0.1905  0.1365
 6766TIP3    H144493   0.271   7.380  12.492  3.1593  1.9510  1.5556
 6766TIP3    H244494   0.212   7.501  12.423  0.6672  0.5653  1.1694
 6767TIP3   OH244495   4.149   2.465  11.337  0.3157 -0.2318  0.1725
 6767TIP3    H144496   4.205   2.512  11.399 -0.3010 -0.1967  0.7224
 6767TIP3    H244497   4.193   2.381  11.324  1.3135  0.3939 -0.6462
 6768TIP3   OH244498   2.284   3.832  11.932  0.1251  0.0237 -0.3241
 6768TIP3    H144499   2.227   3.837  11.855  0.0218  1.4656 -0.1840
 6768TIP3    H244500   2.326   3.917  11.935  2.6582 -1.1342 -0.6714
 6769TIP3   OH244501   6.338   0.522  10.704 -0.1462 -0.2575 -0.6408
 6769TIP3    H144502   6.280   0.544  10.777 -1.0007 -0.0165 -1.3735
 6769TIP3    H244503   6.347   0.427  10.708  0.9619 -0.1244  0.6086
 6770TIP3   OH244504   1.241   2.085  12.385 -0.3339  0.2647  0.1216
 6770TIP3    H144505   1.203   2.043  12.462  0.6222  1.8173  1.4890
 6770TIP3    H244506   1.171   2.083  12.320 -1.1652 -1.0678  1.0172
 6771TIP3   OH244507   0.568   7.292  11.120  0.2027  0.2693 -0.1652
 6771TIP3    H144508   0.622   7.240  11.060 -1.6287  0.7814 -2.3888
 6771TIP3    H244509   0.554   7.234  11.195 -0.4945 -1.9189 -1.8790
 6772TIP3   OH244510   0.953   2.054  12.458  0.0330 -0.3669 -0.0350
 6772TIP3    H144511   0.948   2.024  12.367  0.1676 -0.1139 -0.1244
 6772TIP3    H244512   0.864   2.041  12.492 -0.6862  1.8697 -0.9201
 6773TIP3   OH244513   3.324   3.194  11.270 -0.3078  0.2625  0.3756
 6773TIP3    H144514   3.418   3.212  11.273 -0.6440  2.0692  1.0043
 6773TIP3    H244515   3.291   3.249  11.199 -1.3726  2.3840  2.3706
 6774TIP3   OH244516   7.665   3.909  11.489 -0.3581 -0.3643  0.3313
 6774TIP3    H144517   7.735   3.848  11.511 -1.1092 -2.3627 -2.3405
 6774TIP3    H244518   7.596   3.891  11.552 -0.6757 -2.5786 -0.5776
 6775TIP3   OH244519   2.014   7.125  12.303 -0.4516 -0.0288  0.9835
 6775TIP3    H144520   1.989   7.115  12.395  1.5329 -0.7833  1.4762
 6775TIP3    H244521   1.988   7.214  12.281 -0.3995  0.3716  2.4451
 6776TIP3   OH244522   5.552   2.073  11.633 -0.2859  0.7645 -0.0645
 6776TIP3    H144523   5.638   2.035  11.650 -1.4918 -2.5657 -0.6383
 6776TIP3    H244524   5.549   2.084  11.538 -0.4134  1.1055 -0.0227
 6777TIP3   OH244525   0.544   5.116  13.737 -0.1552  0.0294 -0.9305
 6777TIP3    H144526   0.522   5.193  13.789 -0.2997 -0.8762  0.3922
 6777TIP3    H244527   0.472   5.056  13.751  0.4597 -0.7597 -1.0859
 6778TIP3   OH244528   2.222   4.369  11.764  0.3425 -0.3098  0.4386
 6778TIP3    H144529   2.162   4.432  11.725  0.8423  0.7612  1.3348
 6778TIP3    H244530   2.298   4.370  11.707 -0.8247 -2.4450 -1.2936
 6779TIP3   OH244531   4.533   0.059  10.661 -0.8021  0.4826 -0.7651
 6779TIP3    H144532   4.451   0.076  10.615 -1.3276 -0.1182 -0.0795
 6779TIP3    H244533   4.526   0.108  10.743 -0.4514  0.4746 -0.7264
 6780TIP3   OH244534   2.058   4.934  11.363  0.4140 -0.2918 -0.7966
 6780TIP3    H144535   2.005   4.984  11.301 -0.2347 -0.2377 -0.2126
 6780TIP3    H244536   2.051   4.843  11.335 -0.5417 -0.3682 -0.3344
 6781TIP3   OH244537   4.048   4.497  11.635 -0.0149 -0.3357  0.4371
 6781TIP3    H144538   4.037   4.587  11.606 -1.3882 -0.7122 -0.2980
 6781TIP3    H244539   4.116   4.501  11.702  0.5162  1.1142 -0.1584
 6782TIP3   OH244540   0.660   3.226  12.281  0.0364  0.0143  0.1324
 6782TIP3    H144541   0.611   3.241  12.361 -1.2313  0.0877 -0.6288
 6782TIP3    H244542   0.627   3.141  12.248  0.0664  0.2861 -0.6299
 6783TIP3   OH244543   3.637   2.729  10.604  0.3976  0.0436  0.0838
 6783TIP3    H144544   3.659   2.821  10.593 -0.3073  0.2211  0.0842
 6783TIP3    H244545   3.631   2.717  10.699 -0.1607  0.1623  0.0661
 6784TIP3   OH244546   0.986   3.944  12.819 -0.0965  0.4242  0.2513
 6784TIP3    H144547   1.034   3.862  12.828 -0.3641  0.0601 -1.3424
 6784TIP3    H244548   1.044   4.001  12.769 -0.3138  0.8699  0.4943
 6785TIP3   OH244549   6.318   3.769  13.471  0.0278 -0.7397 -0.4762
 6785TIP3    H144550   6.291   3.839  13.412 -0.4476 -0.0002  0.5788
 6785TIP3    H244551   6.409   3.789  13.492  0.6316 -1.7484 -1.9568
 6786TIP3   OH244552   1.575   5.088  11.647 -0.2644 -0.2289  0.3352
 6786TIP3    H144553   1.483   5.098  11.670 -0.5482 -0.2958 -0.6926
 6786TIP3    H244554   1.623   5.122  11.722 -1.1290  0.3359  0.6488
 6787TIP3   OH244555   1.210   5.602  11.035  0.4605 -0.0491  0.4920
 6787TIP3    H144556   1.285   5.544  11.045  0.7996  0.1109 -0.8796
 6787TIP3    H244557   1.165   5.569  10.957  0.6883  1.5125 -0.3483
 6788TIP3   OH244558   5.742   1.756  11.500  0.0530  0.3169  0.0233
 6788TIP3    H144559   5.822   1.784  11.545 -1.8754  1.3369  3.1595
 6788TIP3    H244560   5.733   1.817  11.427  1.8379  0.4768 -0.1193
 6789TIP3   OH244561   2.918   4.120  12.086 -0.1775  0.0361 -0.3590
 6789TIP3    H144562   2.944   4.065  12.161  3.0499 -0.0549 -1.3745
 6789TIP3    H244563   2.916   4.209  12.121 -2.5430 -0.3448  0.6356
 6790TIP3   OH244564   6.194   7.283  11.143 -0.5055  0.0473 -0.3726
 6790TIP3    H144565   6.214   7.214  11.080  2.5304  0.2599  0.2379
 6790TIP3    H244566   6.107   7.314  11.117 -1.1362 -2.6371 -1.8603
 6791TIP3   OH244567   0.694   0.535  11.697  0.5582 -0.1632  0.1643
 6791TIP3    H144568   0.711   0.515  11.605 -0.5551 -1.2109  0.1605
 6791TIP3    H244569   0.631   0.608  11.694 -1.7115 -2.0004 -0.0273
 6792TIP3   OH244570   6.540   0.855  13.097 -0.2858  0.2124  0.7859
 6792TIP3    H144571   6.524   0.805  13.177  0.1400 -0.1271  0.6648
 6792TIP3    H244572   6.463   0.911  13.088 -0.2963  0.3144  1.4729
 6793TIP3   OH244573   5.252   2.902  11.006  0.1100 -0.7413 -0.0056
 6793TIP3    H144574   5.338   2.898  10.965  0.4611  0.4249  0.5769
 6793TIP3    H244575   5.270   2.909  11.100 -0.6222 -0.3642  0.1139
 6794TIP3   OH244576   1.978   5.703  11.183  0.2808 -0.1020  0.8210
 6794TIP3    H144577   2.002   5.781  11.133  1.4928 -2.1189 -1.9726
 6794TIP3    H244578   2.045   5.697  11.251  0.6135  0.8404  0.5969
 6795TIP3   OH244579   0.397   0.045  11.985  0.2567  0.2868  0.0942
 6795TIP3    H144580   0.469   0.099  11.951  0.4329  0.4142  0.6714
 6795TIP3    H244581   0.374  -0.012  11.911  0.6892  0.5066 -0.2183
 6796TIP3   OH244582   1.281   2.251  12.767 -0.1252 -0.0808  0.1975
 6796TIP3    H144583   1.373   2.225  12.775  0.1792  0.8129 -0.2455
 6796TIP3    H244584   1.238   2.175  12.728  0.3596 -0.6241  0.7007
 6797TIP3   OH244585   6.100   2.513  13.408  0.1117  0.0331 -0.3352
 6797TIP3    H144586   6.047   2.514  13.488  2.3519  0.3103  1.2455
 6797TIP3    H244587   6.069   2.589  13.358 -0.3384  0.7627  0.9991
 6798TIP3   OH244588   6.341   4.891  12.019  0.4263 -0.0806 -0.4462
 6798TIP3    H144589   6.371   4.955  11.954 -0.4112 -1.0700 -1.8783
 6798TIP3    H244590   6.272   4.936  12.067  2.0587  1.1806  0.8299
 6799TIP3   OH244591   0.147   1.354  11.302  0.3588 -0.0475 -0.8063
 6799TIP3    H144592   0.155   1.302  11.382  0.2171  0.8712 -0.1765
 6799TIP3    H244593   0.070   1.410  11.318  0.2188  0.0090 -1.6632
 6800TIP3   OH244594   0.368   1.565  12.699  0.4208  0.2969 -0.0041
 6800TIP3    H144595   0.291   1.616  12.726  0.0640 -0.1250 -0.2010
 6800TIP3    H244596   0.435   1.631  12.682 -0.2928  0.7716 -1.0954
 6801TIP3   OH244597   6.817   3.824  11.794 -0.7245 -0.1816  0.1956
 6801TIP3    H144598   6.723   3.815  11.810 -0.6215  0.1951  1.0762
 6801TIP3    H244599   6.825   3.905  11.743 -0.8405  0.0342  0.5185
 6802TIP3   OH244600   5.256   3.464  13.169  0.0902 -0.3373 -0.4184
 6802TIP3    H144601   5.212   3.502  13.093 -0.8951 -0.9137 -0.1666
 6802TIP3    H244602   5.323   3.407  13.132  0.7729  0.6876 -0.8106
 6803TIP3   OH244603   0.268   0.678  11.311 -0.2847  0.1786 -0.3298
 6803TIP3    H144604   0.201   0.632  11.362 -0.5264  1.4267  0.5200
 6803TIP3    H244605   0.222   0.712  11.235 -0.5632  0.7900  0.1071
 6804TIP3   OH244606   7.008   6.899  11.481  0.1413  0.0501 -0.2845
 6804TIP3    H144607   6.963   6.882  11.399 -0.3211 -1.3996  0.2354
 6804TIP3    H244608   7.099   6.878  11.464  0.6364  2.6581 -1.2423
 6805TIP3   OH244609   0.617   1.350  12.127 -0.2546 -0.3492 -0.0268
 6805TIP3    H144610   0.523   1.361  12.145 -0.3188  0.9209 -0.9429
 6805TIP3    H244611   0.657   1.425  12.170  0.4048 -1.0974  0.6849
 6806TIP3   OH244612   7.067   5.670  10.961 -0.4785  0.3906  0.5542
 6806TIP3    H144613   7.006   5.639  11.029 -0.8833 -0.7667 -0.2967
 6806TIP3    H244614   7.022   5.744  10.920 -1.4340 -0.5680 -0.1853
 6807TIP3   OH244615   6.281   1.720  10.834  0.8990 -0.1758 -0.3667
 6807TIP3    H144616   6.248   1.767  10.910  0.7390  1.0086 -1.1266
 6807TIP3    H244617   6.372   1.700  10.856  0.3888 -1.3447  0.7852
 6808TIP3   OH244618   0.486   3.965  10.622 -0.4658 -0.1166 -0.3150
 6808TIP3    H144619   0.451   3.941  10.537 -0.9038  0.3880 -0.2769
 6808TIP3    H244620   0.514   3.882  10.660  0.8924 -0.2235 -1.4469
 6809TIP3   OH244621   4.504   3.294  10.785  0.4490 -0.4302  0.2489
 6809TIP3    H144622   4.571   3.314  10.719 -0.1406  1.4308  0.1674
 6809TIP3    H244623   4.461   3.215  10.752  1.0426 -0.2926 -0.9257
 6810TIP3   OH244624   4.707   7.329  11.242 -0.0242 -0.1914  0.1479
 6810TIP3    H144625   4.723   7.235  11.246 -1.8142 -0.5221  0.2810
 6810TIP3    H244626   4.658   7.342  11.160 -0.1147  0.5768  0.3154
 6811TIP3   OH244627   7.523   3.260  11.942  0.2586  0.0741  0.3072
 6811TIP3    H144628   7.597   3.321  11.931  0.0305  0.2710 -0.1872
 6811TIP3    H244629   7.537   3.220  12.027  0.6427  0.5153  0.4541
 6812TIP3   OH244630   3.280   2.494  11.314 -0.3578  0.1414 -0.2556
 6812TIP3    H144631   3.253   2.522  11.401  2.5515 -0.1132  0.8111
 6812TIP3    H244632   3.198   2.492  11.264 -1.8280  2.4803  1.8129
 6813TIP3   OH244633   7.364   2.438  12.434  0.1752  0.2265  0.5420
 6813TIP3    H144634   7.313   2.489  12.496 -0.4497 -0.4366  0.5895
 6813TIP3    H244635   7.299   2.402  12.374  0.6871  0.1486  0.0293
 6814TIP3   OH244636   0.444   6.318  12.096 -0.0666 -0.2757  0.1714
 6814TIP3    H144637   0.464   6.411  12.104  2.8078 -0.6205 -1.4824
 6814TIP3    H244638   0.483   6.278  12.173  0.5607 -0.2976 -0.1477
 6815TIP3   OH244639   1.250   1.791  10.971 -0.7091  0.6369 -0.0446
 6815TIP3    H144640   1.250   1.696  10.960 -0.5803  0.5853  0.3941
 6815TIP3    H244641   1.264   1.805  11.064 -1.0669  1.0851 -0.0505
 6816TIP3   OH244642   0.920   2.554  12.245  0.5338 -0.4026 -0.1164
 6816TIP3    H144643   0.919   2.532  12.152  0.7910 -2.4796  0.3211
 6816TIP3    H244644   1.008   2.587  12.261  0.6585 -0.5408 -0.5035
 6817TIP3   OH244645   3.584   3.508  10.791 -0.2556 -0.0410 -0.0318
 6817TIP3    H144646   3.622   3.475  10.872  2.0704  1.8477 -0.2530
 6817TIP3    H244647   3.591   3.435  10.729  0.8909 -0.4845  0.5990
 6818TIP3   OH244648   1.430   0.292  10.776  0.7094  0.1846  0.3904
 6818TIP3    H144649   1.389   0.372  10.744 -0.7441  0.6440  3.1719
 6818TIP3    H244650   1.419   0.230  10.704 -3.9688  0.6215  0.4637
 6819TIP3   OH244651   5.359   6.409  11.698 -0.2749 -0.2828 -0.0179
 6819TIP3    H144652   5.357   6.431  11.791  0.3354 -0.3788  0.0205
 6819TIP3    H244653   5.429   6.462  11.661 -1.3604  0.7198 -0.6893
 6820TIP3   OH244654   3.157   0.242  11.786  0.2809  0.8282 -0.1065
 6820TIP3    H144655   3.206   0.290  11.853  0.8208 -0.4720  0.4591
 6820TIP3    H244656   3.181   0.285  11.704  0.5759  1.6542  0.3933
 6821TIP3   OH244657   3.028   6.664  10.687  0.0701 -0.6074 -0.1968
 6821TIP3    H144658   2.938   6.639  10.670 -0.3424  0.2826  0.6074
 6821TIP3    H244659   3.024   6.758  10.706  1.3360 -0.2628 -1.4053
 6822TIP3   OH244660   7.198   4.554  13.404 -0.2151 -0.6496 -0.0293
 6822TIP3    H144661   7.232   4.472  13.368 -0.7582 -1.4617  1.2482
 6822TIP3    H244662   7.164   4.530  13.490  0.7317  1.1487  0.8989
 6823TIP3   OH244663   4.625   6.116  11.839  0.0750  0.1306 -0.2740
 6823TIP3    H144664   4.716   6.137  11.857  1.0812 -0.3260 -3.9880
 6823TIP3    H244665   4.582   6.202  11.833  0.3761  0.3723  0.8286
 6824TIP3   OH244666   1.208   1.197  18.075 -0.0251  0.0994 -0.2177
 6824TIP3    H144667   1.114   1.191  18.060 -0.1647  0.7467  0.3257
 6824TIP3    H244668   1.237   1.106  18.084 -0.5136 -0.1262 -0.8377
 6825TIP3   OH244669   4.567   1.758  11.149 -0.0716  0.4639  0.6175
 6825TIP3    H144670   4.643   1.815  11.143  0.4872 -0.3526 -0.4619
 6825TIP3    H244671   4.509   1.787  11.079  0.3136 -0.4081 -0.0787
 6826TIP3   OH244672   7.209   0.536  12.120 -0.1145  0.6697  0.3621
 6826TIP3    H144673   7.263   0.562  12.045  2.2661  0.6229  1.9596
 6826TIP3    H244674   7.254   0.460  12.157 -2.9190 -1.2479  0.1186
 6827TIP3   OH244675   6.691   4.106  12.464  0.0796  0.4096  0.5147
 6827TIP3    H144676   6.644   4.147  12.537  1.4642  2.8136  0.1723
 6827TIP3    H244677   6.657   4.149  12.386  2.0833  1.5247  0.1953
 6828TIP3   OH244678   7.572   6.378  12.506  0.3947 -0.2833  0.1139
 6828TIP3    H144679   7.635   6.393  12.576 -1.3936  3.0158  1.2177
 6828TIP3    H244680   7.573   6.459  12.455  1.1780 -2.3264 -3.4516
 6829TIP3   OH244681   5.339   6.908  11.828 -0.1219 -0.6317 -0.2204
 6829TIP3    H144682   5.413   6.880  11.882 -1.2054 -0.4129  1.4542
 6829TIP3    H244683   5.269   6.847  11.852 -1.0869  0.4655 -0.1984
 6830TIP3   OH244684   1.601   1.476  11.018 -0.1596  0.4912 -0.3587
 6830TIP3    H144685   1.647   1.393  11.031 -1.4683  0.1914  4.0526
 6830TIP3    H244686   1.670   1.541  11.013  0.8303 -0.5480 -0.6805
 6831TIP3   OH244687   5.888   6.709  11.052  0.4868  0.1238 -0.0727
 6831TIP3    H144688   5.862   6.703  10.960  0.2401 -0.3404  0.0222
 6831TIP3    H244689   5.965   6.765  11.052  0.2512  0.4490 -0.5144
 6832TIP3   OH244690   6.708   0.370  12.085 -0.2880  0.4581  0.2967
 6832TIP3    H144691   6.707   0.304  12.016 -0.4971  2.7825 -2.0875
 6832TIP3    H244692   6.622   0.411  12.081  0.4188  2.0413  0.4372
 6833TIP3   OH244693   3.461   0.197  12.490  0.1134  0.2709 -0.0498
 6833TIP3    H144694   3.443   0.200  12.584  0.9109  0.5009  0.0988
 6833TIP3    H244695   3.435   0.283  12.457  1.8330  0.9904  0.3444
 6834TIP3   OH244696   2.616   3.826  11.850  0.8509  0.6370 -0.1321
 6834TIP3    H144697   2.563   3.853  11.775  0.3203 -0.1892 -0.0604
 6834TIP3    H244698   2.602   3.896  11.914  1.2902  1.3387 -0.7726
 6835TIP3   OH244699   1.967   0.995  10.727 -0.2705  0.2189  0.4071
 6835TIP3    H144700   2.025   0.943  10.672  0.1079  0.2474  0.7706
 6835TIP3    H244701   1.923   1.055  10.666 -1.7203 -1.4036 -0.2006
 6836TIP3   OH244702   2.895   2.105  11.773 -0.0591  0.8879  0.3699
 6836TIP3    H144703   2.990   2.110  11.763  0.0656 -1.7893 -0.7954
 6836TIP3    H244704   2.864   2.193  11.754  2.0663  1.3967 -1.1153
 6837TIP3   OH244705   2.017   2.568  12.432  0.1025  0.2790 -0.1583
 6837TIP3    H144706   1.938   2.514  12.437  0.0583  0.2397 -1.0882
 6837TIP3    H244707   2.079   2.515  12.382  0.0374  1.1055 -1.1487
 6838TIP3   OH244708   5.703   0.748  11.095  0.1260  0.3256 -0.2101
 6838TIP3    H144709   5.625   0.725  11.045 -0.1905  0.8130  0.0467
 6838TIP3    H244710   5.673   0.816  11.155  0.1925 -1.0628  1.4774
 6839TIP3   OH244711   1.664   4.134  12.683 -0.2520  0.0948 -0.0257
 6839TIP3    H144712   1.584   4.129  12.737 -0.2133 -1.3202 -0.0809
 6839TIP3    H244713   1.735   4.141  12.747 -0.2427 -1.1386  0.1236
 6840TIP3   OH244714   2.637   2.054  11.595  0.1733  0.2458  0.3345
 6840TIP3    H144715   2.694   1.980  11.615  0.8749  0.2543 -1.4594
 6840TIP3    H244716   2.645   2.112  11.671  1.0182 -0.6637  0.9652
 6841TIP3   OH244717   4.064   4.872  12.915 -0.3554 -0.3007 -0.1561
 6841TIP3    H144718   4.086   4.802  12.853 -0.3050 -0.2063 -0.2440
 6841TIP3    H244719   4.039   4.825  12.995 -0.5846 -0.4268 -0.3000
 6842TIP3   OH244720   6.860   5.362  11.148  0.3188 -0.0939 -0.2762
 6842TIP3    H144721   6.860   5.457  11.159  1.9179 -0.1921  0.9328
 6842TIP3    H244722   6.769   5.340  11.125 -0.0583  1.7138 -0.6382
 6843TIP3   OH244723   4.788   2.324  12.786  0.5020  0.3029 -0.0391
 6843TIP3    H144724   4.822   2.237  12.807  0.1488 -0.2648 -1.6386
 6843TIP3    H244725   4.714   2.336  12.846 -0.9632 -1.5628 -1.3274
 6844TIP3   OH244726   7.333   3.376  11.748 -0.4867  0.3904  0.0172
 6844TIP3    H144727   7.276   3.308  11.712  0.3023  0.5582 -1.6368
 6844TIP3    H244728   7.383   3.332  11.816 -0.7780 -0.4056 -0.2754
 6845TIP3   OH244729   0.413   3.795  13.572  0.1399 -0.0093  0.6555
 6845TIP3    H144730   0.455   3.743  13.640 -0.7417 -1.5417  0.0882
 6845TIP3    H244731   0.320   3.793  13.595  0.0051  0.6931  0.1946
 6846TIP3   OH244732   4.271   4.114  10.825 -0.5848  0.2860  0.2288
 6846TIP3    H144733   4.259   4.019  10.825 -0.3285  0.2540 -0.0780
 6846TIP3    H244734   4.186   4.149  10.851 -0.5349 -0.0449  0.8405
 6847TIP3   OH244735   1.333   5.477  11.808  0.4126 -0.0935  0.1571
 6847TIP3    H144736   1.255   5.424  11.795 -0.1401  0.7390  0.0334
 6847TIP3    H244737   1.368   5.449  11.892  0.3457 -0.9160 -0.0846
 6848TIP3   OH244738   4.429   4.070  12.921  0.2874  0.2608 -0.4812
 6848TIP3    H144739   4.384   4.125  12.986 -0.7480 -1.2643  0.1557
 6848TIP3    H244740   4.429   4.123  12.841  0.1194  1.5266  0.3155
 6849TIP3   OH244741   5.032   1.129  12.463  0.3732 -0.0340 -0.7564
 6849TIP3    H144742   5.127   1.115  12.463  0.3673 -0.1925  0.4410
 6849TIP3    H244743   5.021   1.219  12.492  0.1313 -0.5384  0.8298
 6850TIP3   OH244744   0.924   7.372  11.233 -0.4481  0.4266 -0.4989
 6850TIP3    H144745   0.930   7.368  11.138 -2.1069  0.4135 -0.6360
 6850TIP3    H244746   1.009   7.341  11.264 -0.4553 -1.2334 -1.9672
 6851TIP3   OH244747   2.489   1.347  10.799 -0.2970 -0.0127  0.8015
 6851TIP3    H144748   2.469   1.429  10.844 -2.6856  0.4465 -0.9049
 6851TIP3    H244749   2.490   1.370  10.707  0.3901 -1.6762  0.3562
 6852TIP3   OH244750   6.609   5.424  12.750  0.1252  0.2503  0.4757
 6852TIP3    H144751   6.547   5.387  12.687  1.2929 -1.3719  0.1969
 6852TIP3    H244752   6.568   5.410  12.835 -0.0927 -0.3983  0.2709
 6853TIP3   OH244753   2.762   5.063  11.607 -0.1695  0.3438 -0.5548
 6853TIP3    H144754   2.730   5.110  11.531 -0.4180 -0.1315 -0.7491
 6853TIP3    H244755   2.684   5.026  11.648 -0.2322  1.8752  0.8353
 6854TIP3   OH244756   1.726   0.398  12.834  0.0577 -0.2117  0.3295
 6854TIP3    H144757   1.637   0.377  12.806 -0.0549 -0.2801  0.7351
 6854TIP3    H244758   1.717   0.478  12.886  0.1723 -0.4816  0.7631
 6855TIP3   OH244759   7.252   6.067  12.730 -0.0867 -0.0358  0.7587
 6855TIP3    H144760   7.261   6.144  12.674 -0.8498 -0.2111  0.3838
 6855TIP3    H244761   7.276   6.098  12.818  0.1633  0.4831  0.5105
 6856TIP3   OH244762   1.826   6.944  12.883 -0.5822 -0.5987 -0.5102
 6856TIP3    H144763   1.777   6.980  12.957 -2.4275  0.8479 -2.3058
 6856TIP3    H244764   1.903   7.001  12.876 -0.8180 -0.2296 -0.1803
 6857TIP3   OH244765   2.812   3.773  10.952 -0.6861  0.4422  0.0775
 6857TIP3    H144766   2.863   3.796  10.874 -0.6253 -3.1061 -1.1114
 6857TIP3    H244767   2.878   3.765  11.021 -0.3384  0.8151 -0.2036
 6858TIP3   OH244768   0.042   0.724  11.156  0.0022  0.5371  0.1546
 6858TIP3    H144769  -0.018   0.785  11.199  0.2537 -0.2734  1.7670
 6858TIP3    H244770  -0.003   0.639  11.163  1.2542 -0.0698  1.3360
 6859TIP3   OH244771   4.848   7.334  10.501  0.2947 -0.5933 -0.6601
 6859TIP3    H144772   4.839   7.326  10.406  0.0845  0.8142 -0.7703
 6859TIP3    H244773   4.939   7.310  10.518  0.3718 -0.7152 -1.2231
 6860TIP3   OH244774   7.511   7.661  11.110 -0.0349 -0.1260 -0.3743
 6860TIP3    H144775   7.582   7.703  11.060  0.7350 -0.4620  0.4198
 6860TIP3    H244776   7.492   7.581  11.062  0.0304  0.0276 -0.6610
 6861TIP3   OH244777   1.411   6.549  11.187  0.3383  0.1208 -0.1409
 6861TIP3    H144778   1.453   6.504  11.114 -0.3671 -0.5544 -0.1509
 6861TIP3    H244779   1.374   6.628  11.148 -1.1583 -0.8566 -0.8383
 6862TIP3   OH244780   6.238   2.852  12.676 -0.0766  0.0914  0.4586
 6862TIP3    H144781   6.187   2.842  12.596  1.2661 -1.3422 -0.2762
 6862TIP3    H244782   6.321   2.891  12.647  1.2581 -2.3484  0.7509
 6863TIP3   OH244783   4.997   3.841  10.749 -0.4240  0.3473  0.2120
 6863TIP3    H144784   4.936   3.915  10.743 -0.7876  0.2797  2.1616
 6863TIP3    H244785   4.946   3.772  10.792  0.7655  0.0246  1.1719
 6864TIP3   OH244786   5.436   5.022  11.261  0.0390  0.7822  0.1415
 6864TIP3    H144787   5.518   5.044  11.216  0.4771  2.4407  1.6369
 6864TIP3    H244788   5.372   5.084  11.225 -0.3903  0.0289 -0.4296
 6865TIP3   OH244789   0.444   1.055  11.347 -0.2737 -0.2981  0.5977
 6865TIP3    H144790   0.487   1.095  11.271  0.9540 -2.2993  0.1689
 6865TIP3    H244791   0.353   1.083  11.340 -0.1559 -0.2783 -1.5352
 6866TIP3   OH244792   3.579   4.618  12.385 -0.0089 -0.2349  0.0891
 6866TIP3    H144793   3.617   4.703  12.363  1.0536 -0.6484  0.2410
 6866TIP3    H244794   3.633   4.587  12.458 -1.5390 -0.2335  1.2652
 6867TIP3   OH244795   1.649   3.090  12.043  0.4367  0.2498 -0.1508
 6867TIP3    H144796   1.657   3.144  12.121  1.3056 -0.7267  0.4645
 6867TIP3    H244797   1.614   3.149  11.976 -0.4883  1.0546  1.0135
 6868TIP3   OH244798   1.376   7.604  12.628  0.2858 -0.0630  0.5559
 6868TIP3    H144799   1.324   7.539  12.676  1.1492 -0.6283  0.7418
 6868TIP3    H244800   1.323   7.625  12.551  0.0064 -1.0200  0.4737
 6869TIP3   OH244801   3.438   7.600  12.748 -0.4815 -0.3092 -0.4339
 6869TIP3    H144802   3.443   7.687  12.786 -1.9870  0.2583 -1.4432
 6869TIP3    H244803   3.344   7.580  12.744 -0.1975 -1.7317 -0.7576
 6870TIP3   OH244804   1.603   4.545  11.052  0.3406 -0.5866  0.0030
 6870TIP3    H144805   1.649   4.608  11.108 -1.4732  0.1053  0.7738
 6870TIP3    H244806   1.540   4.598  11.002 -1.4683 -1.7786  0.9246
 6871TIP3   OH244807   0.759   4.899  12.432 -0.2978 -0.0552  0.2223
 6871TIP3    H144808   0.814   4.927  12.359 -1.9385  0.6608 -0.8091
 6871TIP3    H244809   0.806   4.927  12.510  1.6054 -1.0135 -0.5108
 6872TIP3   OH244810   5.659   2.797  13.089  0.1476  0.2742  0.8732
 6872TIP3    H144811   5.677   2.785  12.995 -0.3279 -1.6803  0.9852
 6872TIP3    H244812   5.683   2.887  13.106 -1.1731  1.1870 -1.4786
 6873TIP3   OH244813   0.062   7.440  11.812 -0.4046  0.0009  0.3258
 6873TIP3    H144814   0.092   7.512  11.757 -1.9604 -0.2776 -0.9615
 6873TIP3    H244815   0.069   7.473  11.902  0.5680  1.0952 -0.1365
 6874TIP3   OH244816   2.688   0.987  12.070 -0.0494 -0.0892 -0.0551
 6874TIP3    H144817   2.735   0.927  12.011 -0.2617 -1.4786  1.1229
 6874TIP3    H244818   2.757   1.025  12.125  0.1249  1.0518 -1.0232
 6875TIP3   OH244819   4.905   1.599  11.575  0.1546 -0.2875  0.7115
 6875TIP3    H144820   4.973   1.650  11.619  0.1864 -0.6666  1.1085
 6875TIP3    H244821   4.927   1.604  11.482  0.4500 -0.0119  0.7947
 6876TIP3   OH244822   3.286   0.954  11.500  0.3141 -0.3803  0.0914
 6876TIP3    H144823   3.332   0.872  11.481  1.7908  0.4424 -0.0590
 6876TIP3    H244824   3.323   0.983  11.583 -0.3921 -0.0046  0.2777
 6877TIP3   OH244825   5.451   3.924  11.689  0.1639  0.0061  0.3612
 6877TIP3    H144826   5.485   4.007  11.720 -0.6112  0.2265  0.6470
 6877TIP3    H244827   5.363   3.918  11.727  0.1000 -0.8048  0.1104
 6878TIP3   OH244828   3.726   1.798  11.915  0.3536 -0.0570 -0.1093
 6878TIP3    H144829   3.631   1.789  11.921  0.3101  0.0003 -0.6189
 6878TIP3    H244830   3.740   1.841  11.830  0.7749  0.8478  0.4098
 6879TIP3   OH244831   2.355   7.182  11.513 -0.8694 -0.5304 -0.3424
 6879TIP3    H144832   2.275   7.185  11.462 -1.0444  0.2654 -0.0306
 6879TIP3    H244833   2.326   7.192  11.604 -0.2748  2.0313 -0.3641
 6880TIP3   OH244834   1.329   0.228  12.763  0.3030 -0.2922 -0.1041
 6880TIP3    H144835   1.260   0.171  12.797 -0.5764  1.0616  0.4679
 6880TIP3    H244836   1.356   0.282  12.838  1.0841  0.0762 -0.6282
 6881TIP3   OH244837   6.114   4.294  12.470  0.1609  0.6716  0.0535
 6881TIP3    H144838   6.156   4.320  12.388  0.5163  0.3124  0.1169
 6881TIP3    H244839   6.052   4.365  12.489  1.2591  1.5978  0.3244
 6882TIP3   OH244840   6.343   3.761  10.539 -0.0915 -0.1399  0.0218
 6882TIP3    H144841   6.284   3.818  10.589  0.3017 -0.5052  0.9170
 6882TIP3    H244842   6.295   3.679  10.530 -0.1072 -0.1192 -0.0867
 6883TIP3   OH244843   1.121   6.796  11.880  0.0742  0.4126 -0.0067
 6883TIP3    H144844   1.146   6.764  11.967  0.3281  2.1330  0.5795
 6883TIP3    H244845   1.028   6.818  11.888  0.0103  0.2491 -0.2763
 6884TIP3   OH244846   7.228   4.245  11.122 -0.4565  0.2458 -0.5454
 6884TIP3    H144847   7.149   4.204  11.086  0.6902 -2.6093 -0.1215
 6884TIP3    H244848   7.298   4.218  11.062  0.4531  1.2600  0.0286
 6885TIP3   OH244849   0.413   5.154  11.220  0.2359  0.3455  0.1574
 6885TIP3    H144850   0.479   5.210  11.259  1.8041 -0.3409 -1.3945
 6885TIP3    H244851   0.457   5.071  11.205 -1.8409 -1.1786  1.7914
 6886TIP3   OH244852   7.674   2.355  11.525  0.5713  0.1511 -0.2622
 6886TIP3    H144853   7.743   2.389  11.469  0.1100 -0.7861 -1.4501
 6886TIP3    H244854   7.599   2.343  11.467  1.1567 -4.4611 -0.4983
 6887TIP3   OH244855   4.650   4.256  11.748  0.7096  0.2584  0.2992
 6887TIP3    H144856   4.724   4.276  11.690  0.0029  0.0071 -0.7118
 6887TIP3    H244857   4.576   4.244  11.689 -0.0961  0.2722  1.2845
 6888TIP3   OH244858   3.538   5.033  12.264  0.1889 -0.5802 -0.3782
 6888TIP3    H144859   3.514   4.992  12.347  0.4101 -1.3839 -0.7007
 6888TIP3    H244860   3.631   5.056  12.274  0.3525 -1.1395 -0.5804
 6889TIP3   OH244861   0.954   6.011  11.851 -0.1007  0.5060 -0.1458
 6889TIP3    H144862   0.976   5.919  11.865  2.3184  1.0536  0.0126
 6889TIP3    H244863   1.036   6.058  11.861 -1.2597  2.7158 -0.2666
 6890TIP3   OH244864   4.256   0.034  12.057  0.2542  0.0670  0.0854
 6890TIP3    H144865   4.182   0.020  12.116  0.1960 -0.6144 -0.1478
 6890TIP3    H244866   4.328  -0.015  12.095  0.8621  1.4710  0.8083
 6891TIP3   OH244867   1.034   2.312  12.319  0.0844 -0.4126  0.0474
 6891TIP3    H144868   0.986   2.256  12.381 -2.1768  0.9346 -0.3616
 6891TIP3    H244869   0.969   2.377  12.291  2.2890  1.7550 -0.3367
 6892TIP3   OH244870   0.738   2.591  11.812  0.1261 -0.3928 -0.1112
 6892TIP3    H144871   0.687   2.671  11.800  1.1570  0.1407 -1.1859
 6892TIP3    H244872   0.798   2.589  11.737  0.9287 -1.5590  0.5199
 6893TIP3   OH244873   3.903   6.887  12.533  0.0722  0.2660 -0.5910
 6893TIP3    H144874   3.944   6.888  12.447 -0.0221 -0.5331 -0.6496
 6893TIP3    H244875   3.902   6.979  12.560 -1.2413  0.7219 -2.0640
 6894TIP3   OH244876   1.572   5.366  11.473 -0.2535 -0.1996 -0.1657
 6894TIP3    H144877   1.525   5.339  11.552  0.0117 -2.5170 -0.7251
 6894TIP3    H244878   1.660   5.329  11.484 -0.0942 -0.2165 -1.3763
 6895TIP3   OH244879   5.198   5.127  11.143 -0.1303 -0.7646  0.0080
 6895TIP3    H144880   5.202   5.117  11.048 -0.3424 -0.5807 -0.0217
 6895TIP3    H244881   5.113   5.091  11.168  0.4013 -1.8743  0.2689
 6896TIP3   OH244882   4.612   1.585  10.776  0.0557 -0.1054 -0.4753
 6896TIP3    H144883   4.516   1.584  10.781 -0.1636  0.7681 -3.1897
 6896TIP3    H244884   4.635   1.678  10.785  0.6308 -0.2514 -0.4149
 6897TIP3   OH244885   7.127   2.990  11.177  0.6001  0.2990  0.7868
 6897TIP3    H144886   7.222   2.976  11.173  0.6607  1.0184 -0.6970
 6897TIP3    H244887   7.092   2.940  11.104 -0.3560 -1.1246  2.1452
 6898TIP3   OH244888   3.004   1.777  10.867 -0.4399  0.1032  0.3809
 6898TIP3    H144889   2.994   1.870  10.888 -0.2235  0.2413 -0.1014
 6898TIP3    H244890   3.081   1.750  10.917 -0.3006  0.2719  0.2632
 6899TIP3   OH244891   3.001   4.646  12.431 -0.3123  0.1446  0.5258
 6899TIP3    H144892   3.059   4.721  12.420  1.1967 -0.7567  1.8973
 6899TIP3    H244893   3.030   4.582  12.366  1.5764 -1.0286  2.3811
 6900TIP3   OH244894   3.610   6.316  12.068  0.2398 -0.1992 -0.0996
 6900TIP3    H144895   3.593   6.240  12.012 -0.4637 -0.0229 -0.1273
 6900TIP3    H244896   3.585   6.288  12.156  1.3563 -0.4787  0.1507
 6901TIP3   OH244897   2.118   1.933  10.898 -0.0095  0.0226 -0.5693
 6901TIP3    H144898   2.042   1.921  10.841 -0.8558  2.0577  0.0048
 6901TIP3    H244899   2.094   1.887  10.979 -0.5579  0.4512 -0.4777
 6902TIP3   OH244900   6.832   5.632  11.197  0.4297 -0.1070  0.2613
 6902TIP3    H144901   6.748   5.672  11.176  1.1079  1.3402  0.1597
 6902TIP3    H244902   6.866   5.685  11.270  1.1595 -0.7811  0.4228
 6903TIP3   OH244903   0.158   1.071  10.413 -0.1202 -0.1277  0.0739
 6903TIP3    H144904   0.132   0.997  10.467 -0.3707 -1.7753 -2.1668
 6903TIP3    H244905   0.077   1.098  10.368  0.6060 -0.8198 -1.7543
 6904TIP3   OH244906   0.446   3.185  13.481  0.0733  0.1695 -0.1330
 6904TIP3    H144907   0.418   3.106  13.434  3.6876 -2.6499  1.9025
 6904TIP3    H244908   0.399   3.182  13.564 -0.0709  0.3990 -0.2055
 6905TIP3   OH244909   2.006   4.306  12.518  0.5298 -0.3921 -0.2138
 6905TIP3    H144910   2.003   4.373  12.587 -1.7563 -1.6953  1.0579
 6905TIP3    H244911   2.056   4.235  12.557  0.7969 -0.4287 -0.6182
 6906TIP3   OH244912   2.250   1.032  12.727 -0.1065 -0.1237  0.1370
 6906TIP3    H144913   2.176   0.974  12.706 -1.4389  1.3410  0.5521
 6906TIP3    H244914   2.278   1.004  12.814 -0.2971 -0.5756  0.0565
 6907TIP3   OH244915   1.679   3.214  12.584 -0.0238 -0.2470 -0.0730
 6907TIP3    H144916   1.715   3.127  12.570 -0.9956 -0.8787  1.1311
 6907TIP3    H244917   1.626   3.231  12.506 -0.5834 -1.1453  0.1007
 6908TIP3   OH244918   4.945   5.588  10.670  0.3932 -0.2196 -0.1650
 6908TIP3    H144919   4.983   5.599  10.757  0.1462  1.3438 -0.2300
 6908TIP3    H244920   5.009   5.627  10.610  0.2705 -0.7201 -0.6381
 6909TIP3   OH244921   1.606   5.438  11.744 -0.0707  0.3226 -0.2082
 6909TIP3    H144922   1.618   5.395  11.828  1.5790 -0.6721 -0.9024
 6909TIP3    H244923   1.514   5.465  11.743 -1.4008 -3.6284  0.0934
 6910TIP3   OH244924   4.423   1.568  11.837  0.6220 -0.1383 -0.2856
 6910TIP3    H144925   4.491   1.634  11.847  0.6094 -0.2840  0.9023
 6910TIP3    H244926   4.435   1.509  11.911 -1.7049  0.6978  0.8901
 6911TIP3   OH244927   4.415   5.463  10.914  0.6846 -0.4053  0.0630
 6911TIP3    H144928   4.366   5.448  10.833  0.1029 -0.5182  0.4323
 6911TIP3    H244929   4.412   5.558  10.926 -0.4541 -0.4979  0.6904
 6912TIP3   OH244930   7.112   0.233  11.412 -0.1207  0.1479 -0.1873
 6912TIP3    H144931   7.185   0.173  11.397  0.5743  0.8971  0.1297
 6912TIP3    H244932   7.034   0.180  11.394  0.4925 -0.6447 -0.6041
 6913TIP3   OH244933   2.995   0.217  10.526  0.1172 -0.6811 -0.0253
 6913TIP3    H144934   3.042   0.190  10.605  0.2363 -1.8504 -0.4824
 6913TIP3    H244935   3.049   0.184  10.454 -0.1011  0.1898 -0.6029
 6914TIP3   OH244936   3.411   3.949  11.615  0.1496 -0.5185  0.0592
 6914TIP3    H144937   3.471   4.000  11.669 -0.1355 -0.2076  0.0879
 6914TIP3    H244938   3.362   3.896  11.677  0.5960 -0.9926  0.0127
 6915TIP3   OH244939   7.488   1.924  11.013  0.1700 -0.1324  0.3855
 6915TIP3    H144940   7.509   1.905  10.921  1.3473 -3.0456  1.1377
 6915TIP3    H244941   7.396   1.950  11.012 -1.9424 -6.0971 -1.1969
 6916TIP3   OH244942   0.317   4.065  10.824  0.5395 -0.0008 -0.2807
 6916TIP3    H144943   0.366   4.131  10.873  1.4777  2.0335 -3.5701
 6916TIP3    H244944   0.372   4.046  10.748 -0.9436 -2.6334 -0.8374
 6917TIP3   OH244945   3.220   1.629  11.020  0.3590 -0.2340 -0.6516
 6917TIP3    H144946   3.154   1.619  11.089  2.0094  1.4438  1.3301
 6917TIP3    H244947   3.302   1.641  11.068  1.6039  0.9701 -2.9400
 6918TIP3   OH244948   2.650   4.916  12.452 -0.2237  0.1162  0.7542
 6918TIP3    H144949   2.658   4.910  12.357  1.7390 -0.3576  0.9132
 6918TIP3    H244950   2.610   5.001  12.467  2.2463  1.5876 -0.4285
 6919TIP3   OH244951   7.159   0.618  12.562 -0.5528 -0.0397 -0.4143
 6919TIP3    H144952   7.184   0.710  12.563 -0.2670 -0.1078  1.2260
 6919TIP3    H244953   7.199   0.581  12.641 -0.9852 -1.4851 -0.8346
 6920TIP3   OH244954   2.324   0.250  10.636 -0.2093 -0.3577  0.3711
 6920TIP3    H144955   2.416   0.235  10.614  0.0006  0.8413  0.3579
 6920TIP3    H244956   2.317   0.225  10.728  0.3798  0.5267  0.6656
 6921TIP3   OH244957   0.184   4.685  13.537 -0.2919  0.2076  0.1222
 6921TIP3    H144958   0.243   4.612  13.520 -0.9378  0.0502 -1.7954
 6921TIP3    H244959   0.119   4.680  13.466 -0.3679  2.6099 -0.0863
 6922TIP3   OH244960   1.157   1.585  12.376  0.4659  0.0931  0.4442
 6922TIP3    H144961   1.246   1.564  12.348  0.4097  0.3775  0.0319
 6922TIP3    H244962   1.167   1.616  12.466  0.4970 -1.9993  1.2049
 6923TIP3   OH244963   7.207   1.981  11.001 -0.0928 -0.5404 -0.1271
 6923TIP3    H144964   7.184   2.055  11.057  0.6607  0.1656 -0.7325
 6923TIP3    H244965   7.122   1.943  10.977 -0.7446  1.8708 -2.1334
 6924TIP3   OH244966   0.537   4.085  11.648 -0.4999  0.0832 -0.5190
 6924TIP3    H144967   0.577   4.167  11.621 -1.5201  1.6688  2.2762
 6924TIP3    H244968   0.609   4.036  11.689 -0.2918  0.5416 -0.3212
 6925TIP3   OH244969   7.256   6.868  11.778  0.5571  0.0668  0.3913
 6925TIP3    H144970   7.268   6.817  11.858 -1.6445 -1.4919 -0.1595
 6925TIP3    H244971   7.250   6.801  11.709  2.3024  1.3570 -1.0865
 6926TIP3   OH244972   7.564   7.376  12.118  0.0287  0.4975 -0.0695
 6926TIP3    H144973   7.633   7.325  12.159  1.2062  1.5408 -0.6850
 6926TIP3    H244974   7.603   7.463  12.104  0.3623 -0.1546 -4.8457
 6927TIP3   OH244975   2.284   3.581  10.594 -0.8847  0.3158  0.3626
 6927TIP3    H144976   2.330   3.656  10.559 -0.0465 -0.2417  0.2480
 6927TIP3    H244977   2.291   3.590  10.689  0.2891 -0.2433  0.3490
 6928TIP3   OH244978   5.484   7.562  13.115 -0.2053 -0.0958 -0.5451
 6928TIP3    H144979   5.431   7.618  13.172 -0.0542 -2.4486  2.1713
 6928TIP3    H244980   5.534   7.623  13.061 -1.2517  2.3219  1.0458
 6929TIP3   OH244981   6.745   5.061  11.278  0.0575 -0.3711  0.3392
 6929TIP3    H144982   6.722   5.039  11.368 -1.5913 -2.6366 -0.5348
 6929TIP3    H244983   6.796   5.141  11.285  0.2376 -0.6364  3.2949
 6930TIP3   OH244984   5.699   0.526  12.849  0.6227  0.3639 -0.4813
 6930TIP3    H144985   5.653   0.480  12.779  0.7521 -1.3083  0.4767
 6930TIP3    H244986   5.791   0.520  12.826  0.6735 -0.2787 -0.1406
 6931TIP3   OH244987   4.652   5.353  12.546  0.0075 -0.3883 -0.6303
 6931TIP3    H144988   4.705   5.368  12.467 -0.1755 -1.5743 -0.9867
 6931TIP3    H244989   4.581   5.417  12.539 -0.9900 -1.6113 -2.3306
 6932TIP3   OH244990   7.678   1.169  10.875  0.5392  0.1979  0.4214
 6932TIP3    H144991   7.608   1.116  10.912  0.8359  0.5492  1.5391
 6932TIP3    H244992   7.752   1.108  10.866  0.2332 -0.0733 -0.3682
 6933TIP3   OH244993   4.523   5.620  11.889 -0.0721 -0.2160  0.3001
 6933TIP3    H144994   4.460   5.649  11.822  0.0762 -0.0752  0.2203
 6933TIP3    H244995   4.604   5.605  11.840 -0.2283 -1.0587  0.2934
 6934TIP3   OH244996   7.374   1.080  11.323 -0.0225 -0.0841 -0.1812
 6934TIP3    H144997   7.367   1.017  11.395  1.4569 -0.9625 -0.7481
 6934TIP3    H244998   7.366   1.166  11.364 -0.9275 -0.6036  0.7704
 6935TIP3   OH244999   5.646   4.019  11.205 -0.5707 -1.1543  0.3020
 6935TIP3    H145000   5.664   4.105  11.244 -1.6934 -0.7981  0.0713
 6935TIP3    H245001   5.629   3.962  11.280  0.3653 -1.2292  0.4658
 6936TIP3   OH245002   6.184   0.820  12.327 -0.1869  0.1300  0.0258
 6936TIP3    H145003   6.238   0.862  12.260 -0.4173 -0.5442 -0.6038
 6936TIP3    H245004   6.199   0.726  12.313  0.4790 -0.0217  1.5201
 6937TIP3   OH245005   1.837   6.400  12.214 -0.1293  0.0069 -0.5102
 6937TIP3    H145006   1.907   6.349  12.254 -0.7826 -0.7646 -0.3354
 6937TIP3    H245007   1.784   6.430  12.288  0.4594  1.2763 -0.5808
 6938TIP3   OH245008   1.843   1.283  12.815 -0.0480  0.2905  0.1416
 6938TIP3    H145009   1.822   1.374  12.839 -0.0794  0.6241 -1.0629
 6938TIP3    H245010   1.787   1.230  12.872  0.3501  0.9945  1.2292
 6939TIP3   OH245011   1.056   5.655  13.341 -0.3065 -0.4883 -0.1933
 6939TIP3    H145012   0.984   5.600  13.372 -0.8081 -0.2907 -0.9744
 6939TIP3    H245013   1.022   5.697  13.262  0.6682 -0.3923 -0.5763
 6940TIP3   OH245014   4.159   3.718  11.884 -0.1737 -0.5888  0.2502
 6940TIP3    H145015   4.093   3.781  11.911  0.9792  1.3929 -1.2706
 6940TIP3    H245016   4.152   3.647  11.947 -1.1583  1.3090  2.3955
 6941TIP3   OH245017   2.089   7.543  11.474 -0.7557  0.4113 -0.0913
 6941TIP3    H145018   2.133   7.625  11.451  1.5362 -0.8523 -0.4723
 6941TIP3    H245019   2.119   7.524  11.563 -0.0791 -0.7367 -0.5455
 6942TIP3   OH245020   6.846   6.261  10.515 -0.0380 -0.4334 -0.1829
 6942TIP3    H145021   6.837   6.282  10.422 -1.5488  3.7215  0.6870
 6942TIP3    H245022   6.769   6.301  10.556 -0.2401 -3.4326  2.7645
 6943TIP3   OH245023   5.198   0.084  11.470  0.5503 -0.1416  0.4115
 6943TIP3    H145024   5.106   0.074  11.446  1.0224 -2.9969 -0.5701
 6943TIP3    H245025   5.215   0.012  11.530  1.8859  1.0876  1.5869
 6944TIP3   OH245026   2.606   3.557  10.920  0.1422 -0.1506 -0.3099
 6944TIP3    H145027   2.639   3.638  10.882 -0.6020  0.4796  0.3402
 6944TIP3    H245028   2.626   3.565  11.014  3.6517 -2.4922 -0.6783
 6945TIP3   OH245029   3.963   7.513  11.557 -0.1342 -0.3020  0.2675
 6945TIP3    H145030   3.937   7.602  11.535  1.4824  0.4489  1.2311
 6945TIP3    H245031   3.908   7.458  11.503 -2.0223  1.2365  0.5255
 6946TIP3   OH245032   4.706   6.224  12.145 -0.1092  0.1900  0.3918
 6946TIP3    H145033   4.772   6.279  12.188 -0.9403  3.0736 -1.6794
 6946TIP3    H245034   4.757   6.156  12.101  1.2476  0.7528  1.0230
 6947TIP3   OH245035   5.136   3.606  11.955 -0.3586 -0.3696 -0.0045
 6947TIP3    H145036   5.194   3.543  11.998 -0.9888 -1.7881 -1.1234
 6947TIP3    H245037   5.148   3.687  12.003  1.1062 -1.1331  0.9851
 6948TIP3   OH245038   5.428   4.919  10.845 -0.1094 -0.5209  0.3919
 6948TIP3    H145039   5.384   4.873  10.774 -0.4098  0.8186 -0.3333
 6948TIP3    H245040   5.366   4.988  10.871  1.3203  1.1481 -0.3745
 6949TIP3   OH245041   6.553   3.854  11.874 -0.8963  0.0666  0.2793
 6949TIP3    H145042   6.519   3.924  11.929 -3.4490 -0.6510 -0.2598
 6949TIP3    H245043   6.477   3.822  11.826  0.5697 -1.7500 -0.9759
 6950TIP3   OH245044   3.458   2.806  12.541 -0.3575  0.9919  0.1897
 6950TIP3    H145045   3.441   2.848  12.626 -0.2352 -0.3568  0.9084
 6950TIP3    H245046   3.492   2.876  12.486  0.3183  1.7218  1.4943
 6951TIP3   OH245047   2.675   4.546  10.900  0.4393 -0.1651 -0.0553
 6951TIP3    H145048   2.652   4.639  10.903  0.6918 -0.1007 -0.0647
 6951TIP3    H245049   2.691   4.528  10.808  1.4332  0.0454  0.0680
 6952TIP3   OH245050   5.038   5.807  12.377  0.2109  0.1540 -0.0585
 6952TIP3    H145051   5.048   5.902  12.371  1.5767 -0.0420 -1.8569
 6952TIP3    H245052   4.981   5.785  12.304  0.3596 -0.4703  0.0126
 6953TIP3   OH245053   6.355   0.338  11.386  0.6185  0.5623  0.6588
 6953TIP3    H145054   6.370   0.262  11.443 -0.3735  0.7339  1.1800
 6953TIP3    H245055   6.442   0.364  11.357  0.9889 -0.6396  0.6471
 6954TIP3   OH245056   7.146   6.262  11.138 -0.6060  0.3092  0.3600
 6954TIP3    H145057   7.163   6.210  11.060 -0.6299 -0.4959  0.8753
 6954TIP3    H245058   7.216   6.239  11.199 -0.0146  1.6780  0.2334
 6955TIP3   OH245059   7.013   3.200  11.351 -0.1254 -0.6779  0.2735
 6955TIP3    H145060   7.081   3.210  11.418  1.3851 -1.5553 -1.0403
 6955TIP3    H245061   7.048   3.133  11.292 -1.8242 -0.6131 -0.8752
 6956TIP3   OH245062   5.391   2.109  10.929  0.2351  0.0523  0.8451
 6956TIP3    H145063   5.348   2.159  10.860 -0.7906 -1.0805  0.6124
 6956TIP3    H245064   5.467   2.161  10.954  1.1945  0.0763 -1.8143
 6957TIP3   OH245065   0.648   5.935  13.163 -0.1772 -0.2741 -0.7711
 6957TIP3    H145066   0.731   5.908  13.202 -1.1783  0.7730  2.3733
 6957TIP3    H245067   0.648   6.031  13.172 -1.4233 -0.2001 -1.3458
 6958TIP3   OH245068   7.437   5.928  11.259  0.0353  0.2395 -0.5544
 6958TIP3    H145069   7.361   5.869  11.262 -0.5238  0.9776  2.2122
 6958TIP3    H245070   7.501   5.882  11.204 -1.7900 -1.1449 -1.6297
 6959TIP3   OH245071   7.114   4.582  11.476 -0.0591  0.0746  0.3336
 6959TIP3    H145072   7.022   4.556  11.471 -0.4673  1.5550 -0.0701
 6959TIP3    H245073   7.158   4.528  11.409 -0.8682  0.3614 -0.4416
 6960TIP3   OH245074   3.489   6.255  11.596 -0.0208  0.3750 -0.1990
 6960TIP3    H145075   3.469   6.332  11.649  0.8024 -0.1313  0.8593
 6960TIP3    H245076   3.435   6.186  11.633  0.3149  0.0967 -0.2266
 6961TIP3   OH245077   0.411   1.203  12.741  0.4052  0.1660  0.4691
 6961TIP3    H145078   0.413   1.282  12.687  0.4333  1.0071  1.6523
 6961TIP3    H245079   0.475   1.145  12.701 -0.2546  0.3754 -0.9506
 6962TIP3   OH245080   1.615   6.471  10.994  0.0101  0.2510  0.1285
 6962TIP3    H145081   1.682   6.533  10.968  0.3342  0.6285  1.7655
 6962TIP3    H245082   1.662   6.389  11.011 -0.2127 -0.0261 -0.5457
 6963TIP3   OH245083   1.042   1.295  10.359  0.0983  0.0932 -0.3149
 6963TIP3    H145084   1.093   1.228  10.314  0.4106  0.7882 -1.0352
 6963TIP3    H245085   0.969   1.247  10.398  0.3369 -0.6708 -0.7755
 6964TIP3   OH245086   3.740   7.439  12.465 -0.1884 -0.2576 -0.0670
 6964TIP3    H145087   3.755   7.452  12.559 -1.9134 -2.2172  0.5687
 6964TIP3    H245088   3.667   7.497  12.445 -0.1024 -0.1586 -0.0934
 6965TIP3   OH245089   0.383   0.523  10.608 -0.3430 -0.0361 -0.3750
 6965TIP3    H145090   0.325   0.545  10.682 -0.6816 -1.8271 -0.0680
 6965TIP3    H245091   0.471   0.523  10.646 -0.3916  0.1907 -0.2569
 6966TIP3   OH245092   2.174   2.265  13.135  0.1461  0.1716 -0.1175
 6966TIP3    H145093   2.113   2.194  13.156  0.8680 -0.3373  0.3122
 6966TIP3    H245094   2.143   2.339  13.187 -1.3918  0.5997 -1.5483
 6967TIP3   OH245095   1.783   1.965  11.265 -0.4421 -0.1075 -0.4607
 6967TIP3    H145096   1.861   2.019  11.259  0.5133 -1.4454 -0.4689
 6967TIP3    H245097   1.803   1.900  11.332 -2.1892  0.4985  0.7349
 6968TIP3   OH245098   1.398   7.299  10.495  0.4529 -0.2687 -0.6259
 6968TIP3    H145099   1.368   7.348  10.571  0.9562 -1.5737  0.4409
 6968TIP3    H245100   1.491   7.284  10.511  0.9097  0.6348 -2.1882
 6969TIP3   OH245101   0.324   0.252  12.939 -0.4378 -0.1395 -0.1132
 6969TIP3    H145102   0.385   0.288  12.874  1.7659  0.2241  1.9926
 6969TIP3    H245103   0.308   0.162  12.910  0.9624 -0.1820 -0.8606
 6970TIP3   OH245104   2.854   4.144  10.709 -0.4318 -0.7512  0.0768
 6970TIP3    H145105   2.837   4.160  10.802  0.5407 -1.4801  0.3962
 6970TIP3    H245106   2.767   4.144  10.669 -0.8767 -0.5336  0.9985
 6971TIP3   OH245107   1.131   3.164  11.474  0.7753  0.0577  0.4153
 6971TIP3    H145108   1.205   3.153  11.415 -0.2556 -1.2426 -0.6933
 6971TIP3    H245109   1.066   3.213  11.422 -0.5492 -1.9843  0.0214
 6972TIP3   OH245110   0.641   0.739  10.415  0.5362 -0.2565 -0.6486
 6972TIP3    H145111   0.574   0.805  10.396  0.3654  0.0106  0.7740
 6972TIP3    H245112   0.720   0.773  10.374 -0.0230 -0.2097 -1.7162
 6973TIP3   OH245113   3.034   5.691  12.029 -0.1450 -0.4437 -0.0017
 6973TIP3    H145114   3.064   5.624  11.967 -1.7458  0.3373 -1.7326
 6973TIP3    H245115   3.056   5.774  11.987 -0.1293  0.1185  1.0986
 6974TIP3   OH245116   6.780   3.679  13.761  0.6696 -0.1093 -0.1442
 6974TIP3    H145117   6.787   3.608  13.825 -0.5638 -0.8173 -0.7577
 6974TIP3    H245118   6.688   3.678  13.735  1.3749 -0.6341 -2.8400
 6975TIP3   OH245119   0.899   2.266  13.510  0.1311  0.1537 -0.2347
 6975TIP3    H145120   0.894   2.294  13.418  0.4374  1.3606  0.0891
 6975TIP3    H245121   0.933   2.177  13.506  0.6181  0.3614 -1.2753
 6976TIP3   OH245122   5.212   2.492  12.269 -0.4619  0.4610 -0.5142
 6976TIP3    H145123   5.166   2.437  12.332  0.0618  1.0402  0.4003
 6976TIP3    H245124   5.159   2.487  12.189 -0.8834 -0.6581 -0.1839
 6977TIP3   OH245125   0.349   4.344  12.293  0.9140 -0.0658 -0.4417
 6977TIP3    H145126   0.427   4.311  12.248  2.0211 -0.1899  1.4362
 6977TIP3    H245127   0.365   4.323  12.386 -1.3393 -0.0438  0.0053
 6978TIP3   OH245128   7.656   4.920  11.016 -0.2135 -0.7763  0.9310
 6978TIP3    H145129   7.732   4.943  10.963  0.5252 -0.7675  1.9468
 6978TIP3    H245130   7.605   4.860  10.961  0.1999 -0.2868 -0.0050
 6979TIP3   OH245131   5.312   3.063  12.397  0.1906 -0.0190 -0.0896
 6979TIP3    H145132   5.350   3.137  12.350 -1.2829  1.1070  0.4361
 6979TIP3    H245133   5.339   3.077  12.488  0.9982 -0.8714 -0.1775
 6980TIP3   OH245134   3.171   0.488  10.675  0.1693 -0.0764  0.2687
 6980TIP3    H145135   3.137   0.530  10.754  1.2750  0.6231  0.3789
 6980TIP3    H245136   3.097   0.436  10.643 -1.1309  1.6491  0.3180
 6981TIP3   OH245137   1.364   1.878  11.210  0.3434  0.0775  0.3495
 6981TIP3    H145138   1.436   1.817  11.195  0.2353  0.4778 -2.2085
 6981TIP3    H245139   1.293   1.824  11.245  1.2173 -0.6839  0.9827
 6982TIP3   OH245140   5.613   1.833  11.959  0.5021 -0.3323  0.3799
 6982TIP3    H145141   5.694   1.835  12.010  0.7809  0.4896 -0.0772
 6982TIP3    H245142   5.544   1.843  12.024  0.7880 -0.4875  0.7147
 6983TIP3   OH245143   6.836   0.655  12.319 -0.5169  0.1277  0.2962
 6983TIP3    H145144   6.904   0.592  12.341  0.1623  1.3426  1.8970
 6983TIP3    H245145   6.882   0.729  12.279 -0.9839  0.5886  0.5812
 6984TIP3   OH245146   1.924   3.702  10.388  0.0326 -0.4063 -0.1426
 6984TIP3    H145147   1.949   3.762  10.459 -2.8521 -0.7451  1.3012
 6984TIP3    H245148   1.918   3.617  10.429 -2.3217 -0.5056 -0.5942
 6985TIP3   OH245149   1.333   3.093  10.504  0.2319 -0.0348 -0.2708
 6985TIP3    H145150   1.315   3.118  10.595  2.1992  2.4931 -0.4562
 6985TIP3    H245151   1.257   3.125  10.455 -0.0737  0.0959  0.2834
 6986TIP3   OH245152   2.199   3.491  12.156 -0.1322 -0.2127 -0.5926
 6986TIP3    H145153   2.137   3.496  12.084 -0.4013 -3.7924 -0.7749
 6986TIP3    H245154   2.149   3.455  12.229  0.9852 -0.0320  0.3074
 6987TIP3   OH245155   4.115   5.108  12.478  0.4301 -0.1074  0.0798
 6987TIP3    H145156   4.058   5.122  12.553  0.7888  2.5894 -0.0618
 6987TIP3    H245157   4.082   5.028  12.437 -0.0266 -1.4125  2.8251
 6988TIP3   OH245158   0.545   5.011  12.285 -0.0226 -0.4360  0.7160
 6988TIP3    H145159   0.623   4.980  12.331 -1.4381 -3.9177  1.0823
 6988TIP3    H245160   0.477   5.014  12.353 -0.6538  0.8419  0.0650
 6989TIP3   OH245161   6.391   3.286  12.642 -0.5379 -0.4762 -0.1471
 6989TIP3    H145162   6.427   3.221  12.703  0.1704 -0.7113 -0.8079
 6989TIP3    H245163   6.444   3.277  12.563 -0.9383  0.3807 -0.5207
 6990TIP3   OH245164   0.309   0.088  13.229 -0.2222  0.1490  0.2217
 6990TIP3    H145165   0.282  -0.003  13.222 -0.4650  0.2422 -0.0631
 6990TIP3    H245166   0.399   0.089  13.195  0.0667 -0.1183  0.9523
 6991TIP3   OH245167   6.227   5.474  11.857  0.2039  0.4831  0.2297
 6991TIP3    H145168   6.194   5.397  11.906  0.3470  1.6800  2.3440
 6991TIP3    H245169   6.302   5.441  11.808 -1.9031 -1.5254 -1.9069
 6992TIP3   OH245170   0.969   2.854  12.300  0.0059 -0.4178 -0.2142
 6992TIP3    H145171   0.980   2.901  12.217 -2.9666 -0.1906 -0.5868
 6992TIP3    H245172   1.040   2.790  12.301  2.2659  1.9302 -1.1784
 6993TIP3   OH245173   1.028   5.169  11.750  0.6825  0.6823  0.0815
 6993TIP3    H145174   1.018   5.263  11.768  1.0306  0.6992  0.1913
 6993TIP3    H245175   1.021   5.127  11.836 -0.7487  0.4847 -0.0967
 6994TIP3   OH245176   1.585   1.297  11.681 -0.5594 -0.3391 -0.2855
 6994TIP3    H145177   1.582   1.375  11.736 -0.5552  1.0157 -2.1305
 6994TIP3    H245178   1.592   1.224  11.743 -1.2932  1.0517  1.5107
 6995TIP3   OH245179   7.568   2.764  12.657 -0.3333  0.3317 -0.4943
 6995TIP3    H145180   7.603   2.851  12.641 -1.1387  1.1092  1.5857
 6995TIP3    H245181   7.474   2.772  12.637 -0.3458 -0.1539 -0.6439
 6996TIP3   OH245182   7.106   0.902  12.340 -0.1339 -0.0552  0.1626
 6996TIP3    H145183   7.104   0.997  12.348  3.0944  0.2926 -1.4688
 6996TIP3    H245184   7.162   0.873  12.412 -0.7070 -0.6770  0.3671
 6997TIP3   OH245185   7.420   5.085  10.921 -0.2024  0.2758  0.3355
 6997TIP3    H145186   7.499   5.110  10.970  0.5220  2.0806 -1.6130
 6997TIP3    H245187   7.374   5.168  10.906 -0.1058 -0.1091 -2.4629
 6998TIP3   OH245188   2.108   0.534  10.896 -0.1057 -0.3866  0.2800
 6998TIP3    H145189   2.063   0.451  10.909 -1.0254  0.1564  0.6873
 6998TIP3    H245190   2.187   0.512  10.846 -0.1831 -1.5338  0.6381
 6999TIP3   OH245191   6.668   4.624  12.590  0.0887 -0.8386  0.3806
 6999TIP3    H145192   6.661   4.591  12.680  0.1077 -0.9342  0.3470
 6999TIP3    H245193   6.759   4.651  12.581  0.3595 -1.8156  0.0517
 7000TIP3   OH245194   4.854   3.880  11.148  0.1573  0.1947 -0.2632
 7000TIP3    H145195   4.760   3.898  11.139  0.1321  0.1525 -0.0779
 7000TIP3    H245196   4.862   3.786  11.135  0.1511  0.1700 -0.0857
 7001TIP3   OH245197   2.271   4.632  12.142 -0.2494 -0.0618 -0.2494
 7001TIP3    H145198   2.194   4.689  12.140 -0.1214  0.1142 -0.1426
 7001TIP3    H245199   2.270   4.594  12.229  0.7501  1.2716  0.3885
 7002TIP3   OH245200   6.005   5.691  13.335 -0.7892  0.3055 -0.0106
 7002TIP3    H145201   6.005   5.777  13.378  0.6843  0.7842 -0.9049
 7002TIP3    H245202   5.920   5.686  13.293 -0.6772  1.6003 -0.4432
 7003TIP3   OH245203   3.389   1.478  10.595 -0.4738  0.3542 -0.2449
 7003TIP3    H145204   3.482   1.500  10.601 -0.3817 -0.0321 -0.2535
 7003TIP3    H245205   3.344   1.563  10.602 -0.1138  0.5685 -0.4772
 7004TIP3   OH245206   0.067   5.913  11.053  0.2869 -0.1019 -0.3292
 7004TIP3    H145207   0.146   5.893  11.103  0.2687 -0.3942 -0.4162
 7004TIP3    H245208   0.003   5.846  11.079  0.1591 -0.0377 -0.4687
 7005TIP3   OH245209   0.158   7.175  11.821 -0.3095 -0.3714 -0.6735
 7005TIP3    H145210   0.243   7.215  11.841 -1.3059  0.9927  1.0664
 7005TIP3    H245211   0.106   7.247  11.787 -0.6793 -1.2947 -2.1560
 7006TIP3   OH245212   2.948   0.025  10.808 -0.1289 -0.2278  0.0347
 7006TIP3    H145213   2.913  -0.062  10.790 -0.2293 -0.1582 -0.1113
 7006TIP3    H245214   3.035   0.024  10.768  0.0106 -0.3757  0.3341
 7007TIP3   OH245215   5.406   4.619  11.727  0.0570  0.9250  0.5796
 7007TIP3    H145216   5.485   4.581  11.765  0.7108  1.9676  0.3027
 7007TIP3    H245217   5.419   4.713  11.734  0.0062  1.1695 -1.7363
 7008TIP3   OH245218   5.945   2.178  12.003 -0.3008  0.7916  0.4418
 7008TIP3    H145219   5.992   2.152  11.924 -1.1557  0.0967  0.1518
 7008TIP3    H245220   5.943   2.100  12.058 -1.6204  0.6178  0.1904
 7009TIP3   OH245221   5.544   6.671  10.336 -0.4103  0.5969 -0.3325
 7009TIP3    H145222   5.452   6.647  10.328 -0.7894  1.4860  1.1099
 7009TIP3    H245223   5.553   6.708  10.424  0.9419  2.1813 -1.0749
 7010TIP3   OH245224   3.415   5.996  12.442 -0.2537 -0.0081 -0.3244
 7010TIP3    H145225   3.511   5.991  12.447 -0.2577  0.9861  1.2036
 7010TIP3    H245226   3.390   6.058  12.511 -2.1067 -1.3281  0.2566
 7011TIP3   OH245227   0.634   1.366  11.724 -0.0940  0.2740 -0.1111
 7011TIP3    H145228   0.628   1.414  11.807 -1.3496 -0.5364  0.2953
 7011TIP3    H245229   0.616   1.432  11.657  1.1482  0.9851  0.2227
 7012TIP3   OH245230   5.586   4.096  12.794 -0.5222  0.5083 -0.6166
 7012TIP3    H145231   5.563   4.023  12.851  0.0998  0.5838 -0.2671
 7012TIP3    H245232   5.565   4.066  12.706  0.8766 -0.5552 -0.6104
 7013TIP3   OH245233   6.004   4.768  12.047  0.7128  0.1675  0.6755
 7013TIP3    H145234   6.065   4.706  12.087 -1.9734 -2.1432  1.5264
 7013TIP3    H245235   5.985   4.731  11.961 -0.5364  0.0519  0.9858
 7014TIP3   OH245236   4.232   2.908  11.468  0.7111  0.3497  0.1871
 7014TIP3    H145237   4.208   2.898  11.559 -1.5383  1.1891 -0.2602
 7014TIP3    H245238   4.252   2.819  11.438 -1.6308 -0.4277  0.7140
 7015TIP3   OH245239   5.809   1.928  12.583  0.1418  0.5934 -0.1638
 7015TIP3    H145240   5.755   1.972  12.649 -0.9147  0.5978 -1.0234
 7015TIP3    H245241   5.749   1.871  12.536  1.4718 -1.7813  0.8614
 7016TIP3   OH245242   2.420   5.061  11.494 -0.2202  0.9751 -0.0209
 7016TIP3    H145243   2.334   5.075  11.534  1.2044 -0.0405  3.7974
 7016TIP3    H245244   2.459   5.148  11.491 -0.7975  1.2299 -0.3232
 7017TIP3   OH245245   6.197   7.036  12.200 -0.5036  0.1425 -0.4660
 7017TIP3    H145246   6.256   6.990  12.142 -2.1602 -1.0141 -1.3073
 7017TIP3    H245247   6.253   7.068  12.271  1.2704  0.0600 -1.7622
 7018TIP3   OH245248   3.660   3.713  12.186 -0.0846 -0.3376 -0.3281
 7018TIP3    H145249   3.572   3.724  12.221 -0.5612 -0.7025 -1.3739
 7018TIP3    H245250   3.662   3.624  12.152  1.2283 -0.9079  1.1203
 7019TIP3   OH245251   5.822   7.574  10.695 -0.1298 -0.2840  0.3233
 7019TIP3    H145252   5.750   7.525  10.735 -0.6952  0.0511 -0.2669
 7019TIP3    H245253   5.806   7.567  10.601  2.8067 -3.6434 -0.1424
 7020TIP3   OH245254   2.135   6.309  13.007 -0.4856  1.2276 -0.0110
 7020TIP3    H145255   2.097   6.268  13.085 -0.1386 -0.6271 -0.7686
 7020TIP3    H245256   2.061   6.349  12.962 -0.9551  0.8062  0.3855
 7021TIP3   OH245257   4.725   3.536  10.595  0.3167 -0.2331 -0.0351
 7021TIP3    H145258   4.789   3.594  10.636  1.0040 -0.1368 -1.1712
 7021TIP3    H245259   4.652   3.594  10.571  1.3254  0.3801 -1.8586
 7022TIP3   OH245260   0.253   6.978  12.463 -0.0083  0.0031  0.1634
 7022TIP3    H145261   0.309   6.963  12.387 -1.1848 -0.2277 -0.6919
 7022TIP3    H245262   0.274   6.905  12.523 -0.3184 -0.8325 -0.7172
 7023TIP3   OH245263   0.464   6.516  12.637 -0.2209  0.4129  0.1102
 7023TIP3    H145264   0.478   6.465  12.558 -0.9772  1.0328 -0.4400
 7023TIP3    H245265   0.372   6.540  12.634 -0.0824  1.0688  0.8064
 7024TIP3   OH245266   2.731   7.526  11.047 -0.1717 -0.6106 -0.6018
 7024TIP3    H145267   2.639   7.514  11.027 -1.1068  3.2577  0.3999
 7024TIP3    H245268   2.734   7.534  11.142  1.4222 -1.8438 -0.5150
 7025TIP3   OH245269   1.951   3.353  12.107 -1.0458  0.3545  0.0664
 7025TIP3    H145270   1.892   3.340  12.181  0.4003 -0.2413  1.1635
 7025TIP3    H245271   1.908   3.308  12.034 -1.4873 -0.9386  1.0866
 7026TIP3   OH245272   0.593   4.366  11.981  0.7656 -0.3008  0.0448
 7026TIP3    H145273   0.633   4.327  11.903 -0.1778 -0.2135 -0.5095
 7026TIP3    H245274   0.558   4.291  12.030  1.6117 -0.3789  0.5409
 7027TIP3   OH245275   5.258   2.040  12.041 -0.3866 -0.3230  0.4061
 7027TIP3    H145276   5.336   2.094  12.029  0.6944 -1.8709  0.3055
 7027TIP3    H245277   5.191   2.083  11.987  0.6895  0.4205 -0.3662
 7028TIP3   OH245278   6.634   1.226  11.140  0.1519  0.2613 -0.1743
 7028TIP3    H145279   6.699   1.197  11.205 -0.9615 -0.4210  0.6632
 7028TIP3    H245280   6.687   1.265  11.071  1.6979 -2.4260 -0.6768
 7029TIP3   OH245281   1.163   7.164  10.788 -0.6601  0.4179 -0.4020
 7029TIP3    H145282   1.126   7.150  10.701  0.6492  1.2664 -1.1400
 7029TIP3    H245283   1.258   7.158  10.775 -0.4697 -0.6298  1.2031
 7030TIP3   OH245284   5.382   5.791  12.520  0.4196 -0.1240  0.5260
 7030TIP3    H145285   5.418   5.704  12.538  0.9149  0.2099  1.1977
 7030TIP3    H245286   5.290   5.784  12.544 -0.5363 -1.5408 -2.9994
 7031TIP3   OH245287   2.150   2.434  11.939 -0.5788  0.0113 -0.3787
 7031TIP3    H145288   2.150   2.459  12.031  0.1041 -2.6021  0.4018
 7031TIP3    H245289   2.058   2.441  11.912 -0.5108  2.7938 -0.1794
 7032TIP3   OH245290   7.663   1.974  12.896 -0.1988  0.5676  0.3252
 7032TIP3    H145291   7.663   1.903  12.960 -3.6494 -0.8378 -1.0063
 7032TIP3    H245292   7.599   2.037  12.929 -0.8203  0.6055 -0.8829
 7033TIP3   OH245293   2.710   5.549  11.580 -0.5286 -0.1986 -0.2368
 7033TIP3    H145294   2.739   5.626  11.530  1.5426 -1.7650 -1.6303
 7033TIP3    H245295   2.771   5.543  11.653  1.7718 -2.4470 -2.1401
 7034TIP3   OH245296   7.064   4.890  10.863 -0.4715  0.0165  0.0847
 7034TIP3    H145297   7.041   4.845  10.944 -1.3377  0.8009  0.2952
 7034TIP3    H245298   7.021   4.838  10.794  0.3511 -0.7092  0.1056
 7035TIP3   OH245299   4.054   0.066  11.807  0.0981  0.5306 -0.4541
 7035TIP3    H145300   4.113  -0.001  11.773  0.9684  1.8098 -1.5177
 7035TIP3    H245301   3.968   0.024  11.806  0.5780 -0.4701 -1.3680
 7036TIP3   OH245302   0.416   2.304  11.303  0.7324 -0.0820  0.4503
 7036TIP3    H145303   0.470   2.243  11.354  0.7648  1.1840  2.0113
 7036TIP3    H245304   0.469   2.326  11.227  1.5761 -0.4146  0.9290
 7037TIP3   OH245305   3.943   5.811  10.765  0.0912 -0.1101  0.6412
 7037TIP3    H145306   3.878   5.772  10.823  0.6287  1.7392  2.6188
 7037TIP3    H245307   3.998   5.738  10.736 -0.9620 -1.2507  1.4523
 7038TIP3   OH245308   5.404   3.952  18.614  0.0693 -0.1195  0.0975
 7038TIP3    H145309   5.368   4.024  18.665  1.8459  0.4566  0.6065
 7038TIP3    H245310   5.355   3.955  18.531 -0.4230  1.1649  0.4083
 7039TIP3   OH245311   2.759   1.438  12.266 -0.0534  0.3283 -0.1984
 7039TIP3    H145312   2.703   1.510  12.294  1.2904  1.3095  0.0990
 7039TIP3    H245313   2.805   1.411  12.346 -1.0680 -1.3958 -0.1413
 7040TIP3   OH245314   7.453   0.670  12.651 -0.4820  0.0010 -0.5323
 7040TIP3    H145315   7.421   0.711  12.732  0.3537 -0.1418 -0.1257
 7040TIP3    H245316   7.453   0.741  12.587 -0.9020  0.1744 -0.3429
 7041TIP3   OH245317   2.526   6.870  11.622 -0.0268  0.0044  0.0366
 7041TIP3    H145318   2.507   6.836  11.535 -1.6842  1.7446 -0.3570
 7041TIP3    H245319   2.470   6.819  11.680 -1.8686  1.3616 -0.4479
 7042TIP3   OH245320   7.598   0.456  10.652 -0.1132  0.0325  0.0835
 7042TIP3    H145321   7.630   0.532  10.604  0.6421  0.6092  1.4366
 7042TIP3    H245322   7.634   0.467  10.740 -0.9324 -1.3085  0.6101
 7043TIP3   OH245323   0.581   2.014  10.972  0.4880  0.2913 -0.1546
 7043TIP3    H145324   0.659   2.003  10.918  0.4135 -1.0671 -0.0375
 7043TIP3    H245325   0.511   1.971  10.922  0.0815  0.4332  0.2819
 7044TIP3   OH245326   1.908   7.134  11.277 -0.4118  0.7939 -0.3346
 7044TIP3    H145327   1.946   7.046  11.284  0.1612  1.0300 -0.3936
 7044TIP3    H245328   1.886   7.157  11.367 -2.1953 -0.0931 -0.4935
 7045TIP3   OH245329   3.940   0.567  13.118 -0.3194  0.0712 -0.6478
 7045TIP3    H145330   4.030   0.551  13.091  0.2685 -0.2813  1.3749
 7045TIP3    H245331   3.936   0.662  13.132  0.0883 -0.0445  0.3429
 7046TIP3   OH245332   2.173   5.679  11.905  0.2091 -0.3611  0.6175
 7046TIP3    H145333   2.095   5.681  11.850  0.2326  0.8530  0.6013
 7046TIP3    H245334   2.194   5.586  11.914 -1.6727 -0.7624  1.2759
 7047TIP3   OH245335   2.189   4.153  13.143 -0.1406  0.4418  0.1130
 7047TIP3    H145336   2.253   4.090  13.109  1.2963  0.9306  1.7355
 7047TIP3    H245337   2.112   4.101  13.164 -0.5968 -0.0694 -2.4942
 7048TIP3   OH245338   0.216   3.184  13.115  0.3140  0.3210  0.2072
 7048TIP3    H145339   0.190   3.268  13.153  0.9384  1.4460 -1.6662
 7048TIP3    H245340   0.134   3.136  13.102 -0.1779  1.1330  0.2561
 7049TIP3   OH245341   6.486   2.590  12.578  0.0925 -0.4509  0.1418
 7049TIP3    H145342   6.452   2.561  12.662 -0.6340  1.0414  0.3900
 7049TIP3    H245343   6.417   2.570  12.515  0.0133 -0.1848  0.1442
 7050TIP3   OH245344   5.063   2.217  11.409 -0.4455  0.0694 -0.7895
 7050TIP3    H145345   5.127   2.158  11.449 -2.5759 -2.6846 -1.2043
 7050TIP3    H245346   5.049   2.286  11.474  0.0696 -1.3973  0.9311
 7051TIP3   OH245347   5.918   3.274  13.403  0.0157  0.0669  0.0588
 7051TIP3    H145348   5.857   3.286  13.331  0.3222  0.2258 -0.1790
 7051TIP3    H245349   5.937   3.180  13.402 -0.7483 -0.1013  0.5734
 7052TIP3   OH245350   3.167   5.533  11.836 -0.0913 -0.2979  0.7859
 7052TIP3    H145351   3.234   5.473  11.803 -0.0874 -0.0081  0.2624
 7052TIP3    H245352   3.087   5.505  11.792 -0.7109 -1.7423  2.6578
 7053TIP3   OH245353   4.205   3.269  12.279 -0.7775 -0.2951  0.3928
 7053TIP3    H145354   4.221   3.353  12.235 -1.5021 -0.7531 -0.7927
 7053TIP3    H245355   4.184   3.209  12.208  0.7146 -1.7481  1.1126
 7054TIP3   OH245356   0.528   6.399  11.801 -0.0808 -0.2072  0.0366
 7054TIP3    H145357   0.620   6.382  11.824 -0.0530 -1.7911 -1.0705
 7054TIP3    H245358   0.481   6.390  11.884  0.4792 -1.8053  0.2091
 7055TIP3   OH245359   7.623   0.897  10.614 -0.0491 -0.2271  0.2768
 7055TIP3    H145360   7.585   0.883  10.701 -0.6654  0.3619  0.1104
 7055TIP3    H245361   7.599   0.819  10.565  1.3379 -1.1404  0.9648
 7056TIP3   OH245362   6.133   6.348  11.625  0.2037 -0.0222 -0.0492
 7056TIP3    H145363   6.226   6.360  11.607  0.5072 -2.3457 -0.3080
 7056TIP3    H245364   6.128   6.339  11.721  0.3514 -0.5642 -0.0888
 7057TIP3   OH245365   2.579   3.618  11.203 -0.2006  0.1358  0.5515
 7057TIP3    H145366   2.552   3.576  11.284  1.3292  0.0722  1.0519
 7057TIP3    H245367   2.652   3.674  11.228 -0.6806  1.2973 -0.5205
 7058TIP3   OH245368   7.663   5.885  13.575  0.2635 -0.1077 -0.0294
 7058TIP3    H145369   7.743   5.857  13.620  0.8858  0.8387 -0.5122
 7058TIP3    H245370   7.669   5.980  13.574 -0.8981 -0.0272 -0.0392
 7059TIP3   OH245371   7.160   0.331  11.675 -0.3243  0.4595  0.6459
 7059TIP3    H145372   7.152   0.321  11.581 -0.5027  1.9479  0.4777
 7059TIP3    H245373   7.194   0.247  11.706 -1.9113 -0.6544 -0.5048
 7060TIP3   OH245374   2.756   3.145  11.270 -0.1041 -0.7900 -0.3900
 7060TIP3    H145375   2.724   3.178  11.186 -2.2158 -1.4664  0.0917
 7060TIP3    H245376   2.797   3.221  11.311 -2.0010  0.4723 -0.6650
 7061TIP3   OH245377   7.032   2.377  12.919 -0.2351  0.1200  0.2658
 7061TIP3    H145378   7.079   2.296  12.938  1.0058  0.7886  0.1158
 7061TIP3    H245379   7.056   2.436  12.990 -0.4358  0.6538 -0.1050
 7062TIP3   OH245380   2.098   3.933  10.839 -0.2472 -0.2668  0.5651
 7062TIP3    H145381   2.019   3.984  10.860 -0.4995  0.0794 -1.0599
 7062TIP3    H245382   2.170   3.990  10.865 -0.5287  0.9660 -1.1536
 7063TIP3   OH245383   5.007   4.921  10.640  0.0029 -0.0603  0.2762
 7063TIP3    H145384   5.026   5.013  10.657  0.2456  0.2848 -1.5824
 7063TIP3    H245385   5.093   4.879  10.633 -0.1010 -0.3654  0.7731
 7064TIP3   OH245386   3.875   2.687  12.896 -0.0514  0.0697  0.6921
 7064TIP3    H145387   3.791   2.733  12.883 -1.1901 -1.1218  3.2110
 7064TIP3    H245388   3.940   2.747  12.860 -1.6595  2.6460  1.7506
 7065TIP3   OH245389   3.635   0.867  10.849  0.7865 -0.1170 -0.7713
 7065TIP3    H145390   3.603   0.789  10.893  1.9013  0.0004  0.2891
 7065TIP3    H245391   3.578   0.937  10.879  0.5342 -0.3107 -0.7936
 7066TIP3   OH245392   4.102   6.009  10.856  0.4041  0.0811 -0.1307
 7066TIP3    H145393   4.039   6.035  10.924  2.0839  0.9069  1.1974
 7066TIP3    H245394   4.059   5.938  10.809 -1.6377  0.8349  0.5152
 7067TIP3   OH245395   5.399   5.945  13.389 -0.6279  0.1891  0.1094
 7067TIP3    H145396   5.307   5.919  13.387 -0.4657 -0.3616 -0.5206
 7067TIP3    H245397   5.447   5.867  13.416 -0.4256  0.7747  1.5528
 7068TIP3   OH245398   4.130   1.197  12.209 -0.0951 -0.0118  0.0311
 7068TIP3    H145399   4.211   1.220  12.254 -0.5154  0.2841  0.6596
 7068TIP3    H245400   4.069   1.172  12.280 -0.2729 -1.1337 -0.4918
 7069TIP3   OH245401   2.381   2.858  11.406 -0.6768 -0.0495  0.4993
 7069TIP3    H145402   2.312   2.863  11.472 -1.7449 -1.4572 -0.4381
 7069TIP3    H245403   2.405   2.949  11.389 -2.1932  0.4784  0.9977
 7070TIP3   OH245404   5.907   4.347  11.090  0.6531  0.1220  0.3570
 7070TIP3    H145405   5.944   4.373  11.006  2.0472 -0.5480  0.7242
 7070TIP3    H245406   5.921   4.252  11.094 -1.8292 -0.3245  0.2174
 7071TIP3   OH245407   6.346   1.610  12.514 -0.3066 -0.3419  0.1338
 7071TIP3    H145408   6.309   1.563  12.439  0.4805 -0.3503 -0.2672
 7071TIP3    H245409   6.338   1.702  12.491  2.7145 -0.3515 -1.4292
 7072TIP3   OH245410   1.831   5.509  11.343  0.4173  1.3353  0.1149
 7072TIP3    H145411   1.875   5.549  11.268  1.6610 -1.3029 -0.6839
 7072TIP3    H245412   1.756   5.462  11.305  0.0641  1.3786  0.7496
 7073TIP3   OH245413   4.306   4.395  11.327 -0.2911 -0.6497 -0.6026
 7073TIP3    H145414   4.261   4.332  11.383 -1.3218 -0.4862 -1.2099
 7073TIP3    H245415   4.240   4.420  11.262 -0.4947  2.3738  0.6263
 7074TIP3   OH245416   1.345   1.529  11.928  0.3476  0.5309  0.2697
 7074TIP3    H145417   1.439   1.528  11.911  0.3502  1.5926  0.2117
 7074TIP3    H245418   1.318   1.619  11.913 -0.8412  0.0583 -0.5589
 7075TIP3   OH245419   4.527   4.148  12.004 -0.4383 -0.4269  0.4778
 7075TIP3    H145420   4.488   4.233  12.027 -1.8223 -0.8719 -0.0998
 7075TIP3    H245421   4.513   4.140  11.909  0.7561 -0.7787  0.3198
 7076TIP3   OH245422   5.931   7.053  12.104 -0.0664 -0.0645 -0.0515
 7076TIP3    H145423   5.895   6.968  12.128 -0.1544  0.6946  2.8481
 7076TIP3    H245424   6.023   7.048  12.131  0.3668  0.2494 -1.3747
 7077TIP3   OH245425   6.007   3.203  11.320  0.4101 -0.1146  0.1175
 7077TIP3    H145426   5.929   3.243  11.360  0.1808  1.0545 -1.3711
 7077TIP3    H245427   5.993   3.109  11.329 -0.8139  0.0824  0.5676
 7078TIP3   OH245428   1.717   5.724  10.496  1.2935 -0.3272 -0.1909
 7078TIP3    H145429   1.722   5.798  10.557  0.2342  1.0077 -1.6321
 7078TIP3    H245430   1.734   5.647  10.550  2.4994  0.9589  1.3619
 7079TIP3   OH245431   6.925   2.202  13.285  0.3658 -0.3149  0.1856
 7079TIP3    H145432   6.846   2.155  13.259  0.0800  0.1536  0.1884
 7079TIP3    H245433   6.918   2.287  13.241 -0.5024  0.8040  2.3183
 7080TIP3   OH245434   1.525   6.924  11.948 -0.6593  0.4850 -0.0508
 7080TIP3    H145435   1.590   6.993  11.960  0.3334 -0.0757 -1.8332
 7080TIP3    H245436   1.462   6.960  11.885 -1.0116  0.3222  0.1993
 7081TIP3   OH245437   1.608   1.768  12.195 -0.2126 -0.1257 -1.0928
 7081TIP3    H145438   1.634   1.835  12.258 -0.2422 -0.8875 -0.2394
 7081TIP3    H245439   1.528   1.802  12.155 -1.2759 -0.4248  0.6629
 7082TIP3   OH245440   0.831   0.197  12.639 -0.3469  0.8450 -0.2046
 7082TIP3    H145441   0.841   0.137  12.564 -1.0949  0.5047 -0.0383
 7082TIP3    H245442   0.921   0.222  12.661 -0.1170  1.1287 -1.3539
 7083TIP3   OH245443   2.889   2.473  12.649 -0.5902  0.0856 -0.4472
 7083TIP3    H145444   2.943   2.521  12.586 -0.1035  0.1473  0.0158
 7083TIP3    H245445   2.929   2.386  12.652 -1.9281 -0.6370 -1.8746
 7084TIP3   OH245446   5.997   2.101  12.738 -0.5596 -0.0843  0.6765
 7084TIP3    H145447   5.936   2.053  12.682  0.7797  0.7520 -1.6557
 7084TIP3    H245448   5.947   2.177  12.767 -1.2139 -0.3946  0.4078
 7085TIP3   OH245449   0.327   2.120  10.428  0.3385  0.7611  0.1140
 7085TIP3    H145450   0.264   2.078  10.487  1.1410 -1.7491 -0.7037
 7085TIP3    H245451   0.297   2.096  10.340  0.9290  1.8167 -0.3948
 7086TIP3   OH245452   2.815   2.879  12.911  0.1777 -0.8076 -0.0391
 7086TIP3    H145453   2.865   2.907  12.835 -0.0247 -0.9544 -0.2268
 7086TIP3    H245454   2.801   2.785  12.898 -1.3149 -0.5220 -0.6777
 7087TIP3   OH245455   2.890   1.551  11.441  0.1064  0.0775 -0.5405
 7087TIP3    H145456   2.838   1.475  11.415 -0.0030 -0.7045  1.7685
 7087TIP3    H245457   2.941   1.521  11.516  1.6709  1.6920 -0.8993
 7088TIP3   OH245458   1.504   0.466  12.489 -0.1109 -0.1010  0.2014
 7088TIP3    H145459   1.533   0.379  12.515  0.0125  0.2115  1.1684
 7088TIP3    H245460   1.578   0.504  12.443 -0.5646 -0.9145 -1.2448
 7089TIP3   OH245461   3.486   4.889  12.505 -0.2402  0.9796 -0.2061
 7089TIP3    H145462   3.394   4.907  12.526  0.2368  2.2694  0.9209
 7089TIP3    H245463   3.532   4.895  12.588  0.6251 -1.7401 -0.3867
 7090TIP3   OH245464   1.672   4.056  13.134 -0.0794  0.6247 -0.2459
 7090TIP3    H145465   1.618   4.015  13.067 -1.2227  0.0166  1.0127
 7090TIP3    H245466   1.618   4.128  13.169  0.7440  1.3373 -0.3918
 7091TIP3   OH245467   3.934   1.291  12.032 -0.1247 -0.1796 -0.0489
 7091TIP3    H145468   3.985   1.292  11.950  1.3518  1.4573  0.8284
 7091TIP3    H245469   4.000   1.287  12.101 -1.3515 -1.5612  1.1162
 7092TIP3   OH245470   5.215   2.721  11.673 -0.1058  0.3599 -0.2153
 7092TIP3    H145471   5.265   2.644  11.648 -0.7584  0.1351 -0.8592
 7092TIP3    H245472   5.216   2.777  11.596 -0.8853  0.3218 -0.2682
 7093TIP3   OH245473   0.877   5.831  11.275 -0.3119  0.3137 -0.5072
 7093TIP3    H145474   0.904   5.909  11.225 -0.5912  1.4719  1.0698
 7093TIP3    H245475   0.956   5.779  11.282  0.8127  2.1084  1.2776
 7094TIP3   OH245476   4.042   2.043  10.443  0.0901  0.0687  0.3192
 7094TIP3    H145477   4.047   2.051  10.348  0.1144 -0.7770  0.2493
 7094TIP3    H245478   4.037   2.134  10.474 -3.1294  0.3124 -0.6231
 7095TIP3   OH245479   5.149   0.289  10.739 -0.4183  0.2444 -0.3461
 7095TIP3    H145480   5.213   0.272  10.808 -0.6433  0.3650 -0.1074
 7095TIP3    H245481   5.082   0.221  10.750 -1.2251  1.1441  0.4986
 7096TIP3   OH245482   6.374   4.905  11.052  0.4655  0.3125 -0.2673
 7096TIP3    H145483   6.311   4.857  10.998 -0.6492 -0.4052  1.5847
 7096TIP3    H245484   6.423   4.837  11.099  1.3184  0.9222 -0.2453
 7097TIP3   OH245485   1.667   7.535  12.054  0.1191 -0.1399  0.7166
 7097TIP3    H145486   1.720   7.474  12.004  0.1060 -0.1583  0.7254
 7097TIP3    H245487   1.703   7.621  12.031  0.6582 -0.1976  1.3123
 7098TIP3   OH245488   7.467   3.420  11.116  0.1484  0.4743  0.3953
 7098TIP3    H145489   7.424   3.337  11.094  2.0517 -0.1923 -1.1118
 7098TIP3    H245490   7.484   3.462  11.032  1.5405  1.1463  0.9661
 7099TIP3   OH245491   1.402   6.402  10.536 -0.8471 -0.0817 -0.2635
 7099TIP3    H145492   1.466   6.454  10.585  1.0103 -2.8477  0.5133
 7099TIP3    H245493   1.317   6.436  10.565  0.2323  0.9763  1.9650
 7100TIP3   OH245494   2.336   4.342  12.030 -0.9834  0.5389  0.3036
 7100TIP3    H145495   2.306   4.373  11.945 -1.2029  0.6879  0.4348
 7100TIP3    H245496   2.326   4.418  12.088  0.2589  0.8082  0.2091
 7101TIP3   OH245497   7.037   4.790  12.422  0.0119 -0.1791  0.3902
 7101TIP3    H145498   7.118   4.824  12.460 -0.2995 -0.4917  1.3773
 7101TIP3    H245499   6.982   4.770  12.498 -0.6174 -0.8862 -0.2376
 7102TIP3   OH245500   2.578   0.192  10.574  0.0864 -0.0611 -0.0317
 7102TIP3    H145501   2.610   0.277  10.605  0.1971 -0.0421 -0.1925
 7102TIP3    H245502   2.626   0.178  10.492 -0.8476  0.3033 -0.6498
 7103TIP3   OH245503   3.219   1.015  11.232  0.2727 -0.0406 -0.2915
 7103TIP3    H145504   3.229   0.926  11.197 -2.3742 -0.7666  0.5757
 7103TIP3    H245505   3.235   1.005  11.326 -0.1049  0.3787 -0.1818
 7104TIP3   OH245506   4.686   6.956  12.631 -0.6065 -0.2929 -0.1827
 7104TIP3    H145507   4.718   6.878  12.675  1.9464  0.6485 -0.2092
 7104TIP3    H245508   4.685   7.023  12.699  3.9627  1.3389 -1.3613
 7105TIP3   OH245509   1.970   6.661  10.639 -0.1089  0.6714  0.3128
 7105TIP3    H145510   2.043   6.626  10.590  0.6723  0.1636  1.7878
 7105TIP3    H245511   1.913   6.701  10.573  1.4802  1.0729 -0.8581
 7106TIP3   OH245512   1.872   3.739  12.396 -0.0996 -1.2779  0.1298
 7106TIP3    H145513   1.897   3.741  12.488 -0.6496 -0.5613  0.2775
 7106TIP3    H245514   1.778   3.717  12.397 -0.4108 -0.0123 -0.1840
 7107TIP3   OH245515   4.901   6.155  11.818  0.1340  0.2643 -0.4334
 7107TIP3    H145516   4.844   6.145  11.742  1.3283 -0.8273 -1.2283
 7107TIP3    H245517   4.990   6.153  11.781  0.7181  0.5911  0.9047
 7108TIP3   OH245518   0.222   6.129  12.617 -0.3557  0.1964  0.0529
 7108TIP3    H145519   0.153   6.071  12.586  0.8048 -0.9920 -0.3892
 7108TIP3    H245520   0.257   6.086  12.695  0.4627  0.3313 -0.2298
 7109TIP3   OH245521   0.386   1.524  10.671  0.2385 -0.5169 -0.3994
 7109TIP3    H145522   0.322   1.565  10.613  0.3321  1.6166  0.8905
 7109TIP3    H245523   0.337   1.460  10.721 -0.6049  0.1455 -0.3659
 7110TIP3   OH245524   6.843   4.076  11.656 -0.1447  0.1163  0.1915
 7110TIP3    H145525   6.750   4.093  11.639 -0.0462 -0.0042 -0.4868
 7110TIP3    H245526   6.862   4.127  11.735  0.0091  2.7838 -1.4574
 7111TIP3   OH245527   5.656   0.219  11.548  0.4496  0.2719 -0.2368
 7111TIP3    H145528   5.729   0.260  11.595  0.0852 -1.0972  1.6654
 7111TIP3    H245529   5.579   0.268  11.575  0.1628 -0.8698  1.1416
 7112TIP3   OH245530   6.647   4.906  13.147  0.4665 -0.1274  0.0693
 7112TIP3    H145531   6.589   4.829  13.137  1.8440 -1.1203 -0.6000
 7112TIP3    H245532   6.587   4.981  13.144 -0.9759 -1.1637  1.1328
 7113TIP3   OH245533   5.378   5.816  10.723 -0.4378 -0.0606 -0.0570
 7113TIP3    H145534   5.377   5.885  10.790  2.7320 -0.7020  0.8234
 7113TIP3    H245535   5.377   5.734  10.773  0.6993 -0.5512 -0.7854
 7114TIP3   OH245536   5.537   5.972  12.214 -0.0892 -0.3011 -0.0944
 7114TIP3    H145537   5.586   6.043  12.172  1.0539 -0.6993  0.5255
 7114TIP3    H245538   5.525   5.907  12.144 -1.0553  0.4486 -0.6384
 7115TIP3   OH245539   4.671   1.113  11.626 -0.7748  0.1435  0.0971
 7115TIP3    H145540   4.629   1.037  11.667 -0.4646 -0.1789 -0.1689
 7115TIP3    H245541   4.616   1.187  11.650 -0.0537  0.1289  1.9716
 7116TIP3   OH245542   7.350   0.816  11.431 -0.0382  0.0233  0.3470
 7116TIP3    H145543   7.366   0.729  11.467  1.3945 -0.7018 -1.8056
 7116TIP3    H245544   7.437   0.849  11.409 -0.7274  0.7785 -1.4700
 7117TIP3   OH245545   0.492   0.776  12.447  0.6764 -0.0137  0.1774
 7117TIP3    H145546   0.410   0.805  12.486  0.2349 -1.5620  0.4878
 7117TIP3    H245547   0.547   0.752  12.521  0.2747 -1.8245 -0.0474
 7118TIP3   OH245548   4.235   1.506  11.634  0.7723 -0.1715  0.4124
 7118TIP3    H145549   4.315   1.533  11.679  2.0429 -0.2056 -1.7060
 7118TIP3    H245550   4.168   1.567  11.666  2.5143  2.4930 -0.6758
 7119TIP3   OH245551   3.699   1.604  11.572 -0.0735 -0.6334  0.3697
 7119TIP3    H145552   3.746   1.586  11.654 -0.7913 -3.0640  0.3065
 7119TIP3    H245553   3.750   1.561  11.504 -0.3367  0.0165 -0.2580
 7120TIP3   OH245554   4.863   1.813  11.872  0.3461  0.7694 -0.6741
 7120TIP3    H145555   4.951   1.800  11.907  0.6321  1.1484 -1.2369
 7120TIP3    H245556   4.872   1.886  11.811 -0.3085  0.6457 -0.9273
 7121TIP3   OH245557   4.100   1.299  11.814  0.2399 -0.5984  0.1856
 7121TIP3    H145558   4.132   1.370  11.759 -0.6312  0.6276  1.1925
 7121TIP3    H245559   4.178   1.263  11.855  0.6309  0.2238  0.1768
 7122TIP3   OH245560   0.640   6.044  12.679 -0.4947  0.4914  0.0148
 7122TIP3    H145561   0.598   6.086  12.754 -1.1412  1.1216 -0.6922
 7122TIP3    H245562   0.636   5.950  12.699 -2.7206  0.4714 -0.2628
 7123TIP3   OH245563   3.915   0.808  10.912  0.2859  0.0527 -0.4249
 7123TIP3    H145564   3.928   0.737  10.975 -1.7565  0.1578  0.1685
 7123TIP3    H245565   3.822   0.806  10.892  0.8092  0.1725 -3.3201
 7124TIP3   OH245566   5.371   1.997  12.625  0.1825 -0.3479 -0.1180
 7124TIP3    H145567   5.352   1.977  12.717 -1.0965 -0.0726 -0.3010
 7124TIP3    H245568   5.466   1.988  12.618  0.3467 -0.0890  1.3014
 7125TIP3   OH245569   4.740   5.497  10.519 -0.2428  0.3534 -0.1576
 7125TIP3    H145570   4.830   5.519  10.544 -0.2679  1.9717 -1.3176
 7125TIP3    H245571   4.724   5.549  10.440 -2.2002  0.0869  0.0108
 7126TIP3   OH245572   6.270   6.274  12.264 -0.5950  0.7273 -0.1211
 7126TIP3    H145573   6.268   6.216  12.340  3.2261  0.7350  0.1824
 7126TIP3    H245574   6.279   6.216  12.189 -1.8634  0.7990 -0.3378
 7127TIP3   OH245575   4.799   0.640  11.022 -0.6888  0.0259 -0.0420
 7127TIP3    H145576   4.770   0.724  11.056 -2.9365 -1.0779  1.0234
 7127TIP3    H245577   4.727   0.580  11.042  0.3733 -1.9397 -1.6985
 7128TIP3   OH245578   2.081   7.575  11.944 -0.0039 -0.0058 -0.0621
 7128TIP3    H145579   2.055   7.662  11.915 -2.9663 -0.1206  1.7753
 7128TIP3    H245580   2.089   7.583  12.039 -0.8386 -1.7931  0.2057
 7129TIP3   OH245581   1.505   5.461  10.523  0.3573  0.4196 -0.1897
 7129TIP3    H145582   1.409   5.467  10.515  0.4227  0.3716 -1.1277
 7129TIP3    H245583   1.526   5.513  10.600 -0.4582  0.1562  0.2283
 7130TIP3   OH245584   2.865   6.655  11.344  0.1067 -0.1714 -0.4456
 7130TIP3    H145585   2.928   6.629  11.412 -0.0493 -1.2485 -0.6927
 7130TIP3    H245586   2.825   6.735  11.378  0.2089 -0.5565  0.6264
 7131TIP3   OH245587   1.678   0.931  12.216 -0.0723 -0.6938  0.5084
 7131TIP3    H145588   1.763   0.940  12.173  0.5666 -1.6004  1.4978
 7131TIP3    H245589   1.636   0.857  12.172 -0.0725 -0.6443  0.4267
 7132TIP3   OH245590   6.751   4.005  12.063  0.2066 -0.2627  0.3823
 7132TIP3    H145591   6.820   4.051  12.109  2.0954 -1.7726 -0.7980
 7132TIP3    H245592   6.680   4.068  12.056  1.8451  1.7044  0.7165
 7133TIP3   OH245593   5.706   4.474  12.223  0.3985  0.1168 -0.7509
 7133TIP3    H145594   5.790   4.427  12.224  1.0070  1.1673 -0.9131
 7133TIP3    H245595   5.725   4.558  12.265 -0.7809  0.0411 -0.0273
 7134TIP3   OH245596   5.722   5.495  12.622 -0.0398 -0.2628 -0.1886
 7134TIP3    H145597   5.729   5.587  12.597 -0.2553 -0.4305 -0.9028
 7134TIP3    H245598   5.687   5.496  12.711 -2.0238  0.3078 -0.9381
 7135TIP3   OH245599   7.639   1.210  12.448 -0.3818 -0.7751 -0.1188
 7135TIP3    H145600   7.733   1.216  12.465 -0.6967  2.0391  0.9717
 7135TIP3    H245601   7.634   1.194  12.353  1.1920  0.3025 -0.4278
 7136TIP3   OH245602   0.830   6.452  12.252 -0.1446  0.1109 -0.0312
 7136TIP3    H145603   0.918   6.418  12.269 -0.1215 -1.0099 -2.0885
 7136TIP3    H245604   0.840   6.547  12.248  0.9775 -0.0070 -0.2400
 7137TIP3   OH245605   0.635   2.308  10.696 -0.1842 -0.2111 -0.3489
 7137TIP3    H145606   0.610   2.399  10.709  2.2265  0.3326  1.2116
 7137TIP3    H245607   0.554   2.258  10.705 -1.3013  1.6503  0.2965
 7138TIP3   OH245608   6.011   2.866  12.491 -0.1263 -0.8752  0.0772
 7138TIP3    H145609   5.964   2.803  12.436  0.1564 -0.0588 -1.1317
 7138TIP3    H245610   6.056   2.923  12.429 -0.6524  0.7452  1.1280
 7139TIP3   OH245611   6.189   3.244  10.827 -0.2680 -0.2990  0.0363
 7139TIP3    H145612   6.233   3.197  10.756  0.8906  1.3039 -0.3741
 7139TIP3    H245613   6.162   3.176  10.888  0.9128 -1.5219 -0.7436
 7140TIP3   OH245614   2.296   2.677  12.409 -0.0091 -0.2742  0.8272
 7140TIP3    H145615   2.260   2.716  12.329  0.0181 -0.8334  0.5403
 7140TIP3    H245616   2.362   2.615  12.379 -0.1500 -0.6513  1.2731
 7141TIP3   OH245617   1.951   4.732  11.928 -0.8593 -0.2572  0.0796
 7141TIP3    H145618   2.005   4.730  11.849  2.2749 -1.6147  2.0823
 7141TIP3    H245619   1.906   4.648  11.928 -1.2273 -0.0661 -0.4559
 7142TIP3   OH245620   1.042   3.541  11.123 -0.0229  0.9427 -0.0791
 7142TIP3    H145621   1.018   3.461  11.168  0.7965 -0.7100 -2.3947
 7142TIP3    H245622   1.025   3.611  11.186 -0.8318 -1.0260  1.9825
 7143TIP3   OH245623   6.423   1.348  11.385 -0.2468  0.2903  0.1655
 7143TIP3    H145624   6.341   1.350  11.435 -0.2986  0.3235  0.0791
 7143TIP3    H245625   6.419   1.264  11.338  0.0075  0.0524  0.5636
 7144TIP3   OH245626   7.170   3.465  13.702 -0.5821  0.1119  0.2856
 7144TIP3    H145627   7.247   3.505  13.742 -0.5381 -0.6979  1.0426
 7144TIP3    H245628   7.124   3.537  13.660  0.5920  0.6146 -0.1956
 7145TIP3   OH245629   2.467   6.499  10.468 -0.0385 -0.3679  0.5804
 7145TIP3    H145630   2.532   6.439  10.433 -0.1129  0.8664 -1.8859
 7145TIP3    H245631   2.498   6.520  10.556  1.3749 -1.9442  0.4988
 7146TIP3   OH245632   4.589   7.467  13.025  0.6900  0.0273 -0.0341
 7146TIP3    H145633   4.607   7.555  12.992  0.8236  0.0621  0.1263
 7146TIP3    H245634   4.634   7.464  13.110 -2.1683  1.0599  1.7035
 7147TIP3   OH245635   5.987   2.599  11.632 -0.2622  0.0194  0.2664
 7147TIP3    H145636   6.068   2.583  11.583 -2.0935 -2.8561 -2.1753
 7147TIP3    H245637   5.936   2.657  11.576 -0.9858 -0.4476  0.4239
 7148TIP3   OH245638   1.271   7.453  11.061  0.3180 -0.1728 -0.1742
 7148TIP3    H145639   1.228   7.494  10.985  1.2153  2.7257  0.7530
 7148TIP3    H245640   1.238   7.502  11.136  2.1409 -0.5828  0.9528
 7149TIP3   OH245641   4.898   3.857  11.450  0.6004  0.3142  0.4063
 7149TIP3    H145642   4.833   3.902  11.395  0.7415 -0.1003 -0.1123
 7149TIP3    H245643   4.885   3.894  11.537 -1.2252 -0.6983  0.6102
 7150TIP3   OH245644   3.312   2.932  11.394 -0.2921  0.3844  0.8527
 7150TIP3    H145645   3.328   2.986  11.317  0.9006 -1.7188 -0.4541
 7150TIP3    H245646   3.257   2.987  11.451  0.5702  2.7982 -0.5161
 7151TIP3   OH245647   2.935   0.697  12.094 -0.2180  0.0805  0.4658
 7151TIP3    H145648   3.004   0.632  12.103 -0.0812 -0.0027 -0.8684
 7151TIP3    H245649   2.883   0.666  12.020 -0.7221  0.9816  0.4324
 7152TIP3   OH245650   7.084   2.145  11.629  0.3592  0.3217  0.1827
 7152TIP3    H145651   7.136   2.225  11.621 -0.9473  1.2611  0.6454
 7152TIP3    H245652   7.112   2.107  11.712  2.0751 -0.5584 -0.7470
 7153TIP3   OH245653   1.875   0.824  13.008 -0.0874 -0.0277  0.3000
 7153TIP3    H145654   1.953   0.878  12.996  0.9102 -1.1834  1.3799
 7153TIP3    H245655   1.802   0.887  13.008  0.7138  0.9864 -1.6392
 7154TIP3   OH245656   7.322   3.662  12.536  0.2099  0.3913 -0.4661
 7154TIP3    H145657   7.238   3.648  12.492  0.0409  2.4240 -0.8916
 7154TIP3    H245658   7.326   3.594  12.603 -1.1426 -0.5744 -1.3170
 7155TIP3   OH245659   0.402   2.654  10.961 -0.4631 -0.1414 -0.3034
 7155TIP3    H145660   0.406   2.617  11.049 -0.0681  0.0416 -0.2426
 7155TIP3    H245661   0.368   2.743  10.973  3.0254  1.3056  0.1387
 7156TIP3   OH245662   6.523   5.042  12.338 -0.1947  0.4703 -0.0277
 7156TIP3    H145663   6.581   4.967  12.347 -1.7417 -0.7642  0.1359
 7156TIP3    H245664   6.547   5.081  12.254  1.1927  0.3112  0.2730
 7157TIP3   OH245665   5.098   1.462  12.303  0.6523  0.4041  0.1808
 7157TIP3    H145666   5.041   1.534  12.278  0.6734 -0.0297 -1.1904
 7157TIP3    H245667   5.104   1.468  12.399 -0.4234  1.3882  0.2035
 7158TIP3   OH245668   2.436   4.901  13.391  0.5475 -0.5742 -0.2969
 7158TIP3    H145669   2.423   4.806  13.382  0.0153 -0.4234 -1.1551
 7158TIP3    H245670   2.489   4.925  13.315  0.2351 -0.1005 -0.3676
 7159TIP3   OH245671   4.751   4.370  12.022 -0.1830  0.0481 -0.7621
 7159TIP3    H145672   4.731   4.333  11.936  0.9551  1.7209 -1.8069
 7159TIP3    H245673   4.840   4.406  12.012  0.0755  0.0363  1.1980
 7160TIP3   OH245674   7.307   6.967  10.416 -0.1742  0.3575 -0.3749
 7160TIP3    H145675   7.282   7.038  10.475 -0.4885 -1.5437  1.9165
 7160TIP3    H245676   7.230   6.953  10.361 -1.0795  0.1534  0.8898
 7161TIP3   OH245677   0.336   6.032  12.276  0.4202  0.2852  0.3615
 7161TIP3    H145678   0.260   6.049  12.221  0.3161 -0.1429  0.3749
 7161TIP3    H245679   0.305   5.968  12.340  0.6750  0.4229  0.6232
 7162TIP3   OH245680   4.013   2.646  12.236 -0.0658 -0.1404 -0.3465
 7162TIP3    H145681   4.048   2.660  12.324 -1.0602  1.5209 -0.1653
 7162TIP3    H245682   4.066   2.703  12.180  0.6557 -1.2961 -0.8762
 7163TIP3   OH245683   2.067   6.080  12.543 -0.8004  0.3852  0.2999
 7163TIP3    H145684   2.154   6.043  12.532 -1.9261 -2.0819 -1.0033
 7163TIP3    H245685   2.054   6.135  12.465 -0.7435  0.0730  0.0714
 7164TIP3   OH245686   6.765   3.185  10.560  0.6463 -0.7942  0.8182
 7164TIP3    H145687   6.853   3.171  10.524 -0.9504 -0.5305 -3.9645
 7164TIP3    H245688   6.759   3.280  10.571  0.5180 -0.6464 -0.3876
 7165TIP3   OH245689   5.882   5.972  11.165  0.0134  0.2598  0.3274
 7165TIP3    H145690   5.804   5.955  11.113  0.1709 -1.2475  0.5287
 7165TIP3    H245691   5.861   5.939  11.252  0.9705 -0.4754  0.3014
 7166TIP3   OH245692   1.527   6.498  13.015  0.0312  0.6806  0.0192
 7166TIP3    H145693   1.487   6.412  13.007 -0.1046  0.7772 -0.3630
 7166TIP3    H245694   1.465   6.558  12.974 -0.7245  1.2260  1.8417
 7167TIP3   OH245695   5.072   6.047  11.216 -0.0097 -0.3054 -0.3899
 7167TIP3    H145696   5.078   6.004  11.302 -1.6228 -2.2371 -1.1660
 7167TIP3    H245697   4.985   6.086  11.216  0.3886  0.5914 -0.7751
 7168TIP3   OH245698   0.867   1.296  12.004 -0.2408 -0.7032  0.2365
 7168TIP3    H145699   0.780   1.314  12.040 -0.4860 -2.5445  0.6400
 7168TIP3    H245700   0.853   1.226  11.941  0.9096 -0.8096  0.0840
 7169TIP3   OH245701   6.059   0.066  11.355  0.4968  0.1570  0.6187
 7169TIP3    H145702   5.995   0.108  11.298  2.4464  1.4939 -0.7337
 7169TIP3    H245703   6.010  -0.000  11.403 -1.4507 -0.3342 -1.8797
 7170TIP3   OH245704   6.186   6.081  12.067  0.5130  0.2651  0.2086
 7170TIP3    H145705   6.202   6.009  12.128 -1.4866  0.7196  1.3635
 7170TIP3    H245706   6.151   6.039  11.989  0.0183 -0.0908  0.6121
 7171TIP3   OH245707   6.185   1.503  12.295  0.4487 -0.5518 -0.4413
 7171TIP3    H145708   6.232   1.463  12.222 -0.7527 -1.1258 -0.9072
 7171TIP3    H245709   6.125   1.565  12.254 -0.4738 -1.1209  0.0200
 7172TIP3   OH245710   3.063   0.130  11.260 -0.0609  0.1908 -0.3756
 7172TIP3    H145711   3.013   0.049  11.269 -0.7799  0.5189 -1.3041
 7172TIP3    H245712   3.090   0.132  11.169  0.1771  0.8713 -0.3004
 7173TIP3   OH245713   6.193   1.324  11.544  0.2716  0.2772  0.1839
 7173TIP3    H145714   6.141   1.397  11.575  0.9754  0.7246  0.3368
 7173TIP3    H245715   6.133   1.249  11.546 -0.4117  0.8141  0.1555
 7174TIP3   OH245716   1.888   6.418  11.316  0.1979  0.7483  0.0504
 7174TIP3    H145717   1.852   6.354  11.376  1.0215 -2.6101 -2.7072
 7174TIP3    H245718   1.982   6.418  11.334  0.3099  0.5105 -0.5018
 7175TIP3   OH245719   1.460   0.339  13.005 -0.3419  0.1242  0.2887
 7175TIP3    H145720   1.486   0.374  13.090  2.9972 -2.2455  0.4342
 7175TIP3    H245721   1.484   0.408  12.943  2.2471 -0.1398  0.8968
 7176TIP3   OH245722   6.998   1.771  12.376 -0.0027  0.0850 -0.6033
 7176TIP3    H145723   6.953   1.687  12.371 -1.5223  0.8682 -0.6061
 7176TIP3    H245724   7.032   1.775  12.465 -0.3183 -0.3364 -0.4627
 7177TIP3   OH245725   3.279   5.558  12.612  0.0766  0.1214 -0.4924
 7177TIP3    H145726   3.233   5.642  12.610  0.6783  0.4916  0.6555
 7177TIP3    H245727   3.215   5.496  12.648 -0.7008 -0.1567 -2.2535
 7178TIP3   OH245728   6.854   2.722  13.001 -0.3204  0.5122 -0.3120
 7178TIP3    H145729   6.761   2.723  12.977 -0.1137  1.5447 -1.2246
 7178TIP3    H245730   6.899   2.716  12.917  0.4573  4.1025 -0.3044
 7179TIP3   OH245731   5.259   4.967  12.296 -0.6550 -0.0748 -0.2948
 7179TIP3    H145732   5.329   4.982  12.359 -0.8352 -0.0333 -0.1057
 7179TIP3    H245733   5.183   4.946  12.349  0.1372 -4.3273 -0.5487
 7180TIP3   OH245734   1.803   6.772  12.685  0.1890 -0.2088  0.3159
 7180TIP3    H145735   1.895   6.746  12.690  0.4733  0.5760 -0.5317
 7180TIP3    H245736   1.792   6.837  12.755  0.3015 -0.2442  0.3654
 7181TIP3   OH245737   1.655   1.320  12.120  0.2645  0.1971 -0.0219
 7181TIP3    H145738   1.563   1.294  12.122  0.1014  0.7915  0.4186
 7181TIP3    H245739   1.702   1.240  12.100 -0.3655 -0.0774 -0.4106
 7182TIP3   OH245740   0.188   2.444  12.442  0.6946 -0.6222  0.0641
 7182TIP3    H145741   0.110   2.399  12.410  1.0718  0.2083 -2.2688
 7182TIP3    H245742   0.204   2.512  12.377  2.2747  0.4635  1.5147
 7183TIP3   OH245743   4.281   4.987  12.856 -0.4677 -0.2253 -0.3344
 7183TIP3    H145744   4.196   4.943  12.862  0.3400 -2.0444 -1.2521
 7183TIP3    H245745   4.345   4.919  12.880  0.7002  1.4152  1.4989
 7184TIP3   OH245746   5.249   3.766  12.585 -0.0187 -0.5662 -0.2054
 7184TIP3    H145747   5.220   3.699  12.524 -1.3477 -0.5233  0.3382
 7184TIP3    H245748   5.181   3.832  12.583 -1.5189 -1.7467  3.1521
 7185TIP3   OH245749   0.543   1.765  12.718 -0.3364  0.0306  0.2775
 7185TIP3    H145750   0.553   1.785  12.811  2.5696  1.2103 -0.1827
 7185TIP3    H245751   0.461   1.808  12.693  0.0862  1.8586  1.7835
 7186TIP3   OH245752   1.113   2.273  13.231 -0.7664 -0.1523  0.1622
 7186TIP3    H145753   1.024   2.300  13.251 -0.2313 -0.1244  2.9228
 7186TIP3    H245754   1.121   2.185  13.267  0.7015  0.4088  1.3036
 7187TIP3   OH245755   4.960   6.585  10.952 -0.0137  0.2792  0.4015
 7187TIP3    H145756   4.876   6.583  10.998  1.0170 -1.3016  2.3946
 7187TIP3    H245757   5.015   6.641  11.007  0.3415  1.0792 -0.7433
 7188TIP3   OH245758   7.060   0.426  12.389  0.1431 -0.0116  0.4707
 7188TIP3    H145759   7.133   0.372  12.357  0.6079  1.7851 -1.7840
 7188TIP3    H245760   7.103   0.503  12.427 -0.5659  0.5086  0.2246
 7189TIP3   OH245761   7.615   1.697  10.614 -0.0497 -0.4174 -0.4770
 7189TIP3    H145762   7.652   1.632  10.554  1.9562 -0.0554  0.2812
 7189TIP3    H245763   7.625   1.780  10.567  1.6183 -0.1204  0.3200
 7190TIP3   OH245764   5.672   4.403  12.503 -0.1922  0.1224 -0.1766
 7190TIP3    H145765   5.596   4.389  12.561  0.1720  1.3714  0.6539
 7190TIP3    H245766   5.641   4.469  12.440  0.4057  1.2145  0.6366
 7191TIP3   OH245767   7.142   5.189  12.720 -0.2470  0.5014  0.5938
 7191TIP3    H145768   7.133   5.094  12.719  2.0669  0.2008 -1.3951
 7191TIP3    H245769   7.213   5.207  12.781 -1.4183  1.1010  1.8282
 7192TIP3   OH245770   5.494   2.507  11.872 -0.6348  0.6163 -0.4468
 7192TIP3    H145771   5.573   2.475  11.828 -0.4491  2.0774 -1.2084
 7192TIP3    H245772   5.433   2.527  11.800 -0.9956  1.3081  0.0490
 7193TIP3   OH245773   3.556   7.043  11.842  0.2214 -0.3184 -0.3643
 7193TIP3    H145774   3.625   7.099  11.879  0.6884 -2.7127  2.8504
 7193TIP3    H245775   3.477   7.097  11.844  1.6470  2.1772 -3.2608
 7194TIP3   OH245776   6.228   6.881  10.584  0.1432 -0.1196 -0.2190
 7194TIP3    H145777   6.266   6.795  10.600 -0.0260  0.0069  0.8955
 7194TIP3    H245778   6.293   6.943  10.617 -1.2748  0.0829  2.4476
 7195TIP3   OH245779   0.480   4.221  12.525  0.5080  0.1782  0.3100
 7195TIP3    H145780   0.527   4.279  12.586  0.9545  0.2079 -0.0580
 7195TIP3    H245781   0.527   4.138  12.530 -0.0432 -0.1164  0.7267
 7196TIP3   OH245782   4.798   1.921  11.138  0.1346 -0.2505  0.1857
 7196TIP3    H145783   4.787   2.014  11.117 -0.4071 -0.2473  0.4725
 7196TIP3    H245784   4.830   1.921  11.228  2.1343 -0.2759 -0.4605
 7197TIP3   OH245785   5.153   5.200  12.527 -1.0590  0.2956  0.4289
 7197TIP3    H145786   5.094   5.162  12.462  0.5555 -2.3691  0.3607
 7197TIP3    H245787   5.205   5.263  12.478  0.4831 -2.0421 -1.1246
 7198TIP3   OH245788   5.931   2.516  13.642  0.2319 -0.3812 -0.1395
 7198TIP3    H145789   5.859   2.532  13.703  1.3965  1.6018  0.8299
 7198TIP3    H245790   5.994   2.465  13.693  0.6290  0.1338 -0.1075
 7199TIP3   OH245791   0.452   2.571  11.904  0.4206 -0.2262 -0.1810
 7199TIP3    H145792   0.424   2.515  11.977 -0.8885  0.8974  0.2021
 7199TIP3    H245793   0.484   2.651  11.946 -0.9368  0.6904 -0.8238
 7200TIP3   OH245794   5.153   4.767  11.655  0.8329 -0.5423  0.1594
 7200TIP3    H145795   5.224   4.806  11.706  0.2287  1.9786 -0.7874
 7200TIP3    H245796   5.160   4.673  11.672  2.5075 -0.0899  2.4446
 7201TIP3   OH245797   5.941   1.347  11.008  0.0283  0.2290  0.5494
 7201TIP3    H145798   5.866   1.366  11.065  1.3774  1.6628  1.9436
 7201TIP3    H245799   6.017   1.377  11.058  1.6258 -1.7723 -0.5432
 7202TIP3   OH245800   6.745   3.164  12.308 -0.4666 -0.2348 -0.4066
 7202TIP3    H145801   6.650   3.154  12.298 -0.3316 -2.1715 -0.2381
 7202TIP3    H245802   6.756   3.215  12.388 -1.3689 -1.2020  0.3561
 7203TIP3   OH245803   5.148   6.598  12.221 -0.1251 -0.3953  0.0019
 7203TIP3    H145804   5.066   6.632  12.186  0.9506  0.7127 -1.6068
 7203TIP3    H245805   5.169   6.656  12.294 -1.1988 -1.2602  1.0386
 7204TIP3   OH245806   7.658   3.044  13.129 -0.1359 -0.1539 -0.3491
 7204TIP3    H145807   7.624   3.035  13.218 -0.8210 -0.0562 -0.5969
 7204TIP3    H245808   7.680   2.955  13.103  2.2934  0.0296  0.7548
 7205TIP3   OH245809   0.055   6.646  11.831  0.4567  0.4547  0.2848
 7205TIP3    H145810  -0.040   6.642  11.821  0.2810 -1.8389  2.1711
 7205TIP3    H245811   0.086   6.677  11.746 -1.9513  1.3977 -0.3403
 7206TIP3   OH245812   0.451   3.049  11.643  0.0229 -0.2973 -0.0005
 7206TIP3    H145813   0.482   3.046  11.553  0.5057  1.3449  0.0737
 7206TIP3    H245814   0.501   3.119  11.684 -2.2962  1.0848  0.6945
 7207TIP3   OH245815   6.839   3.679  13.458  0.2324 -0.6481  0.2498
 7207TIP3    H145816   6.805   3.595  13.488  0.6024 -0.4241  1.3246
 7207TIP3    H245817   6.925   3.687  13.498  0.2364  0.2012  0.1021
 7208TIP3   OH245818   3.234   0.889  11.913  0.9958  0.0998  0.4516
 7208TIP3    H145819   3.221   0.983  11.929  0.7228 -0.1199  1.5724
 7208TIP3    H245820   3.309   0.866  11.967  0.2304 -0.6008  1.2448
 7209TIP3   OH245821   1.412   3.394  12.610 -0.4440  0.1465 -0.3944
 7209TIP3    H145822   1.369   3.469  12.651 -0.8093  0.5086 -1.4118
 7209TIP3    H245823   1.488   3.377  12.665 -0.7011  0.8736  0.2035
 7210TIP3   OH245824   7.256   5.728  11.211  0.3840 -0.7816 -0.0407
 7210TIP3    H145825   7.218   5.672  11.143  1.2237  0.0760 -1.2460
 7210TIP3    H245826   7.315   5.670  11.259  2.0533 -0.7666 -1.9414
 7211TIP3   OH245827   6.839   1.134  11.980 -0.0655  0.1221  0.5699
 7211TIP3    H145828   6.853   1.053  12.029 -0.3863 -0.7941 -0.8071
 7211TIP3    H245829   6.920   1.147  11.932 -0.6553 -0.3702 -0.5864
 7212TIP3   OH245830   2.857   1.191  11.555  0.3438 -0.0611  0.0332
 7212TIP3    H145831   2.866   1.107  11.510  0.3215  0.7063 -1.4792
 7212TIP3    H245832   2.947   1.218  11.573  0.3773 -0.0938 -0.0853
 7213TIP3   OH245833   3.097   3.554  11.285 -0.4100 -0.5204 -0.3380
 7213TIP3    H145834   3.113   3.591  11.372  0.9324 -0.1408 -0.7327
 7213TIP3    H245835   3.167   3.490  11.273 -0.6989 -0.7089 -1.0820
 7214TIP3   OH245836   6.538   1.512  11.869 -0.1989  0.6340  0.1028
 7214TIP3    H145837   6.451   1.477  11.849  0.6953 -1.4132 -0.4357
 7214TIP3    H245838   6.547   1.588  11.812 -0.4933 -0.9091 -2.1466
 7215TIP3   OH245839   3.012   3.744  11.132 -0.3951 -0.3356 -0.6336
 7215TIP3    H145840   3.084   3.753  11.068 -0.1758 -1.2963 -0.5421
 7215TIP3    H245841   3.038   3.669  11.186 -0.7641  0.2359  0.3519
 7216TIP3   OH245842   7.586   6.918  11.471 -0.3379 -0.1350 -0.1853
 7216TIP3    H145843   7.627   6.931  11.385  1.1345  1.2620  0.6618
 7216TIP3    H245844   7.600   6.825  11.490 -0.5431 -0.4273 -1.3759
 7217TIP3   OH245845   6.245   5.852  12.214  0.1485 -0.1838  0.2883
 7217TIP3    H145846   6.213   5.775  12.167  0.1609  0.1685 -0.3171
 7217TIP3    H245847   6.198   5.851  12.297 -0.5636 -0.3211 -0.1045
 7218TIP3   OH245848   0.881   5.526  11.174  0.3497  0.8879  0.9376
 7218TIP3    H145849   0.941   5.455  11.152 -0.4112  0.1572  1.1314
 7218TIP3    H245850   0.911   5.601  11.122  2.0812  0.8734  1.8730
 7219TIP3   OH245851   0.105   5.756  12.934 -0.2738  0.6093  0.5774
 7219TIP3    H145852   0.117   5.695  13.006 -0.6634  0.7249  0.7454
 7219TIP3    H245853   0.012   5.747  12.911 -0.1178  0.4504 -0.0159
 7220TIP3   OH245854   7.441   4.390  12.289 -0.2694  0.1115  0.2693
 7220TIP3    H145855   7.525   4.392  12.334  0.0764  0.5303 -0.3606
 7220TIP3    H245856   7.398   4.310  12.319  0.5712 -0.3701  0.2148
 7221TIP3   OH245857   5.702   3.131  12.784  0.2930 -0.2466  0.2612
 7221TIP3    H145858   5.667   3.095  12.702  1.6645  0.2955 -0.6053
 7221TIP3    H245859   5.738   3.216  12.759  3.6187 -1.4083  0.7022
 7222TIP3   OH245860   3.772   3.854  11.959 -0.3944 -0.2495  0.2770
 7222TIP3    H145861   3.746   3.808  11.879  2.7249 -0.4351 -0.7675
 7222TIP3    H245862   3.740   3.799  12.030 -1.8543 -0.9215 -0.8573
 7223TIP3   OH245863   6.605   2.843  12.443  0.2889  0.4389 -0.0488
 7223TIP3    H145864   6.566   2.838  12.356 -1.0189  0.5233  0.5079
 7223TIP3    H245865   6.561   2.775  12.494  1.0541  0.3704  0.5507
 7224TIP3   OH245866   7.334   1.335  11.742 -0.6531 -0.0783 -0.0302
 7224TIP3    H145867   7.345   1.241  11.738  1.5115  0.1364 -0.3581
 7224TIP3    H245868   7.292   1.351  11.826 -3.6295 -1.4629 -1.1143
 7225TIP3   OH245869   0.060   2.833  12.378 -0.0954 -0.0511 -0.5489
 7225TIP3    H145870  -0.006   2.881  12.428 -0.4093 -0.6940 -0.3394
 7225TIP3    H245871   0.010   2.773  12.323  0.1589  1.4663 -2.5808
 7226TIP3   OH245872   6.564   3.650  10.405  0.3496  0.0057  0.4400
 7226TIP3    H145873   6.536   3.559  10.397  0.0477  0.1842 -0.7257
 7226TIP3    H245874   6.487   3.696  10.438  0.2358 -0.0200  0.2112
 7227TIP3   OH245875   4.383   2.629  11.432  1.0274  0.1048  0.0734
 7227TIP3    H145876   4.425   2.549  11.402 -0.8006 -0.2637 -1.7035
 7227TIP3    H245877   4.418   2.697  11.375 -1.3419 -0.3532 -2.0494
 7228TIP3   OH245878   0.913   3.980  12.184 -0.9606 -0.6372 -0.0947
 7228TIP3    H145879   0.961   3.897  12.179 -2.2024 -1.2914 -1.7496
 7228TIP3    H245880   0.843   3.964  12.247  0.8010  0.2867  2.2431
 7229TIP3   OH245881   3.121   5.799  12.332  0.3772  0.1850  0.5652
 7229TIP3    H145882   3.101   5.796  12.426  0.0279 -1.0896  0.4704
 7229TIP3    H245883   3.043   5.763  12.290  0.5266  0.7622 -0.2280
 7230TIP3   OH245884   7.517   6.697  12.314 -0.1870  0.2990  0.1186
 7230TIP3    H145885   7.613   6.701  12.316 -0.1307 -0.7608 -0.2587
 7230TIP3    H245886   7.493   6.750  12.237  0.1706 -0.5262 -0.5745
 7231TIP3   OH245887   1.004   0.790  10.614  0.0053  0.4619 -0.3367
 7231TIP3    H145888   0.939   0.854  10.585  0.2149 -0.2269 -2.5257
 7231TIP3    H245889   1.088   0.836  10.608 -0.0191  0.5218 -0.2072
 7232TIP3   OH245890   3.688   5.558  11.930 -0.0205 -0.1780 -0.0286
 7232TIP3    H145891   3.702   5.598  12.016 -0.4472 -0.4031  0.1469
 7232TIP3    H245892   3.622   5.613  11.888  1.0509  0.6343 -0.6895
 7233TIP3   OH245893   0.771   6.012  13.638  0.3923 -0.4363 -0.3175
 7233TIP3    H145894   0.760   5.925  13.601  1.2344 -0.8922  0.4528
 7233TIP3    H245895   0.700   6.064  13.601  0.2201 -1.3030 -1.2255
 7234TIP3   OH245896   3.144   4.629  11.131 -0.7737 -0.4869  0.0236
 7234TIP3    H145897   3.060   4.625  11.176 -1.3721 -2.3796 -1.1490
 7234TIP3    H245898   3.162   4.723  11.121 -1.5986 -0.0234  2.2908
 7235TIP3   OH245899   1.952   5.919  11.037 -0.1317  0.1021 -0.0328
 7235TIP3    H145900   2.038   5.959  11.049 -0.1659  0.2506 -0.2871
 7235TIP3    H245901   1.957   5.875  10.952  0.3149 -1.4706  0.7618
 7236TIP3   OH245902   6.568   0.648  13.274  0.3382 -0.5007  0.7255
 7236TIP3    H145903   6.601   0.570  13.229 -0.3214 -0.0191 -0.6593
 7236TIP3    H245904   6.487   0.618  13.316 -1.2196 -0.1087 -1.7640
 7237TIP3   OH245905   3.278   6.548  12.400  1.0785 -0.8227 -0.3742
 7237TIP3    H145906   3.292   6.626  12.346 -0.3965 -0.5646 -0.4258
 7237TIP3    H245907   3.310   6.574  12.487  0.0596  0.0807 -0.2408
 7238TIP3   OH245908   0.649   5.399  11.065 -0.0594 -0.1287  0.8742
 7238TIP3    H145909   0.682   5.310  11.080  1.6079  0.3966  0.5435
 7238TIP3    H245910   0.715   5.456  11.105 -0.6948  0.9758  0.3862
 7239TIP3   OH245911   5.098   0.367  12.123 -0.5499  0.5222 -0.2111
 7239TIP3    H145912   5.095   0.271  12.120 -1.0563  0.5693 -2.8466
 7239TIP3    H245913   5.144   0.386  12.205 -0.0338 -1.9718  0.1690
 7240TIP3   OH245914   5.677   5.702  11.007 -0.3566  0.0639 -0.0412
 7240TIP3    H145915   5.585   5.714  11.030 -0.8736  1.9867 -2.7074
 7240TIP3    H245916   5.714   5.791  11.011  0.7694 -0.3268 -1.3036
 7241TIP3   OH245917   2.069   0.441  11.968 -0.3050 -0.1618 -0.1970
 7241TIP3    H145918   2.070   0.493  11.888 -2.7303 -0.6549 -0.6042
 7241TIP3    H245919   2.114   0.496  12.033  0.8362  0.6463 -1.6085
 7242TIP3   OH245920   6.281   0.972  10.976 -0.4636  0.0557 -0.2841
 7242TIP3    H145921   6.369   0.992  10.943 -1.0642 -0.6461 -2.4232
 7242TIP3    H245922   6.292   0.889  11.023 -0.2074 -0.7411 -1.7101
 7243TIP3   OH245923   0.956   3.798  10.285 -0.6098  0.3656  0.5443
 7243TIP3    H145924   0.889   3.829  10.224 -1.7541  0.1624  1.6524
 7243TIP3    H245925   1.012   3.874  10.300 -0.1826  0.3729 -0.8750
 7244TIP3   OH245926   1.047   6.364  11.865  0.2665  0.0480  0.3919
 7244TIP3    H145927   1.098   6.361  11.784  0.7983 -2.4601  0.7556
 7244TIP3    H245928   1.084   6.295  11.920 -1.8017 -0.1013  1.7163
 7245TIP3   OH245929   1.849   2.386  11.432 -0.0394 -0.7604 -0.1294
 7245TIP3    H145930   1.872   2.467  11.479  2.0899 -0.3318 -1.7487
 7245TIP3    H245931   1.887   2.316  11.485 -0.2409 -0.5491  0.3004
 7246TIP3   OH245932   5.666   2.692  12.832 -0.0024  0.2916  0.3737
 7246TIP3    H145933   5.743   2.676  12.777 -0.5035 -0.3974 -0.1452
 7246TIP3    H245934   5.606   2.621  12.810  0.6104 -1.3336  3.3437
 7247TIP3   OH245935   1.415   3.069  12.770  0.0339 -0.3827 -0.2622
 7247TIP3    H145936   1.470   3.031  12.702  0.5832  0.4134 -0.2722
 7247TIP3    H245937   1.476   3.092  12.840 -0.4443 -0.5968  0.2322
 7248TIP3   OH245938   1.517   2.235  11.721  0.0369  0.0578  0.6337
 7248TIP3    H145939   1.462   2.165  11.685  2.6834 -1.3740 -1.0030
 7248TIP3    H245940   1.504   2.309  11.661 -1.5096  0.4451  1.4023
 7249TIP3   OH245941   5.364   0.963  12.143 -0.3278 -0.2243 -0.0963
 7249TIP3    H145942   5.288   0.917  12.108  0.7493 -1.1513 -1.3320
 7249TIP3    H245943   5.384   0.919  12.225 -0.3260 -0.8803 -0.4420
 7250TIP3   OH245944   4.599   3.125  12.150  0.0683  0.0925 -0.2729
 7250TIP3    H145945   4.628   3.048  12.102  0.0108  0.3916 -0.7965
 7250TIP3    H245946   4.616   3.198  12.092 -2.4359  0.2227 -0.9835
 7251TIP3   OH245947   1.622   3.643  12.433 -0.2746 -0.6274  0.3083
 7251TIP3    H145948   1.535   3.645  12.395 -0.5279  0.6380  0.9100
 7251TIP3    H245949   1.608   3.632  12.527  0.2615 -1.4271  0.3088
 7252TIP3   OH245950   2.490   4.785  11.390  0.8896 -0.7894 -0.9252
 7252TIP3    H145951   2.455   4.713  11.338  2.0926 -0.8619 -1.6647
 7252TIP3    H245952   2.448   4.863  11.354  1.0446 -0.9334 -1.4342
 7253TIP3   OH245953   7.375   0.291  10.643  0.0304  0.4697 -0.4870
 7253TIP3    H145954   7.445   0.357  10.644  0.3078  0.1777 -0.6251
 7253TIP3    H245955   7.307   0.329  10.587  0.8295 -0.0194 -1.8185
 7254TIP3   OH245956   5.071   0.013  12.804  0.6601  0.0025  0.1084
 7254TIP3    H145957   5.080   0.101  12.841  0.3913  0.5513 -1.0692
 7254TIP3    H245958   5.111  -0.045  12.869  0.8639  0.9968  0.8936
 7255TIP3   OH245959   7.051   4.207  10.593 -0.2399  0.2550 -0.1402
 7255TIP3    H145960   7.065   4.298  10.568  0.7728  0.8703  2.4243
 7255TIP3    H245961   6.957   4.201  10.609  0.0415  1.7191  2.5397
 7256TIP3   OH245962   3.011   1.790  10.606  0.3043  0.3180 -0.0580
 7256TIP3    H145963   3.086   1.847  10.591 -0.3725  1.0993 -0.5980
 7256TIP3    H245964   3.009   1.777  10.701  1.5378 -0.3127 -0.1086
 7257TIP3   OH245965   7.044   3.607  11.673 -0.2832  0.2440  0.4213
 7257TIP3    H145966   6.992   3.605  11.593 -0.9124  0.8140  0.8036
 7257TIP3    H245967   7.127   3.647  11.647 -0.1178 -0.4618 -0.1462
 7258TIP3   OH245968   1.043   4.660  11.643  0.1733  0.1112  0.4154
 7258TIP3    H145969   1.026   4.581  11.591 -1.8655 -0.8579  2.3591
 7258TIP3    H245970   1.082   4.627  11.724  0.1310  1.1936  0.8870
 7259TIP3   OH245971   0.880   6.595  10.416  0.7493 -0.0030  0.0960
 7259TIP3    H145972   0.904   6.685  10.397  1.5979 -0.0778  0.7364
 7259TIP3    H245973   0.786   6.598  10.432  0.9570  1.0027  1.3264
 7260TIP3   OH245974   7.399   6.527  11.356 -0.2833 -0.2446  0.4692
 7260TIP3    H145975   7.305   6.538  11.345 -0.5155 -1.8224  0.7012
 7260TIP3    H245976   7.408   6.462  11.426  1.0094  0.9561  1.5055
 7261TIP3   OH245977   0.677   2.087  12.492 -0.2640 -0.1774  0.7589
 7261TIP3    H145978   0.589   2.063  12.520 -0.3708 -1.5781 -0.6813
 7261TIP3    H245979   0.673   2.087  12.397  1.2916 -0.2240  0.6693
 7262TIP3   OH245980   7.643   2.715  11.817  0.3251  0.1529 -0.0606
 7262TIP3    H145981   7.700   2.765  11.876 -0.2579  0.7682 -0.0006
 7262TIP3    H245982   7.630   2.632  11.861  1.0622  0.0572 -0.0087
 7263TIP3   OH245983   2.619   0.095  12.838  0.0185  0.3353 -0.4413
 7263TIP3    H145984   2.617   0.074  12.744  0.3086 -0.8507 -0.2056
 7263TIP3    H245985   2.545   0.046  12.874  0.7336 -0.3303  0.1482
 7264TIP3   OH245986   6.235   0.769  11.352 -0.0227 -0.0526 -0.2418
 7264TIP3    H145987   6.271   0.733  11.271  0.8928 -1.1200  0.6003
 7264TIP3    H245988   6.158   0.819  11.324  0.6959  0.2327 -1.8358
 7265TIP3   OH245989   4.658   3.234  19.295 -0.3584 -0.1650  0.1541
 7265TIP3    H145990   4.563   3.226  19.299 -0.2693 -1.1663  0.6785
 7265TIP3    H245991   4.675   3.328  19.299 -1.3174  0.0163  0.1369
 7266TIP3   OH245992   5.500   2.392  10.470  0.0292  0.0725  0.3497
 7266TIP3    H145993   5.562   2.325  10.499  2.5549  1.6450 -1.0049
 7266TIP3    H245994   5.482   2.369  10.379  0.8797  1.1077 -0.1121
 7267TIP3   OH245995   6.696   5.681  12.777 -0.6741  0.3750 -0.3523
 7267TIP3    H145996   6.643   5.715  12.849  2.6077 -0.2493  2.6818
 7267TIP3    H245997   6.671   5.589  12.770  0.6145 -0.2332  1.8929
 7268TIP3   OH245998   1.124   0.086  12.611 -0.0074 -0.3917  0.1907
 7268TIP3    H145999   1.106   0.051  12.698 -1.7053  2.4600  1.1583
 7268TIP3    H246000   1.212   0.122  12.616  0.3628 -1.3158  0.3268
 7269TIP3   OH246001   7.119   5.591  12.665 -0.1268 -0.2890  1.0832
 7269TIP3    H146002   7.057   5.525  12.696 -1.0864 -0.0583 -0.2390
 7269TIP3    H246003   7.067   5.671  12.658  0.7182  0.3085  1.4368
 7270TIP3   OH246004   1.693   1.915  10.711  0.2741 -0.1740 -0.3610
 7270TIP3    H146005   1.637   1.992  10.707  0.2949 -0.0947  0.6108
 7270TIP3    H246006   1.641   1.851  10.761  1.5102  0.3349  1.6757
 7271TIP3   OH246007   2.310   5.821  11.384 -0.8165 -0.5434 -0.4863
 7271TIP3    H146008   2.296   5.884  11.454 -0.7294 -1.0370 -0.0194
 7271TIP3    H246009   2.333   5.739  11.429  2.9380 -0.0025 -1.1324
 7272TIP3   OH246010   2.992   6.189  11.153 -0.1403  0.0859 -0.3778
 7272TIP3    H146011   2.925   6.226  11.095 -1.5346 -0.4901  0.7949
 7272TIP3    H246012   3.006   6.101  11.119 -1.3336 -0.4374  0.3930
 7273TIP3   OH246013   5.504   2.469  12.239  0.2097  0.4207 -0.3675
 7273TIP3    H146014   5.417   2.501  12.262 -0.0927 -0.1855 -0.6372
 7273TIP3    H246015   5.548   2.544  12.199  0.5256  1.3098  1.5551
 7274TIP3   OH246016   2.534   2.780  11.693  0.7007 -0.0515 -0.0699
 7274TIP3    H146017   2.542   2.875  11.685 -3.0268  0.3457 -1.7141
 7274TIP3    H246018   2.508   2.752  11.605  2.7271 -2.8026  0.1065
 7275TIP3   OH246019   7.458   4.455  12.681  0.3583 -0.2650  0.5282
 7275TIP3    H146020   7.485   4.374  12.724  0.9187 -0.5394 -0.3086
 7275TIP3    H246021   7.511   4.458  12.602 -1.3594 -0.3015 -0.6724
 7276TIP3   OH246022   5.319   1.736  12.408 -0.1222 -0.0477 -0.0952
 7276TIP3    H146023   5.243   1.713  12.462 -2.0640  2.0121 -1.7168
 7276TIP3    H246024   5.350   1.819  12.445  0.6573 -0.3471 -0.0832
 7277TIP3   OH246025   2.969   4.331  10.961 -0.4386  0.5228 -0.6472
 7277TIP3    H146026   2.994   4.254  11.013  0.5311  0.5162 -1.1093
 7277TIP3    H246027   2.904   4.376  11.015 -1.5600 -0.9932 -0.6733
 7278TIP3   OH246028   5.075   3.304  13.354  0.1281  0.6177 -0.4268
 7278TIP3    H146029   5.138   3.367  13.318  0.0135  0.5645 -0.7239
 7278TIP3    H246030   5.084   3.227  13.298 -0.3948  0.7060 -0.6401
 7279TIP3   OH246031   1.034   5.994  10.233  0.2480 -0.5476 -0.6972
 7279TIP3    H146032   1.120   5.952  10.231  0.2876 -1.0368  3.2789
 7279TIP3    H246033   1.046   6.071  10.288 -1.3544  0.9149 -2.2495
 7280TIP3   OH246034   2.750   0.587  11.932 -0.1389  0.2751 -0.0425
 7280TIP3    H146035   2.774   0.504  11.892  0.9096 -0.2828  1.6113
 7280TIP3    H246036   2.666   0.569  11.975  0.6708 -0.3559  1.3609
 7281TIP3   OH246037   0.810   2.988  11.639  0.5301  0.2448  0.6375
 7281TIP3    H146038   0.735   2.960  11.692  0.3694 -0.1312  0.2226
 7281TIP3    H246039   0.871   3.026  11.702  0.3971 -0.3077  1.1061
 7282TIP3   OH246040   7.400   3.331  13.056  0.1567  0.6740  0.7257
 7282TIP3    H146041   7.433   3.292  13.137  0.1364  1.4595  1.1162
 7282TIP3    H246042   7.425   3.423  13.061  0.5533  0.6476 -0.3739
 7283TIP3   OH246043   2.554   0.643  11.563 -0.4091 -0.4467  0.2384
 7283TIP3    H146044   2.571   0.724  11.612 -1.6553  0.2005 -0.3558
 7283TIP3    H246045   2.617   0.645  11.490 -1.5418  0.8744 -0.7519
 7284TIP3   OH246046   4.594   0.481  11.070  0.1647 -0.3151 -0.3787
 7284TIP3    H146047   4.547   0.411  11.116  0.8068 -0.2170  0.4538
 7284TIP3    H246048   4.525   0.543  11.044 -0.0927  0.5132  2.0240
 7285TIP3   OH246049   5.786   0.862  12.670  0.0571 -0.1642 -0.5000
 7285TIP3    H146050   5.881   0.862  12.671  0.1256 -2.3536 -1.7414
 7285TIP3    H246051   5.761   0.807  12.745 -0.2446  0.2120 -0.3163
 7286TIP3   OH246052   3.541   2.787  10.876  0.0001  0.1490 -0.2903
 7286TIP3    H146053   3.534   2.718  10.941  0.9646  0.0208 -0.3168
 7286TIP3    H246054   3.451   2.821  10.867 -0.4268 -0.8888 -0.0626
 7287TIP3   OH246055   1.891   3.743  12.667 -0.4085  0.3867  0.5437
 7287TIP3    H146056   1.891   3.653  12.701 -1.4801  0.2402  0.1905
 7287TIP3    H246057   1.882   3.798  12.745  0.7186  0.2186  0.8059
 7288TIP3   OH246058   2.322   1.132  10.793  0.6166  0.0099 -0.2327
 7288TIP3    H146059   2.246   1.183  10.766  0.5552  0.3132  0.5017
 7288TIP3    H246060   2.389   1.197  10.813  0.8157 -0.2274 -0.1222
 7289TIP3   OH246061   1.823   3.613  11.409  0.4496  0.5768 -0.4754
 7289TIP3    H146062   1.906   3.604  11.362  0.6038  0.9069 -0.2668
 7289TIP3    H246063   1.761   3.643  11.343  0.6478  0.9651 -0.4841
 7290TIP3   OH246064   1.338   1.006  11.391 -0.0858  0.5271  0.4433
 7290TIP3    H146065   1.413   0.969  11.345  0.4565  2.3598 -0.2254
 7290TIP3    H246066   1.262   0.976  11.341  0.4853  2.2814 -1.5966
 7291TIP3   OH246067   2.708   4.081  11.534 -0.0082  0.1440 -0.5872
 7291TIP3    H146068   2.671   4.129  11.608  1.8261  0.1886  0.3583
 7291TIP3    H246069   2.638   4.080  11.468 -1.6424  0.2451  1.0604
 7292TIP3   OH246070   3.815   5.317  11.227  0.2837 -0.4043  0.4685
 7292TIP3    H146071   3.889   5.322  11.167  1.1006 -0.6380  1.4274
 7292TIP3    H246072   3.805   5.224  11.246 -0.2268 -0.3699  0.3947
 7293TIP3   OH246073   0.877   3.043  13.104  0.5811 -0.6117 -0.1406
 7293TIP3    H146074   0.952   2.983  13.099  0.2676 -0.9140 -1.5113
 7293TIP3    H246075   0.806   2.988  13.139  0.6349 -0.6982 -0.1654
 7294TIP3   OH246076   0.469   5.944  10.714  0.2059  0.6989 -0.0102
 7294TIP3    H146077   0.559   5.937  10.681 -0.3533 -1.2007 -1.2998
 7294TIP3    H246078   0.468   5.886  10.790 -0.1258  0.0650 -0.4929
 7295TIP3   OH246079   3.545   5.221  11.150 -0.1683  0.1208  0.2881
 7295TIP3    H146080   3.635   5.252  11.165  0.1617  0.2223 -1.6718
 7295TIP3    H246081   3.538   5.213  11.055 -2.0810 -0.4115  0.4389
 7296TIP3   OH246082   7.544   3.441  12.319  0.6009  0.5662 -0.0396
 7296TIP3    H146083   7.516   3.528  12.292 -0.7966 -0.2661 -1.4421
 7296TIP3    H246084   7.464   3.396  12.343  0.8846 -1.2251 -2.1205
 7297TIP3   OH246085   0.932   5.950  12.909  0.3500 -0.0153 -0.5956
 7297TIP3    H146086   0.908   5.936  12.818 -0.9674 -0.0831 -0.2677
 7297TIP3    H246087   0.885   6.029  12.935  0.1988 -0.3425  0.1838
 7298TIP3   OH246088   5.205   2.275  10.817 -0.3837 -0.3170 -0.0964
 7298TIP3    H146089   5.155   2.346  10.856  1.0783  0.9357 -0.4126
 7298TIP3    H246090   5.202   2.292  10.723  0.9700  0.0426 -0.0933
 7299TIP3   OH246091   2.119   3.652  10.884  0.1926 -0.5141 -0.2510
 7299TIP3    H146092   2.034   3.639  10.841  0.2165  0.1540 -0.5068
 7299TIP3    H246093   2.131   3.747  10.885  1.1349 -0.6229 -0.6074
 7300TIP3   OH246094   5.248   4.438  11.389 -0.2965 -0.3362 -0.2295
 7300TIP3    H146095   5.218   4.422  11.478 -1.0898  0.3210 -0.3616
 7300TIP3    H246096   5.343   4.426  11.392 -0.0764  1.2962  1.0957
 7301TIP3   OH246097   1.105   0.498  10.427 -0.6264 -0.1889  0.2328
 7301TIP3    H146098   1.162   0.459  10.493  1.8551  0.4450 -1.3665
 7301TIP3    H246099   1.084   0.425  10.368  1.0530  0.0769 -0.7775
 7302TIP3   OH246100   6.689   0.025  12.908 -0.0448 -0.4031 -0.4372
 7302TIP3    H146101   6.769   0.042  12.959  0.4488  0.8868 -1.5832
 7302TIP3    H246102   6.618   0.051  12.967  0.5118  0.9933 -0.3262
 7303TIP3   OH246103   1.982   4.663  11.268  0.0392  0.2791 -0.0755
 7303TIP3    H146104   1.890   4.687  11.256  0.2613  0.9218 -0.5470
 7303TIP3    H246105   1.981   4.599  11.340 -0.5931  1.6041  1.1417
 7304TIP3   OH246106   2.450   6.987  13.104  0.1752 -0.2772  0.4917
 7304TIP3    H146107   2.529   6.975  13.051  2.0570  2.4054  2.3624
 7304TIP3    H246108   2.448   7.081  13.121 -1.9414 -0.6394  2.7177
 7305TIP3   OH246109   6.658   0.455  10.673 -0.0983 -0.1927  0.1904
 7305TIP3    H146110   6.621   0.386  10.727 -0.5774 -0.0970 -0.0174
 7305TIP3    H246111   6.624   0.536  10.711  1.7171  0.0604  1.4484
 7306TIP3   OH246112   4.361   0.863  12.223  0.3518 -0.0746  0.2526
 7306TIP3    H146113   4.331   0.772  12.226  1.1923 -0.3270  1.8709
 7306TIP3    H246114   4.285   0.914  12.252  0.3585 -0.3922  0.8304
 7307TIP3   OH246115   1.848   0.060  10.692 -0.8469 -0.2751 -0.0642
 7307TIP3    H146116   1.923   0.003  10.678  0.6713  1.7634 -0.6696
 7307TIP3    H246117   1.813   0.033  10.777  2.3206  0.5320  1.6435
 7308TIP3   OH246118   6.935   5.821  11.410  0.2464 -0.0222  0.0890
 7308TIP3    H146119   6.862   5.881  11.394 -0.5690 -0.2543  2.5741
 7308TIP3    H246120   7.001   5.876  11.453  0.8290 -0.1993 -0.5765
 7309TIP3   OH246121   1.975   4.371  12.124  0.0097 -0.1546  0.0131
 7309TIP3    H146122   1.961   4.303  12.190  0.9453 -0.4384 -0.0657
 7309TIP3    H246123   2.004   4.322  12.046 -0.0829  0.2645 -0.2861
 7310TIP3   OH246124   6.955   2.892  10.617  0.0743  0.0391  0.2388
 7310TIP3    H146125   6.890   2.962  10.625  1.3768  1.4048 -0.6373
 7310TIP3    H246126   6.906   2.812  10.633 -1.8204  1.0234 -0.3802
 7311TIP3   OH246127   3.250   3.079  12.020  0.1678 -0.5075  0.6186
 7311TIP3    H146128   3.312   3.013  11.990  0.7459  1.0878 -2.0695
 7311TIP3    H246129   3.166   3.052  11.984 -0.0874 -1.0281  1.5893
 7312TIP3   OH246130   6.063   3.189  11.726  0.3609 -0.3493 -0.3795
 7312TIP3    H146131   6.129   3.223  11.666  0.2563 -0.5614 -0.6198
 7312TIP3    H246132   6.045   3.100  11.694  1.8997 -1.3211  1.2676
 7313TIP3   OH246133   6.255   3.548  13.634  0.1722  0.3535  0.0336
 7313TIP3    H146134   6.183   3.488  13.615  0.8620 -0.3187 -0.5395
 7313TIP3    H246135   6.233   3.628  13.586 -0.9302  0.7156  1.0887
 7314TIP3   OH246136   7.350   0.168  10.875  0.6415  0.0835 -0.5017
 7314TIP3    H146137   7.425   0.222  10.901  1.2248 -0.7491 -0.4413
 7314TIP3    H246138   7.344   0.180  10.780 -0.0314  1.2521 -0.3391
 7315TIP3   OH246139   6.620   1.107  12.579  0.1415 -0.5284  0.8143
 7315TIP3    H146140   6.593   1.092  12.669 -1.0485 -1.1785  0.3703
 7315TIP3    H246141   6.542   1.088  12.527  0.6977  0.1811 -0.3300
 7316TIP3   OH246142   4.231   7.562  11.463  0.0020 -0.3542 -0.2474
 7316TIP3    H146143   4.150   7.602  11.430  0.6065  1.3980  0.2986
 7316TIP3    H246144   4.216   7.550  11.556  0.1516 -0.5703 -0.2514
 7317TIP3   OH246145   6.368   7.659  12.965 -0.2910  0.8934 -0.6326
 7317TIP3    H146146   6.406   7.593  13.023  0.0964  0.6157 -1.1940
 7317TIP3    H246147   6.400   7.743  12.999  0.9972  0.6562 -1.2111
 7318TIP3   OH246148   7.248   1.401  11.978  0.4695  0.8781  0.2727
 7318TIP3    H146149   7.157   1.420  12.000 -0.4006 -0.9163 -1.4215
 7318TIP3    H246150   7.287   1.370  12.060 -0.8483  0.4050  0.7441
 7319TIP3   OH246151   3.895   1.461  10.653  0.3545 -0.2231 -0.6852
 7319TIP3    H146152   3.891   1.366  10.665 -1.5135 -0.0750  0.2646
 7319TIP3    H246153   3.938   1.473  10.569 -2.2294 -2.0557 -2.4100
 7320TIP3   OH246154   5.382   0.223  11.779 -0.0357  0.5061 -0.3933
 7320TIP3    H146155   5.316   0.282  11.816 -0.3731  0.7388 -1.3533
 7320TIP3    H246156   5.394   0.253  11.689  0.7330 -0.0956 -0.5028
 7321TIP3   OH246157   7.413   3.913  12.465  0.5398 -0.1036  0.5152
 7321TIP3    H146158   7.364   3.840  12.503 -0.4922  0.1270 -0.3402
 7321TIP3    H246159   7.492   3.873  12.430  0.4015 -0.6716  0.8425
 7322TIP3   OH246160   4.118   7.050  12.131 -0.0018 -0.8479  0.7486
 7322TIP3    H146161   4.212   7.041  12.146  0.0471  1.1087  1.8029
 7322TIP3    H246162   4.106   7.025  12.039  1.2973 -2.5219  0.9941
 7323TIP3   OH246163   0.135   1.980  11.363 -0.0512 -0.2840  0.0894
 7323TIP3    H146164   0.102   2.028  11.287  0.7888 -1.4766 -1.0695
 7323TIP3    H246165   0.062   1.925  11.391 -0.0886 -0.4952 -0.4160
 7324TIP3   OH246166   0.939   4.868  13.128 -0.6712 -0.2124  0.3857
 7324TIP3    H146167   0.938   4.955  13.168 -0.1476  0.4007 -0.8770
 7324TIP3    H246168   0.873   4.819  13.177 -0.6118  0.7264  1.4635
 7325TIP3   OH246169   7.059   6.737  12.161  0.2642 -0.1290  0.1785
 7325TIP3    H146170   7.123   6.722  12.091 -2.0575 -0.2093 -2.0999
 7325TIP3    H246171   7.033   6.829  12.151 -0.0448 -0.1161  0.9952
 7326TIP3   OH246172   6.462   3.931  13.763 -0.3243 -0.0907  0.2160
 7326TIP3    H146173   6.554   3.952  13.746  0.2105 -1.6515  1.0551
 7326TIP3    H246174   6.415   4.006  13.728  1.2633  0.7822 -0.1822
 7327TIP3   OH246175   5.823   6.866  13.549  0.1349  0.6742  0.3705
 7327TIP3    H146176   5.809   6.798  13.483 -0.0906 -0.6279  1.7280
 7327TIP3    H246177   5.914   6.856  13.575  0.7198  2.2634 -0.8577
 7328TIP3   OH246178   1.507   2.709  11.174 -0.0540 -0.3942 -0.5507
 7328TIP3    H146179   1.563   2.664  11.237 -1.1292  0.0578  0.7748
 7328TIP3    H246180   1.564   2.774  11.133  0.3121  0.3685  1.0917
 7329TIP3   OH246181   6.062   7.405  11.744 -0.0149  0.1235 -0.0990
 7329TIP3    H146182   6.035   7.319  11.712 -0.6517  0.2059  0.1985
 7329TIP3    H246183   6.060   7.398  11.839  0.6586  0.2507 -0.0686
 7330TIP3   OH246184   5.424   6.976  10.540  0.1349  0.8277  0.9010
 7330TIP3    H146185   5.481   6.899  10.544 -0.0477  0.5806 -0.6402
 7330TIP3    H246186   5.341   6.948  10.578  0.2703  0.4688  0.9308
 7331TIP3   OH246187   1.061   6.490  12.572 -0.5677 -0.9891  0.3152
 7331TIP3    H146188   1.087   6.400  12.594 -0.7661 -1.1140  0.0545
 7331TIP3    H246189   1.130   6.521  12.513 -0.9449 -1.2861 -0.2992
 7332TIP3   OH246190   5.380   3.709  11.443  0.2206  0.3727 -0.3483
 7332TIP3    H146191   5.339   3.795  11.432 -1.1617 -0.3499 -1.1892
 7332TIP3    H246192   5.322   3.662  11.503  1.3121  0.2217  0.6232
 7333TIP3   OH246193   5.778   5.534  11.417  0.3498  0.1605  1.0792
 7333TIP3    H146194   5.805   5.541  11.325  0.7034 -0.8215  1.1020
 7333TIP3    H246195   5.766   5.441  11.431 -0.7431  0.3928  1.7499
 7334TIP3   OH246196   4.017   3.974  11.979 -0.5100  0.1567 -0.1425
 7334TIP3    H146197   4.031   4.000  12.070 -0.2082  0.2219 -0.2088
 7334TIP3    H246198   3.922   3.966  11.972 -0.4834 -0.8434  0.4549
 7335TIP3   OH246199   4.574   5.232  10.917 -0.2160  0.4562 -0.1168
 7335TIP3    H146200   4.544   5.179  10.842  0.8129  0.5505 -0.6132
 7335TIP3    H246201   4.522   5.312  10.912  1.0543  1.2344 -1.8184
 7336TIP3   OH246202   7.283   5.313  10.901 -0.5365 -0.0836 -0.4418
 7336TIP3    H146203   7.218   5.265  10.952 -0.6263  1.0816  0.5832
 7336TIP3    H246204   7.317   5.380  10.961  1.6110 -0.6246 -0.9424
 7337TIP3   OH246205   5.529   3.998  12.555  0.0815 -0.1387 -0.2393
 7337TIP3    H146206   5.585   3.923  12.534 -1.5734 -0.9693 -1.9642
 7337TIP3    H246207   5.444   3.976  12.517 -0.6481  2.3247 -0.1945
 7338TIP3   OH246208   0.851   7.515  11.819  0.4420 -0.0109  0.3845
 7338TIP3    H146209   0.883   7.527  11.908  0.3869  0.0676  0.3936
 7338TIP3    H246210   0.876   7.595  11.774  0.4779 -0.0548  0.3265
 7339TIP3   OH246211   3.354   4.110  11.217 -0.0261 -0.1421  0.1526
 7339TIP3    H146212   3.446   4.136  11.219 -0.4681  1.6538  3.0010
 7339TIP3    H246213   3.328   4.119  11.125  2.0352  1.6644 -0.3345
 7340TIP3   OH246214   6.948   3.511  11.435 -0.3455  0.1938 -0.1152
 7340TIP3    H146215   6.937   3.535  11.343 -1.2307 -1.9804 -0.6548
 7340TIP3    H246216   7.037   3.477  11.441 -0.5353 -0.3621 -0.3665
 7341TIP3   OH246217   4.037   5.541  12.839 -0.3440  0.4113 -0.0949
 7341TIP3    H146218   4.090   5.474  12.796 -0.0044  0.3284  0.4359
 7341TIP3    H246219   4.098   5.584  12.899  0.0212  2.6185 -1.9003
 7342TIP3   OH246220   6.514   2.176  11.523 -0.4021 -0.3107  0.1265
 7342TIP3    H146221   6.502   2.207  11.613 -1.2395  0.7968 -0.3424
 7342TIP3    H246222   6.561   2.093  11.533  0.2730  0.1859  1.5413
 7343TIP3   OH246223   7.620   1.524  11.336  0.5641  0.7955 -0.2336
 7343TIP3    H146224   7.590   1.555  11.250  1.9215  2.1967 -0.2413
 7343TIP3    H246225   7.574   1.579  11.399  0.2438  0.3633 -0.0833
 7344TIP3   OH246226   4.932   4.577  11.977  0.2092  0.3255 -0.2424
 7344TIP3    H146227   4.892   4.600  12.061  0.3033 -0.6100  0.0744
 7344TIP3    H246228   4.927   4.657  11.925  0.2424  0.9442  0.6881
 7345TIP3   OH246229   2.710   3.083  12.342 -0.3341  0.2676  0.4265
 7345TIP3    H146230   2.731   3.111  12.431  2.1360 -0.4981  0.1631
 7345TIP3    H246231   2.617   3.064  12.345 -0.4366  0.7581  2.7071
 7346TIP3   OH246232   7.322   3.990  11.891 -0.5055 -0.6042 -0.7248
 7346TIP3    H146233   7.355   4.064  11.841 -2.5030  1.9836  1.5129
 7346TIP3    H246234   7.392   3.969  11.953 -0.9499  1.4383  0.5674
 7347TIP3   OH246235   3.031   0.200  12.259  0.1558 -0.6373 -0.5711
 7347TIP3    H146236   3.065   0.201  12.349 -0.9679 -0.4079 -0.1273
 7347TIP3    H246237   3.050   0.112  12.227 -1.8819 -1.7086  0.9105
 7348TIP3   OH246238   5.755   6.231  11.347 -0.4535 -0.5205 -0.7809
 7348TIP3    H146239   5.840   6.254  11.308 -0.0007  0.8720  0.9284
 7348TIP3    H246240   5.692   6.244  11.276  0.5090  0.5529 -1.4665
 7349TIP3   OH246241   2.437   1.958  12.189 -0.2761  0.7040  0.2146
 7349TIP3    H146242   2.425   1.981  12.097 -1.0225 -1.2303 -0.2230
 7349TIP3    H246243   2.517   1.905  12.192 -0.8166 -0.1258  0.4802
 7350TIP3   OH246244   6.958   0.987  10.722 -0.1181 -0.0148 -0.1144
 7350TIP3    H146245   7.000   0.925  10.782  1.3428 -0.5332 -1.5877
 7350TIP3    H246246   6.868   0.957  10.714 -0.1562 -0.3111  1.2901
 7351TIP3   OH246247   0.821   0.459  10.948 -0.6082 -0.0935  0.1301
 7351TIP3    H146248   0.845   0.545  10.915  0.1654  0.4281  1.9017
 7351TIP3    H246249   0.795   0.409  10.871 -0.5036  1.5396 -0.9972
 7352TIP3   OH246250   6.419   7.064  12.382  0.1527  0.0445  0.1765
 7352TIP3    H146251   6.379   6.977  12.390 -0.5797  0.2388 -1.1593
 7352TIP3    H246252   6.508   7.046  12.352  0.2525 -0.2723  0.6440
 7353TIP3   OH246253   1.884   3.261  10.797  0.1383  0.3756  0.0819
 7353TIP3    H146254   1.927   3.190  10.749 -0.4710  1.2897 -1.8966
 7353TIP3    H246255   1.951   3.293  10.857  0.7398 -1.1868  0.2900
 7354TIP3   OH246256   3.566   0.461  12.007  0.0345 -0.1214  0.7129
 7354TIP3    H146257   3.609   0.396  11.952  0.5737  0.7858  0.0173
 7354TIP3    H246258   3.589   0.545  11.967 -2.1313  0.4322  0.4800
 7355TIP3   OH246259   6.504   5.916  11.852  0.8577  0.3635 -0.1563
 7355TIP3    H146260   6.550   5.837  11.825  1.0383  0.3327  0.2381
 7355TIP3    H246261   6.487   5.903  11.946 -0.6823 -0.0048 -0.4535
 7356TIP3   OH246262   2.741   7.518  11.970  0.2680 -0.3491 -0.2644
 7356TIP3    H146263   2.826   7.474  11.966  1.3948  1.8026 -1.3646
 7356TIP3    H246264   2.698   7.496  11.887 -0.4321 -1.6603  0.4040
 7357TIP3   OH246265   7.512   3.218  10.513 -0.5050  0.3988  0.9585
 7357TIP3    H146266   7.536   3.145  10.456 -0.8472  0.7446  0.3656
 7357TIP3    H246267   7.568   3.290  10.485 -1.7178  1.0111  0.0264
 7358TIP3   OH246268   6.050   6.246  11.370  0.6327  0.4971 -0.8969
 7358TIP3    H146269   6.088   6.305  11.435  0.9511  1.8265 -2.2276
 7358TIP3    H246270   6.024   6.169  11.419  2.0917  0.9051  0.5855
 7359TIP3   OH246271   5.645   0.692  12.462  0.0479 -0.2002  0.1320
 7359TIP3    H146272   5.726   0.678  12.413 -0.0085 -1.0770  0.2751
 7359TIP3    H246273   5.666   0.764  12.522  0.1126  0.8907 -1.1575
 7360TIP3   OH246274   6.632   1.664  11.128 -0.4002  0.5424  0.1141
 7360TIP3    H146275   6.668   1.734  11.075 -0.7289  0.0720 -0.7529
 7360TIP3    H246276   6.579   1.612  11.067  1.0237 -1.3363  0.3680
 7361TIP3   OH246277   2.100   6.747  12.092  0.7255 -0.3618  0.4521
 7361TIP3    H146278   2.014   6.743  12.052  0.8766 -1.1630  0.1992
 7361TIP3    H246279   2.083   6.755  12.186  0.3768  1.0344  0.3033
 7362TIP3   OH246280   1.157   2.620  12.362  0.0543  0.1779  0.3017
 7362TIP3    H146281   1.250   2.625  12.338 -0.1915 -1.6264 -1.2039
 7362TIP3    H246282   1.155   2.560  12.437  0.0973  0.2562  0.3657
 7363TIP3   OH246283   2.740   3.297  11.617  0.3685  0.1336 -0.2657
 7363TIP3    H146284   2.814   3.257  11.662  0.6081  0.1054 -0.6880
 7363TIP3    H246285   2.727   3.381  11.662  1.2356  0.5550 -0.7755
 7364TIP3   OH246286   4.474   6.019  11.486 -0.0972  0.2078 -0.3042
 7364TIP3    H146287   4.505   5.960  11.554 -3.1146  0.2951  1.3064
 7364TIP3    H246288   4.552   6.070  11.461  1.5397 -1.1915  1.6049
 7365TIP3   OH246289   4.787   4.192  12.541  0.6211 -1.0431  0.3345
 7365TIP3    H146290   4.804   4.218  12.451 -0.0398 -1.0177  0.2164
 7365TIP3    H246291   4.693   4.178  12.545  0.1334  1.8854  1.7652
 7366TIP3   OH246292   6.354   4.688  12.900 -0.2522 -0.8153  0.3005
 7366TIP3    H146293   6.411   4.667  12.975 -1.0163 -3.0457  0.3227
 7366TIP3    H246294   6.297   4.758  12.933 -1.0034 -2.1700  2.0719
 7367TIP3   OH246295   0.336   3.163  13.754 -0.3144  0.2020 -0.0873
 7367TIP3    H146296   0.274   3.092  13.770 -0.7541  0.0739 -2.0553
 7367TIP3    H246297   0.282   3.243  13.756 -0.3361  0.2051 -0.5788
 7368TIP3   OH246298   7.092   4.610  10.550 -0.1227  0.7843 -0.1621
 7368TIP3    H146299   7.069   4.568  10.468  0.7636 -1.3105  0.6028
 7368TIP3    H246300   7.177   4.652  10.534 -0.2888  0.9920 -0.5012
 7369TIP3   OH246301   3.067   7.559  11.051  0.1955  0.5047 -0.1559
 7369TIP3    H146302   3.020   7.630  11.008 -1.8287 -0.2816  0.6330
 7369TIP3    H246303   3.023   7.479  11.022  1.3593 -0.3119  0.2555
 7370TIP3   OH246304   3.434   1.321  11.620  0.3552  0.3587 -0.2234
 7370TIP3    H146305   3.347   1.284  11.633 -0.4068  2.5679  1.7110
 7370TIP3    H246306   3.481   1.300  11.700  1.2030  0.2088 -0.7554
 7371TIP3   OH246307   3.432   3.788  12.337 -0.1068 -0.3301  0.3753
 7371TIP3    H146308   3.451   3.722  12.403 -0.3856 -0.3162  0.4691
 7371TIP3    H246309   3.344   3.818  12.357  0.0065  0.0508  0.3155
 7372TIP3   OH246310   2.721   1.926  12.126 -0.2780 -0.0762 -0.4541
 7372TIP3    H146311   2.751   2.017  12.128 -0.8567  0.1177 -0.5374
 7372TIP3    H246312   2.723   1.902  12.034  0.4479 -0.3457 -0.3760
 7373TIP3   OH246313   5.855   3.823  12.185 -1.3673 -0.0457 -0.2599
 7373TIP3    H146314   5.870   3.863  12.099 -1.1701 -0.6848 -0.5386
 7373TIP3    H246315   5.839   3.730  12.165  2.0412 -0.9532  0.5862
 7374TIP3   OH246316   5.413   2.409  11.343  0.0327  0.0672 -0.2636
 7374TIP3    H146317   5.356   2.336  11.322 -1.1575 -0.2886  3.4338
 7374TIP3    H246318   5.360   2.487  11.326  0.2004 -0.0322 -1.2958
 7375TIP3   OH246319   5.370   6.486  10.982  0.4748 -0.0639  0.2017
 7375TIP3    H146320   5.291   6.497  11.035  1.3418  0.7599  1.3739
 7375TIP3    H246321   5.385   6.571  10.942  0.2339 -0.4889 -0.8512
 7376TIP3   OH246322   4.424   2.403  10.839 -0.2278  0.4525 -0.0442
 7376TIP3    H146323   4.377   2.358  10.769 -0.7983  0.6469  0.2044
 7376TIP3    H246324   4.435   2.493  10.807 -0.1569  0.4444 -0.0421
 7377TIP3   OH246325   5.716   7.660  10.996  0.6360  0.4554 -0.3654
 7377TIP3    H146326   5.699   7.647  10.902 -0.0571 -0.5501 -0.1185
 7377TIP3    H246327   5.810   7.680  11.000  0.2553  2.8490 -1.4575
 7378TIP3   OH246328   2.976   4.791  11.553 -0.0136  0.6024  0.7269
 7378TIP3    H146329   2.970   4.859  11.485  2.2801 -1.4661 -1.7387
 7378TIP3    H246330   3.051   4.817  11.607  0.2986  0.4997  0.3444
 7379TIP3   OH246331   4.524   6.300  10.702  0.6518 -0.0868  0.3175
 7379TIP3    H146332   4.436   6.274  10.731  0.8489 -0.9097  0.1946
 7379TIP3    H246333   4.580   6.226  10.725  0.9525 -0.4422 -1.4638
 7380TIP3   OH246334   7.032   4.746  11.128 -0.0882  0.3044 -0.0884
 7380TIP3    H146335   6.937   4.747  11.129 -0.0939 -0.2399  0.1977
 7380TIP3    H246336   7.055   4.656  11.106  0.3572  0.6394 -1.0354
 7381TIP3   OH246337   0.239   6.608  10.935 -0.2959  0.0699  0.6798
 7381TIP3    H146338   0.216   6.516  10.923  1.7213 -0.4704  0.5801
 7381TIP3    H246339   0.282   6.632  10.853 -0.4296  0.9847  0.8724
 7382TIP3   OH246340   1.366   2.393  11.058  0.8055  0.3644 -0.2468
 7382TIP3    H146341   1.290   2.450  11.074  0.0123 -0.8107  0.3453
 7382TIP3    H246342   1.407   2.382  11.144  0.8359 -0.0965 -0.3144
 7383TIP3   OH246343   0.675   4.944  13.463  0.4685 -0.3005 -0.6853
 7383TIP3    H146344   0.606   4.912  13.522 -0.5376 -1.0296 -2.1728
 7383TIP3    H246345   0.689   5.035  13.489 -1.4062  0.0148 -0.6067
 7384TIP3   OH246346   6.042   2.639  12.805  0.1767  0.0486 -0.0323
 7384TIP3    H146347   6.111   2.703  12.787  2.4063 -1.5455  2.0981
 7384TIP3    H246348   5.979   2.651  12.734  1.2672  3.4237 -0.6316
 7385TIP3   OH246349   5.811   6.988  13.305  0.3690  0.4245  0.2407
 7385TIP3    H146350   5.812   6.966  13.398  1.3078  1.7394  0.5799
 7385TIP3    H246351   5.893   6.952  13.270 -0.1378 -0.3595 -0.1642
 7386TIP3   OH246352   5.336   3.448  12.098 -0.0359  0.1984 -0.5113
 7386TIP3    H146353   5.371   3.375  12.047  0.6618  0.7932 -0.9254
 7386TIP3    H246354   5.410   3.509  12.104 -0.3652  0.5092  0.5132
 7387TIP3   OH246355   2.189   0.617  12.169 -0.2244  0.1963 -0.2037
 7387TIP3    H146356   2.195   0.653  12.257  0.1705 -0.1561 -0.0839
 7387TIP3    H246357   2.153   0.689  12.116  0.4449  0.7361  0.0528
 7388TIP3   OH246358   7.534   7.003  12.405 -0.1660 -0.7659  0.2972
 7388TIP3    H146359   7.584   7.051  12.471 -1.2972  0.4313  0.3287
 7388TIP3    H246360   7.600   6.973  12.343  0.5888  1.1155  0.1203
 7389TIP3   OH246361   4.087   4.579  11.190 -0.0976 -0.1672 -0.2482
 7389TIP3    H146362   4.008   4.550  11.234  0.0965 -0.0035  0.2092
 7389TIP3    H246363   4.126   4.644  11.249  0.9166 -0.9855  0.0197
 7390TIP3   OH246364   1.124   3.423  10.908 -0.0519 -0.3252 -0.1070
 7390TIP3    H146365   1.216   3.448  10.911 -0.0018 -0.6150  1.6657
 7390TIP3    H246366   1.087   3.459  10.989 -1.1450 -1.5371 -0.0452
 7391TIP3   OH246367   5.658   6.992  12.546 -0.3470  0.8601  0.5250
 7391TIP3    H146368   5.700   6.946  12.618 -0.1168  0.2266 -0.0052
 7391TIP3    H246369   5.570   6.955  12.542  0.3774 -0.8466 -1.0074
 7392TIP3   OH246370   5.471   7.471  12.247  0.3780 -0.5595  0.1379
 7392TIP3    H146371   5.527   7.548  12.250 -0.1752 -0.0958 -0.7644
 7392TIP3    H246372   5.418   7.476  12.326 -0.5411  0.7015 -0.5206
 7393TIP3   OH246373   5.940   5.349  10.937  0.0290  0.3779 -0.2571
 7393TIP3    H146374   5.985   5.416  10.886  0.7961 -0.3297 -0.5495
 7393TIP3    H246375   5.937   5.273  10.878 -1.2509  0.2867 -0.1176
 7394TIP3   OH246376   5.405   6.403  10.408 -0.2379  0.5329  0.0892
 7394TIP3    H146377   5.395   6.404  10.503 -0.9332 -0.8520  0.0543
 7394TIP3    H246378   5.383   6.313  10.382  1.8783  0.3002 -1.1806
 7395TIP3   OH246379   3.058   2.366  11.966 -0.8125 -0.0616 -0.1687
 7395TIP3    H146380   2.974   2.320  11.973 -0.2979 -0.8498  1.5027
 7395TIP3    H246381   3.034   2.458  11.966 -1.6737 -0.2402  1.4070
 7396TIP3   OH246382   1.883   0.583  12.641 -0.0193  0.3925  0.6414
 7396TIP3    H146383   1.959   0.526  12.652 -0.5086 -0.3818  0.1340
 7396TIP3    H246384   1.818   0.549  12.701 -0.4565  0.1476  0.0427
 7397TIP3   OH246385   0.251   2.840  12.591  0.0128  0.1498 -0.0697
 7397TIP3    H146386   0.221   2.901  12.659 -0.2244 -0.2426  0.1864
 7397TIP3    H246387   0.187   2.850  12.520 -0.3015 -0.1362  0.1657
 7398TIP3   OH246388   7.339   4.546  12.097 -0.3014  0.3186 -0.0134
 7398TIP3    H146389   7.382   4.631  12.090 -0.7231  0.4138 -2.0567
 7398TIP3    H246390   7.376   4.507  12.176 -1.0103  2.8678  1.7037
 7399TIP3   OH246391   5.463   2.841  11.824 -0.5312 -0.3227  0.5200
 7399TIP3    H146392   5.529   2.803  11.882  1.4487 -1.2672 -2.1310
 7399TIP3    H246393   5.507   2.847  11.739 -3.4255  0.4363 -1.0529
 7400TIP3   OH246394   2.239   0.849  11.578  0.2784  0.5669 -0.9512
 7400TIP3    H146395   2.146   0.835  11.564  0.0693  2.9178 -2.4579
 7400TIP3    H246396   2.282   0.799  11.509  0.1636 -0.4284 -0.3233
 7401TIP3   OH246397   5.865   6.209  13.070 -0.1974  0.2359  0.1904
 7401TIP3    H146398   5.831   6.279  13.013  2.0998  0.4731 -0.9918
 7401TIP3    H246399   5.946   6.245  13.107 -0.0748 -1.0466  1.2628
 7402TIP3   OH246400   5.310   4.677  12.049  0.8360  0.0973 -0.4171
 7402TIP3    H146401   5.402   4.693  12.030  0.7821  1.9760  0.6484
 7402TIP3    H246402   5.264   4.751  12.010 -0.2214 -0.7137 -0.7670
 7403TIP3   OH246403   6.041   7.408  12.021  0.1345 -0.3778  0.2119
 7403TIP3    H146404   5.948   7.425  12.010  0.5765  1.6935 -0.8890
 7403TIP3    H246405   6.051   7.391  12.115 -1.4718 -1.8285  0.1655
 7404TIP3   OH246406   4.816   4.946  11.287 -0.0447  0.0655 -0.4366
 7404TIP3    H146407   4.857   5.032  11.285  0.3420 -0.1269 -2.8520
 7404TIP3    H246408   4.787   4.930  11.198  0.6483 -2.6735 -0.2689
 7405TIP3   OH246409   2.129   1.787  12.460  0.0662  0.2686 -0.6122
 7405TIP3    H146410   2.187   1.795  12.536 -0.7246 -0.1918  0.0653
 7405TIP3    H246411   2.043   1.815  12.493 -0.2103  0.4089 -1.4382
 7406TIP3   OH246412   3.017   2.989  11.885 -0.2115 -0.0951  0.5420
 7406TIP3    H146413   2.999   3.082  11.869 -0.6412  0.0669  1.8139
 7406TIP3    H246414   2.957   2.965  11.955  1.3043 -0.7840  1.6671
 7407TIP3   OH246415   5.800   4.717  11.233  0.2584 -0.1708  0.1355
 7407TIP3    H146416   5.708   4.742  11.241 -0.1503 -1.2999 -0.8199
 7407TIP3    H246417   5.803   4.627  11.265  0.7021 -0.7181 -1.3740
 7408TIP3   OH246418   4.041   5.368  12.449 -0.1952 -0.1341  0.5301
 7408TIP3    H146419   4.086   5.396  12.528  3.3002  0.4926 -1.4318
 7408TIP3    H246420   4.064   5.275  12.440  2.0932  0.4916 -1.1519
 7409TIP3   OH246421   7.447   4.802  12.107  0.2369  0.1041 -0.5155
 7409TIP3    H146422   7.404   4.888  12.108  1.4152  0.7091 -0.7675
 7409TIP3    H246423   7.531   4.816  12.149  0.8363 -0.7121 -1.4009
 7410TIP3   OH246424   6.427   7.065  12.913  0.1240 -0.4341  0.6891
 7410TIP3    H146425   6.404   7.061  13.006 -1.5229 -1.0221  0.2879
 7410TIP3    H246426   6.365   7.007  12.870 -0.6627  1.5428 -1.0487
 7411TIP3   OH246427   6.849   5.925  13.390  0.2426 -0.4137 -0.5025
 7411TIP3    H146428   6.904   5.862  13.436 -0.0687 -1.0043 -0.9280
 7411TIP3    H246429   6.908   5.965  13.325  0.3865 -0.4078 -0.3694
 7412TIP3   OH246430   4.712   0.041  11.340  0.0141  0.1323  0.7440
 7412TIP3    H146431   4.642   0.087  11.386 -0.1971  0.2931  0.2676
 7412TIP3    H246432   4.667  -0.010  11.273  0.3134 -0.1585  0.7628
 7413TIP3   OH246433   2.656   0.852  10.638 -0.1636 -0.1174  0.4618
 7413TIP3    H146434   2.586   0.917  10.637 -1.1118 -1.0991 -0.0510
 7413TIP3    H246435   2.723   0.887  10.580 -0.9447  0.1166 -0.3127
 7414TIP3   OH246436   4.765   3.136  11.096 -0.5389 -0.3517  0.0208
 7414TIP3    H146437   4.844   3.122  11.148  0.2036  0.6196 -0.8155
 7414TIP3    H246438   4.694   3.128  11.160  0.1742 -1.8264  0.6753
 7415TIP3   OH246439   5.150   7.516  11.779 -0.5646 -0.1463 -0.2003
 7415TIP3    H146440   5.244   7.501  11.772 -0.6108 -2.0164  1.8451
 7415TIP3    H246441   5.115   7.495  11.693  0.7991 -0.4570 -0.6981
 7416TIP3   OH246442   4.701   2.888  11.749  0.0264  0.1456  0.4401
 7416TIP3    H146443   4.691   2.925  11.661  1.6561  0.9944  0.5738
 7416TIP3    H246444   4.795   2.877  11.760 -0.1243  0.2650  2.1616
 7417TIP3   OH246445   4.932   6.350  12.228  0.3713 -0.2027  0.2372
 7417TIP3    H146446   4.932   6.424  12.288 -1.1199  0.3550 -0.3902
 7417TIP3    H246447   4.997   6.373  12.162  1.8204 -0.6967  1.4449
 7418TIP3   OH246448   4.166   4.567  10.904  0.1169  0.1855  0.0295
 7418TIP3    H146449   4.098   4.539  10.843 -0.1746  0.4686  0.2184
 7418TIP3    H246450   4.129   4.549  10.991 -0.0521  1.0814  0.1535
 7419TIP3   OH246451   6.652   2.441  12.998 -0.2076  0.2953  0.4378
 7419TIP3    H146452   6.561   2.418  13.018 -0.4032 -0.7764 -1.4518
 7419TIP3    H246453   6.694   2.448  13.084 -1.4098 -2.0935  1.3252
 7420TIP3   OH246454   7.173   4.921  11.469 -0.1283  0.0130  0.6988
 7420TIP3    H146455   7.158   4.853  11.535  1.9140 -3.3976 -2.0195
 7420TIP3    H246456   7.265   4.947  11.482 -0.9505  2.7119  1.8953
 7421TIP3   OH246457   3.883   7.105  11.285  0.5244  0.1272 -0.4352
 7421TIP3    H146458   3.873   7.181  11.227  0.7280  1.0139  0.6586
 7421TIP3    H246459   3.866   7.030  11.228 -0.2070  1.0027 -1.4340
 7422TIP3   OH246460   2.496   5.411  11.501  0.1968 -0.0966  0.1561
 7422TIP3    H146461   2.436   5.404  11.575  0.6544 -0.3398  0.5056
 7422TIP3    H246462   2.565   5.471  11.531 -0.5528  1.2586 -0.7084
 7423TIP3   OH246463   4.681   6.498  11.308  0.0451  0.1042 -0.0938
 7423TIP3    H146464   4.609   6.499  11.370 -0.1485 -0.9752 -0.2870
 7423TIP3    H246465   4.748   6.554  11.348 -0.5130  0.3347  0.5363
 7424TIP3   OH246466   6.710   5.070  12.616  0.2612 -0.1126  0.4849
 7424TIP3    H146467   6.739   5.006  12.680 -0.5652 -1.3379 -0.3035
 7424TIP3    H246468   6.618   5.048  12.601 -0.1130  1.4253  0.3587
 7425TIP3   OH246469   1.533   3.931  12.234  0.0023  0.3174 -0.2804
 7425TIP3    H146470   1.569   3.967  12.315 -1.1018 -0.9181  0.8228
 7425TIP3    H246471   1.605   3.881  12.196 -0.1180 -1.2150  1.3263
 7426TIP3   OH246472   2.823   2.584  11.120  0.0033 -0.1448 -0.3902
 7426TIP3    H146473   2.793   2.668  11.153  1.0907 -0.0434  0.4141
 7426TIP3    H246474   2.761   2.520  11.156 -1.2107  0.3460 -1.5382
 7427TIP3   OH246475   1.950   6.362  12.796  0.1524 -0.2271  0.1172
 7427TIP3    H146476   1.948   6.267  12.807  0.2018 -0.1097  1.2434
 7427TIP3    H246477   1.858   6.388  12.800 -0.0421 -0.4030 -2.1124
 7428TIP3   OH246478   0.263   5.913  12.795 -0.2408 -0.1310 -0.1381
 7428TIP3    H146479   0.344   5.889  12.838 -1.0327  0.8991  2.0772
 7428TIP3    H246480   0.196   5.858  12.836 -1.2135  1.7958  1.0082
 7429TIP3   OH246481   2.432   1.009  10.583  0.0747  0.0287  0.5200
 7429TIP3    H146482   2.350   1.011  10.534  0.2859  1.7969  0.1733
 7429TIP3    H246483   2.411   1.049  10.667  0.4410 -0.0341  0.6461
 7430TIP3   OH246484   2.664   4.391  12.219 -0.6124  0.3494  0.9508
 7430TIP3    H146485   2.602   4.320  12.204  1.2296 -0.8416 -2.1917
 7430TIP3    H246486   2.647   4.453  12.148  1.3872  0.1883  0.2605
 7431TIP3   OH246487   7.040   6.728  13.298 -0.3734 -0.6112 -0.2060
 7431TIP3    H146488   7.120   6.676  13.305 -0.2761 -0.4033  0.2578
 7431TIP3    H246489   7.064   6.800  13.239  0.2391  0.2801  1.0863
 7432TIP3   OH246490   5.399   3.180  12.616 -0.2417  1.0199 -0.5067
 7432TIP3    H146491   5.382   3.272  12.594 -0.3485  1.5812  1.6812
 7432TIP3    H246492   5.424   3.182  12.709 -1.3856 -1.2850 -0.0778
 7433TIP3   OH246493   1.819   0.456  12.099  0.0214 -0.7297  0.2909
 7433TIP3    H146494   1.893   0.422  12.049  0.2760  0.7711 -0.4118
 7433TIP3    H246495   1.774   0.514  12.039 -0.2249  0.3924  1.5128
 7434TIP3   OH246496   4.347   1.061  11.871 -0.0994 -0.2572  0.1065
 7434TIP3    H146497   4.428   1.014  11.849  0.0408 -0.0408  0.1559
 7434TIP3    H246498   4.281   1.022  11.814 -0.2931 -1.5017  1.1331
 7435TIP3   OH246499   5.766   2.371  12.292 -0.3847 -0.3850  0.4154
 7435TIP3    H146500   5.679   2.410  12.295 -0.1696  0.2057 -0.5308
 7435TIP3    H246501   5.790   2.373  12.200  0.2288 -1.4579  0.5387
 7436TIP3   OH246502   0.636   6.246  12.265 -0.4814  0.1661  0.0519
 7436TIP3    H146503   0.691   6.322  12.247  0.8978 -0.7528  0.1685
 7436TIP3    H246504   0.579   6.273  12.337 -0.0476  1.1018  0.0489
 7437TIP3   OH246505   4.844   2.149  10.499 -0.2575  0.0583  0.7236
 7437TIP3    H146506   4.749   2.161  10.508  0.0050  1.6594  1.6892
 7437TIP3    H246507   4.858   2.056  10.516 -1.7995 -0.5623 -0.9660
 7438TIP3   OH246508   5.241   1.293  11.320 -0.0045 -0.0887 -0.0946
 7438TIP3    H146509   5.280   1.283  11.407  1.5645 -0.2246 -0.7733
 7438TIP3    H246510   5.243   1.205  11.283  0.4275  0.1694 -0.6941
 7439TIP3   OH246511   0.069   6.646  12.152  0.0711 -0.0904 -0.0637
 7439TIP3    H146512   0.125   6.711  12.110  0.6750 -0.6616 -0.1555
 7439TIP3    H246513   0.066   6.573  12.090  1.2908 -1.1065  1.0128
 7440TIP3   OH246514   4.908   0.236  11.382 -0.4334 -0.0676 -0.3406
 7440TIP3    H146515   4.877   0.258  11.470 -0.8295 -0.3385 -0.4091
 7440TIP3    H246516   4.846   0.171  11.351 -0.5527  0.3575 -0.9986
 7441TIP3   OH246517   2.551   0.377  11.984  0.6665 -0.6807 -0.2229
 7441TIP3    H146518   2.492   0.318  11.937 -0.1336  1.6209 -2.3089
 7441TIP3    H246519   2.501   0.458  11.995  2.2270  0.1650  1.1387
 7442TIP3   OH246520   2.093   6.116  11.334  0.1052 -0.4977 -0.6396
 7442TIP3    H146521   2.025   6.071  11.384 -0.3633 -0.0030 -0.8334
 7442TIP3    H246522   2.175   6.093  11.379 -0.3035 -0.0668  0.3532
 7443TIP3   OH246523   1.274   0.588  11.586 -0.0843  0.0272  0.1972
 7443TIP3    H146524   1.302   0.583  11.677 -1.3937 -0.1290  0.6043
 7443TIP3    H246525   1.318   0.514  11.544  0.3439 -0.0406  0.7511
 7444TIP3   OH246526   4.600   2.447  11.630 -0.0356 -0.0625  0.1747
 7444TIP3    H146527   4.505   2.431  11.625  0.0416 -0.6773  0.6043
 7444TIP3    H246528   4.634   2.373  11.680  0.5389  0.6968  0.9259
 7445TIP3   OH246529   1.721   5.941  10.661 -0.2172 -0.2717 -0.9114
 7445TIP3    H146530   1.646   5.993  10.632 -0.8141 -0.2526  0.5681
 7445TIP3    H246531   1.797   5.995  10.639 -0.7043  0.2956 -1.2501
 7446TIP3   OH246532   4.893   5.838  11.717 -0.1023 -0.1057 -0.1607
 7446TIP3    H146533   4.872   5.915  11.664  0.8664  1.1499  1.2277
 7446TIP3    H246534   4.987   5.844  11.733 -0.3885 -0.3260  1.8643
 7447TIP3   OH246535   5.401   5.062  11.560  0.3795 -0.2808 -0.8369
 7447TIP3    H146536   5.405   5.074  11.465  1.4333  1.7789 -0.5730
 7447TIP3    H246537   5.342   5.130  11.591  1.0805 -0.0906  0.1149
 7448TIP3   OH246538   6.028   4.933  12.438 -0.6893  0.5217 -0.4719
 7448TIP3    H146539   6.123   4.923  12.433 -0.7364  0.8380 -2.4936
 7448TIP3    H246540   5.999   4.858  12.491  0.5807 -0.1642 -0.7156
 7449TIP3   OH246541   7.618   4.707  13.676  0.0948  0.6517 -0.2425
 7449TIP3    H146542   7.711   4.718  13.653  0.5524  0.3594  1.3509
 7449TIP3    H246543   7.593   4.624  13.636  0.7016  0.4062 -0.1223
 7450TIP3   OH246544   3.559   4.413  10.720  0.0997  0.1684 -0.0775
 7450TIP3    H146545   3.505   4.493  10.713  0.8846  0.6591 -0.6661
 7450TIP3    H246546   3.610   4.412  10.639  1.0734 -0.2194  0.5265
 7451TIP3   OH246547   3.498   1.317  12.231  0.0119 -0.4698 -0.0331
 7451TIP3    H146548   3.439   1.334  12.158  0.5478 -2.3101 -0.9499
 7451TIP3    H246549   3.467   1.235  12.269  1.7979 -1.4199 -0.4547
 7452TIP3   OH246550   3.873   5.619  12.324 -0.6525 -0.4155 -0.2296
 7452TIP3    H146551   3.958   5.648  12.289 -0.9802 -0.6605 -1.2598
 7452TIP3    H246552   3.878   5.640  12.418 -0.0962  1.0854 -0.5632
 7453TIP3   OH246553   2.077   1.434  12.160  0.1196 -0.1028 -0.9919
 7453TIP3    H146554   2.143   1.459  12.225  0.1205 -0.4540 -0.8521
 7453TIP3    H246555   2.109   1.351  12.124 -1.5753 -1.7874  1.0530
 7454TIP3   OH246556   1.304   0.281  11.483  0.3576  0.3082  0.6110
 7454TIP3    H146557   1.303   0.259  11.390 -0.2932 -0.0974  0.7029
 7454TIP3    H246558   1.289   0.198  11.527 -0.8845  0.7215  1.0181
 7455TIP3   OH246559   0.751   3.479  10.525 -0.4009  0.1162  0.0479
 7455TIP3    H146560   0.798   3.438  10.598 -1.5207  2.8970  2.4984
 7455TIP3    H246561   0.761   3.573  10.540  1.1529  0.9625 -4.6688
 7456TIP3   OH246562   2.621   5.637  12.717 -0.1358  0.3039 -0.2916
 7456TIP3    H146563   2.640   5.703  12.651  1.7477 -0.7414 -0.8721
 7456TIP3    H246564   2.684   5.654  12.787 -1.4652  0.7870  0.8426
 7457TIP3   OH246565   7.263   6.683  11.975  0.3354  0.4916 -0.0543
 7457TIP3    H146566   7.322   6.624  12.021  0.7487  1.0624  0.1526
 7457TIP3    H246567   7.200   6.624  11.932  0.5246 -0.0825  0.4340
 7458TIP3   OH246568   3.981   0.441  11.867 -0.0240 -0.4013  0.1859
 7458TIP3    H146569   3.991   0.521  11.918 -1.5711  0.5335 -0.8802
 7458TIP3    H246570   3.896   0.407  11.892  0.0680 -1.0229 -0.3209
 7459TIP3   OH246571   7.659   2.808  13.404  0.2805  0.0827  0.0381
 7459TIP3    H146572   7.600   2.876  13.371 -0.8939 -0.3127  1.2579
 7459TIP3    H246573   7.602   2.735  13.426  1.4013 -0.8709 -0.1206
 7460TIP3   OH246574   5.117   3.205  12.160 -0.4894  0.0964  0.0086
 7460TIP3    H146575   5.097   3.296  12.181  0.4302  0.1135  0.8913
 7460TIP3    H246576   5.044   3.176  12.105 -0.7416  1.3864 -0.3656
 7461TIP3   OH246577   0.257   2.985  10.737  0.3836  0.0972 -0.5222
 7461TIP3    H146578   0.342   3.013  10.772  0.5764 -1.0655 -0.0020
 7461TIP3    H246579   0.198   3.058  10.754  0.2654 -0.6567  2.9828
 7462TIP3   OH246580   4.631   5.545  11.642 -0.3655 -0.3161 -0.5144
 7462TIP3    H146581   4.683   5.465  11.648 -2.7958 -2.0450 -0.8531
 7462TIP3    H246582   4.585   5.537  11.558 -1.8708  0.6387  0.1795
 7463TIP3   OH246583   1.380   1.960  12.103 -0.1676 -0.0169 -0.6094
 7463TIP3    H146584   1.444   2.028  12.083 -1.1947  0.8777 -0.9571
 7463TIP3    H246585   1.296   2.005  12.102 -0.6608 -0.7753  1.7560
 7464TIP3   OH246586   7.158   0.071  11.076 -0.2701  0.0992 -0.3962
 7464TIP3    H146587   7.079   0.042  11.030  1.4774 -2.8203 -1.7764
 7464TIP3    H246588   7.216   0.101  11.006  1.3200 -1.6408  0.1127
 7465TIP3   OH246589   0.733   3.277  11.186 -1.1351  0.3418 -0.0729
 7465TIP3    H146590   0.669   3.258  11.255 -0.6596  0.7684  0.4985
 7465TIP3    H246591   0.699   3.355  11.143  0.1906  2.0529  1.8087
 7466TIP3   OH246592   6.062   0.871  12.593 -0.4681 -0.3307  0.1604
 7466TIP3    H146593   6.094   0.887  12.504 -1.3338 -1.6853 -0.4207
 7466TIP3    H246594   6.108   0.937  12.647 -0.1237  0.6802 -1.3013
 7467TIP3   OH246595   0.836   2.283  10.495 -0.0162 -0.8082 -0.0387
 7467TIP3    H146596   0.893   2.328  10.557  0.2968  0.6327 -1.3065
 7467TIP3    H246597   0.753   2.274  10.541  0.0206  0.7716  0.4053
 7468TIP3   OH246598   1.483   2.864  10.392 -0.4191 -0.9246 -0.5574
 7468TIP3    H146599   1.446   2.935  10.444  1.1989 -1.3324  1.2721
 7468TIP3    H246600   1.410   2.805  10.376 -1.5662  0.6485 -1.2535
 7469TIP3   OH246601   2.093   5.006  11.861  0.7181  0.1756 -0.0598
 7469TIP3    H146602   2.010   4.964  11.885 -1.3828  2.7584 -2.2157
 7469TIP3    H246603   2.137   5.022  11.945 -2.2026  1.0731  1.4306
 7470TIP3   OH246604   7.234   1.176  12.249  0.4565 -0.1179  0.0316
 7470TIP3    H146605   7.153   1.208  12.288  0.6683  0.0326  0.3635
 7470TIP3    H246606   7.294   1.167  12.324  1.0896  0.8324 -0.3385
 7471TIP3   OH246607   5.414   5.332  12.275  0.0249 -1.0837 -0.3216
 7471TIP3    H146608   5.448   5.421  12.289 -0.5207 -0.7822 -0.8705
 7471TIP3    H246609   5.492   5.277  12.271  0.4170 -0.5045 -0.8086
 7472TIP3   OH246610   6.071   4.616  11.510 -0.1849 -0.3359  0.0510
 7472TIP3    H146611   5.984   4.587  11.482 -0.7108  0.4154  0.8723
 7472TIP3    H246612   6.082   4.702  11.469  0.0762 -0.3289  0.1349
 7473TIP3   OH246613   3.248   6.302  11.053  0.0404  0.9001 -0.5558
 7473TIP3    H146614   3.299   6.237  11.101  1.8020  1.9927 -0.8698
 7473TIP3    H246615   3.157   6.276  11.067  0.6029 -0.2829  1.2327
 7474TIP3   OH246616   3.702   3.228  10.740 -0.2787  0.0884 -0.5306
 7474TIP3    H146617   3.708   3.145  10.694 -1.5221  0.2044 -0.9355
 7474TIP3    H246618   3.684   3.205  10.831  0.8290 -0.1049 -0.3444
 7475TIP3   OH246619   1.794   7.350  11.715 -0.5441  0.2916 -0.1920
 7475TIP3    H146620   1.718   7.293  11.728  0.6222 -1.2438  0.1844
 7475TIP3    H246621   1.761   7.421  11.660 -2.0435 -0.7735 -0.7380
 7476TIP3   OH246622   1.179   6.686  12.355 -0.3041  0.7051  0.2739
 7476TIP3    H146623   1.103   6.678  12.298  0.3988  0.9233 -0.7232
 7476TIP3    H246624   1.252   6.699  12.295  0.7061 -0.7158  1.1397
 7477TIP3   OH246625   1.800   6.003  11.252  0.2581  0.1322  0.4236
 7477TIP3    H146626   1.879   5.973  11.296  0.4142  0.9693  0.7319
 7477TIP3    H246627   1.817   5.991  11.159  0.2285 -0.9234  0.5477
 7478TIP3   OH246628   4.140   5.954  11.258  0.9814  0.4165 -1.0164
 7478TIP3    H146629   4.132   6.004  11.177  2.3440  0.8538 -0.8973
 7478TIP3    H246630   4.183   6.014  11.319 -0.5478  0.3002  0.2381
 7479TIP3   OH246631   3.089   7.409  19.306  0.4940 -0.4600  0.1409
 7479TIP3    H146632   3.090   7.314  19.320  4.0435 -0.4832  0.6969
 7479TIP3    H246633   3.035   7.421  19.228 -0.5775 -2.8215  0.4220
 7480TIP3   OH246634   7.341   1.920  12.239 -0.0154 -0.3891 -0.1776
 7480TIP3    H146635   7.268   1.873  12.198 -1.9939  2.1930  0.1666
 7480TIP3    H246636   7.309   1.943  12.326  0.4207  2.4412 -0.6852
 7481TIP3   OH246637   0.544   0.002  13.080  0.2299 -0.5609  0.6416
 7481TIP3    H146638   0.599  -0.076  13.085 -0.5375 -1.0886  1.4543
 7481TIP3    H246639   0.590   0.062  13.022  1.7574 -0.8897  1.4606
 7482TIP3   OH246640   5.429   0.653  12.289  0.0709 -0.1080 -0.0428
 7482TIP3    H146641   5.499   0.674  12.351 -0.1927  3.7780 -0.7990
 7482TIP3    H246642   5.361   0.718  12.306 -1.2688 -0.7160 -2.5211
 7483TIP3   OH246643   1.163   3.478  11.447 -0.0064  0.3258 -0.2984
 7483TIP3    H146644   1.128   3.417  11.512  1.6916 -0.7110 -0.2941
 7483TIP3    H246645   1.157   3.430  11.364 -0.3460  0.8830 -0.6020
 7484TIP3   OH246646   1.788   6.601  10.827 -0.0633  0.3009 -0.2028
 7484TIP3    H146647   1.879   6.587  10.853 -0.6016  1.0791  2.4666
 7484TIP3    H246648   1.792   6.663  10.755  1.5522 -0.8026 -1.1180
 7485TIP3   OH246649   6.514   6.423  13.286  0.0508 -0.3854 -0.1412
 7485TIP3    H146650   6.555   6.499  13.328 -0.5210 -0.6157  0.8735
 7485TIP3    H246651   6.561   6.348  13.321 -0.1549 -0.5640 -0.2456
 7486TIP3   OH246652   3.586   0.471  11.198  0.0806 -0.3367 -0.6484
 7486TIP3    H146653   3.500   0.440  11.168 -0.2968  0.0375  0.0281
 7486TIP3    H246654   3.601   0.426  11.281  0.8401 -0.8905 -1.0724
 7487TIP3   OH246655   4.742   5.807  10.783 -0.5128  0.1262 -0.2394
 7487TIP3    H146656   4.811   5.801  10.717 -1.6270  0.8291 -1.5115
 7487TIP3    H246657   4.699   5.722  10.781 -0.1609 -0.0612  0.0326
 7488TIP3   OH246658   6.441   5.399  12.966 -0.5711  0.2304 -0.1113
 7488TIP3    H146659   6.389   5.478  12.979 -2.1270 -0.7845  0.0053
 7488TIP3    H246660   6.448   5.361  13.053  0.6690  0.5106 -0.0697
 7489TIP3   OH246661   7.203   4.364  11.850 -0.8342  0.0652 -0.1882
 7489TIP3    H146662   7.242   4.300  11.910 -0.3357 -0.1040 -0.6905
 7489TIP3    H246663   7.275   4.393  11.795 -1.3694 -0.1066 -0.9984
 7490TIP3   OH246664   1.529   2.645  11.722 -0.0996 -0.0069  0.6395
 7490TIP3    H146665   1.522   2.741  11.723  0.0317 -0.0019  1.0451
 7490TIP3    H246666   1.504   2.617  11.810 -2.0144 -0.5021 -0.0117
 7491TIP3   OH246667   6.996   2.757  12.153 -0.0659  0.4301 -0.2488
 7491TIP3    H146668   6.977   2.805  12.072 -0.4532 -0.4495 -0.6887
 7491TIP3    H246669   6.961   2.813  12.222 -2.1138  0.0044 -0.8670
 7492TIP3   OH246670   1.489   4.045  12.493  0.6286 -0.0813  0.6696
 7492TIP3    H146671   1.554   4.049  12.563  0.7753  1.1004  0.4940
 7492TIP3    H246672   1.447   3.960  12.504  0.8390 -0.0359  2.0185
 7493TIP3   OH246673   2.020   2.183  12.191 -0.2937  0.1687  0.0266
 7493TIP3    H146674   2.090   2.121  12.210 -0.9459 -0.7551 -0.4992
 7493TIP3    H246675   1.958   2.173  12.264 -0.6188 -0.1483 -0.2830
 7494TIP3   OH246676   4.645   3.445  12.416  0.2662 -0.2656 -0.3009
 7494TIP3    H146677   4.625   3.466  12.325  0.0371  1.6279  0.1437
 7494TIP3    H246678   4.569   3.396  12.447  0.5751 -1.3887 -1.2500
 7495TIP3   OH246679   5.353   2.490  11.616 -0.0023 -0.1862  0.0758
 7495TIP3    H146680   5.353   2.408  11.665 -2.9780 -0.5431 -0.2938
 7495TIP3    H246681   5.386   2.466  11.529  0.4749 -0.6726  0.3833
 7496TIP3   OH246682   7.659   3.489  11.935  0.2437  0.3849  0.2734
 7496TIP3    H146683   7.726   3.534  11.985  1.4654 -0.2802 -0.7086
 7496TIP3    H246684   7.638   3.549  11.863 -1.5064  1.3392  1.5041
 7497TIP3   OH246685   2.049   4.995  12.912 -0.3223  0.1258 -0.1182
 7497TIP3    H146686   2.072   4.926  12.849 -1.5130  1.1101 -1.6843
 7497TIP3    H246687   1.960   4.972  12.940  0.5377 -0.8417  2.0196
 7498TIP3   OH246688   2.247   5.288  10.585 -0.5047 -0.0324  0.6100
 7498TIP3    H146689   2.332   5.249  10.565 -1.0177 -0.4045 -1.0897
 7498TIP3    H246690   2.211   5.233  10.654  0.0520 -0.7499  0.3432
 7499TIP3   OH246691   4.192   1.708  11.165  0.2954  0.0515 -0.5088
 7499TIP3    H146692   4.181   1.735  11.256  1.7428 -0.0409 -0.2901
 7499TIP3    H246693   4.227   1.620  11.169 -0.3337 -0.2432 -1.1767
 7500TIP3   OH246694   4.730   1.529  11.115  0.1359  0.1240 -0.1171
 7500TIP3    H146695   4.679   1.465  11.164 -0.9303 -0.1369 -1.5105
 7500TIP3    H246696   4.685   1.612  11.131  0.8536  0.3674  0.7656
 7501TIP3   OH246697   7.199   1.805  13.387 -0.1351 -0.2602 -0.1650
 7501TIP3    H146698   7.160   1.856  13.457  0.9597 -1.8715  1.7152
 7501TIP3    H246699   7.196   1.714  13.418  0.8171 -0.9746 -1.9968
 7502TIP3   OH246700   2.722   1.698  11.120 -0.1203 -0.2495  0.2178
 7502TIP3    H146701   2.811   1.726  11.142 -0.4253  0.8732  0.0783
 7502TIP3    H246702   2.719   1.699  11.024 -0.6704  1.0489  0.2282
 7503TIP3   OH246703   1.201   1.357  10.593 -0.0280 -0.3823 -0.0373
 7503TIP3    H146704   1.140   1.320  10.530 -0.6355 -0.0182  0.3302
 7503TIP3    H246705   1.146   1.390  10.664  0.6338 -0.5832  0.5803
 7504TIP3   OH246706   7.100   3.195  10.908 -0.2571 -0.0454 -0.4610
 7504TIP3    H146707   7.184   3.162  10.940  0.3652  0.6170 -1.3834
 7504TIP3    H246708   7.035   3.151  10.963  0.7022 -0.2677  0.5281
 7505TIP3   OH246709   3.233   3.246  12.219  0.2898 -0.0573 -0.3241
 7505TIP3    H146710   3.233   3.196  12.137  0.8545  0.6998 -0.8056
 7505TIP3    H246711   3.192   3.329  12.196  0.2208  0.0630  0.2283
 7506TIP3   OH246712   0.988   7.480  10.631 -0.0865  0.0904  0.1402
 7506TIP3    H146713   0.970   7.388  10.612 -0.4243  0.5524 -1.9940
 7506TIP3    H246714   0.923   7.504  10.697 -0.4276 -1.0100  0.2244
 7507TIP3   OH246715   6.836   2.668  11.149  0.3659 -0.1112 -1.1732
 7507TIP3    H146716   6.886   2.740  11.187  1.5882 -1.9345  0.9291
 7507TIP3    H246717   6.745   2.698  11.151  0.9235  1.6699 -1.1115
 7508TIP3   OH246718   0.696   4.275  12.899  0.9047  0.1029  0.3769
 7508TIP3    H146719   0.685   4.185  12.868 -2.4872  0.9040 -1.2424
 7508TIP3    H246720   0.679   4.271  12.993 -1.1604 -0.7610  0.0138
 7509TIP3   OH246721   7.195   6.249  11.862 -0.2191  0.2368  0.7492
 7509TIP3    H146722   7.184   6.158  11.890  1.4770 -0.1925  0.1649
 7509TIP3    H246723   7.285   6.271  11.888  0.3376  0.8310 -1.4897
 7510TIP3   OH246724   2.215   5.471  12.981  0.3124  0.1672 -0.0893
 7510TIP3    H146725   2.244   5.552  12.939  0.6833  0.1714  0.1638
 7510TIP3    H246726   2.132   5.493  13.022  0.3726  0.3979 -0.0896
 7511TIP3   OH246727   1.968   5.853  12.393 -0.2339 -0.3743  0.3684
 7511TIP3    H146728   1.949   5.887  12.306 -0.6170  0.4094  0.7422
 7511TIP3    H246729   1.945   5.925  12.452  0.8081 -0.5758  1.0629
 7512TIP3   OH246730   7.218   5.766  11.700 -0.4452  0.0183  0.2249
 7512TIP3    H146731   7.264   5.796  11.622  2.3901 -1.9517  0.9971
 7512TIP3    H246732   7.209   5.671  11.689 -3.3849  0.1389  0.6888
 7513TIP3   OH246733   5.984   5.799  11.410  0.3021 -0.4441  0.3195
 7513TIP3    H146734   5.984   5.885  11.453 -0.4265 -0.6300  0.7140
 7513TIP3    H246735   6.056   5.804  11.347  1.9306 -0.4488  2.1037
 7514TIP3   OH246736   6.070   2.939  11.349 -0.1476  0.1346  0.1154
 7514TIP3    H146737   6.111   2.879  11.287 -1.2972  0.3005 -0.8286
 7514TIP3    H246738   6.104   2.912  11.435 -1.0652 -2.2739 -0.1973
 7515TIP3   OH246739   3.376   5.822  11.091 -0.4850  0.1748 -0.4460
 7515TIP3    H146740   3.312   5.760  11.125  0.4642  0.4798  2.1074
 7515TIP3    H246741   3.459   5.797  11.132  0.6570  1.0130 -2.1033
 7516TIP3   OH246742   2.931   1.560  12.115 -0.3964  0.1213  0.3538
 7516TIP3    H146743   2.856   1.521  12.160  0.1553 -1.8620 -0.3161
 7516TIP3    H246744   2.981   1.603  12.184 -1.2575 -0.0081  1.0750
 7517TIP3   OH246745   4.344   7.200  10.826 -0.0989 -0.4305 -0.4952
 7517TIP3    H146746   4.332   7.287  10.790 -1.7210 -0.3516  0.1886
 7517TIP3    H246747   4.257   7.161  10.827  0.0475 -0.8535  2.2449
 7518TIP3   OH246748   6.331   6.207  10.662 -0.5209  0.1684 -0.3445
 7518TIP3    H146749   6.313   6.119  10.630  1.2487 -0.7966  1.1648
 7518TIP3    H246750   6.282   6.214  10.745 -1.8706  1.2137 -1.1676
 7519TIP3   OH246751   1.413   0.159  12.268 -0.0081  0.1362  0.2547
 7519TIP3    H146752   1.413   0.088  12.333 -0.6286  0.4450  0.6063
 7519TIP3    H246753   1.504   0.167  12.241  0.1817 -0.3312  0.7279
 7520TIP3   OH246754   6.889   3.829  12.236 -0.1894  0.4777  0.3541
 7520TIP3    H146755   6.924   3.912  12.270 -1.8540  1.4477 -0.2091
 7520TIP3    H246756   6.808   3.816  12.284 -0.0559 -0.7336  0.2687
 7521TIP3   OH246757   1.055   6.571  12.097  0.1646  0.2509 -0.0300
 7521TIP3    H146758   1.056   6.523  12.014 -0.4139  0.6695 -0.2867
 7521TIP3    H246759   1.069   6.503  12.163 -1.3002 -0.3989 -0.3388
 7522TIP3   OH246760   1.143   0.846  11.572 -0.4002 -0.4857  0.1772
 7522TIP3    H146761   1.063   0.797  11.554 -1.1003  0.6409  0.1119
 7522TIP3    H246762   1.207   0.780  11.598 -1.2331 -1.4469 -0.1606
 7523TIP3   OH246763   7.186   2.790  10.726  0.6709  0.4409  0.0360
 7523TIP3    H146764   7.115   2.831  10.678  0.0321  0.5212  1.0158
 7523TIP3    H246765   7.254   2.858  10.731  0.3677  0.7487  0.0434
 7524TIP3   OH246766   5.028   5.177  11.642  0.0383 -0.4655  0.7229
 7524TIP3    H146767   5.006   5.089  11.613  2.5375 -0.5968 -1.1677
 7524TIP3    H246768   5.079   5.214  11.570 -0.8995  2.5665  1.4457
 7525TIP3   OH246769   1.807   5.499  10.611  0.7765  0.1605  0.3270
 7525TIP3    H146770   1.856   5.419  10.630 -0.4178 -0.8414 -0.6271
 7525TIP3    H246771   1.738   5.471  10.552 -1.4969  1.3325  2.2714
 7526TIP3   OH246772   7.399   4.132  10.936  0.2935  0.0507  0.2933
 7526TIP3    H146773   7.410   4.038  10.949 -1.1775 -0.2488 -0.3830
 7526TIP3    H246774   7.337   4.139  10.863  0.6805  1.5542  0.0615
 7527TIP3   OH246775   4.245   6.643  12.170  0.3560 -0.1513  0.4693
 7527TIP3    H146776   4.234   6.559  12.126 -1.0320  0.2956 -0.0640
 7527TIP3    H246777   4.311   6.689  12.117  0.0351 -0.3272 -0.0911
 7528TIP3   OH246778   3.729   4.083  12.830  0.5175 -0.4742  0.2902
 7528TIP3    H146779   3.639   4.061  12.807  0.8538 -1.2789 -0.2907
 7528TIP3    H246780   3.747   4.165  12.784  1.2306 -2.1171 -2.6079
 7529TIP3   OH246781   5.923   0.729  11.474  0.3301  0.2942 -0.1267
 7529TIP3    H146782   5.956   0.795  11.535 -1.2601  0.3231  0.7477
 7529TIP3    H246783   5.891   0.779  11.399 -0.0586  0.4642  0.1478
 7530TIP3   OH246784   5.003   7.167  12.027 -0.0658 -0.0644 -0.0650
 7530TIP3    H146785   5.062   7.094  12.046  0.5927  0.4932  0.0781
 7530TIP3    H246786   5.051   7.244  12.055 -0.4999  0.4833 -0.7989
 7531TIP3   OH246787   4.266   0.094  12.451 -0.2598 -0.2035 -0.2487
 7531TIP3    H146788   4.198   0.074  12.387 -0.2637 -0.9649 -0.0161
 7531TIP3    H246789   4.225   0.076  12.536  0.6034 -1.9469 -0.1490
 7532TIP3   OH246790   3.859   4.499  13.000  0.2138  0.3320  0.0529
 7532TIP3    H146791   3.805   4.504  12.921 -0.4979 -0.9672  0.4227
 7532TIP3    H246792   3.801   4.528  13.070  1.2492  2.7871 -0.0262
 7533TIP3   OH246793   6.792   3.213  12.780  0.7671 -0.3545  0.2317
 7533TIP3    H146794   6.727   3.155  12.819  0.7273 -0.6865 -0.3113
 7533TIP3    H246795   6.766   3.218  12.687 -0.1243  1.7329  0.5445
 7534TIP3   OH246796   5.859   4.976  11.729  0.1682  0.1816 -0.1519
 7534TIP3    H146797   5.802   4.974  11.653  2.0618  1.1592 -1.7061
 7534TIP3    H246798   5.829   4.904  11.785 -3.0327  1.1652 -0.4491
 7535TIP3   OH246799   1.811   7.554  12.284 -0.0802 -0.6655  0.1748
 7535TIP3    H146800   1.737   7.599  12.326 -0.6392 -0.6029 -0.8466
 7535TIP3    H246801   1.778   7.530  12.198  0.1347 -3.2242  0.7310
 7536TIP3   OH246802   2.665   4.679  11.877 -0.0754  0.1515 -0.1355
 7536TIP3    H146803   2.731   4.696  11.944 -0.2765  1.8535 -0.3301
 7536TIP3    H246804   2.712   4.632  11.808  0.4060 -0.5723  0.6671
 7537TIP3   OH246805   7.552   1.881  11.456 -0.3085  0.8151  0.1158
 7537TIP3    H146806   7.502   1.863  11.377  0.9519  4.8946 -1.9165
 7537TIP3    H246807   7.501   1.948  11.502  1.0646  1.7376  0.3721
 7538TIP3   OH246808   4.178   4.216  13.067  0.3292  0.2616 -0.1122
 7538TIP3    H146809   4.145   4.295  13.025  2.3477  1.4076  0.2969
 7538TIP3    H246810   4.111   4.150  13.052 -0.2400  1.3395 -2.7617
 7539TIP3   OH246811   0.150   3.796  13.656  0.2679  0.0926  0.1194
 7539TIP3    H146812   0.107   3.821  13.575 -0.4173 -0.9430  0.1486
 7539TIP3    H246813   0.083   3.750  13.706  1.5912 -2.3157 -0.1787
 7540TIP3   OH246814   0.213   0.008  12.376  0.1360  0.2071 -0.1457
 7540TIP3    H146815   0.271   0.076  12.341 -0.1951  0.4472 -0.2352
 7540TIP3    H246816   0.139   0.006  12.315  1.4372 -2.2239 -1.8325
 7541TIP3   OH246817   4.556   2.206  12.227  0.0640  0.6203  0.2396
 7541TIP3    H146818   4.641   2.248  12.245  0.0973  1.4620 -1.6480
 7541TIP3    H246819   4.525   2.177  12.313  1.0153  2.6838  1.3621
 7542TIP3   OH246820   5.643   6.968  11.189 -0.4590 -0.6126 -0.1433
 7542TIP3    H146821   5.661   6.879  11.218  0.2730 -0.4205  0.0260
 7542TIP3    H246822   5.584   7.004  11.255  0.6515 -0.4007  0.7805
 7543TIP3   OH246823   4.209   2.615  12.468  0.1210 -0.1631  0.3226
 7543TIP3    H146824   4.235   2.677  12.536 -0.8601  0.1050  0.4735
 7543TIP3    H246825   4.133   2.569  12.504  0.0739 -0.5791 -0.2764
 7544TIP3   OH246826   3.914   5.107  10.869 -0.1402 -0.1474 -0.1555
 7544TIP3    H146827   3.900   5.016  10.845  0.2721 -0.5045  0.8960
 7544TIP3    H246828   3.873   5.116  10.955 -0.1510  0.6542 -0.2333
 7545TIP3   OH246829   7.422   3.590  11.633  0.6365 -0.5471  0.2422
 7545TIP3    H146830   7.516   3.586  11.619  0.4692 -0.6804 -0.9419
 7545TIP3    H246831   7.396   3.499  11.648  0.4875 -0.7462 -1.0601
 7546TIP3   OH246832   1.056   4.078  10.299 -0.0447  0.0663 -0.0886
 7546TIP3    H146833   1.011   4.128  10.231 -0.7487  1.3989  1.2913
 7546TIP3    H246834   1.080   4.143  10.365  3.7567 -0.6101 -0.5835
 7547TIP3   OH246835   4.644   7.532  10.951  0.1508  0.4507  0.5895
 7547TIP3    H146836   4.733   7.511  10.977  0.0628  1.5354  1.8379
 7547TIP3    H246837   4.654   7.577  10.867  0.6609 -0.4457  0.1440
 7548TIP3   OH246838   6.379   3.920  11.265 -0.4192 -0.0518 -0.0876
 7548TIP3    H146839   6.356   3.841  11.215  0.9813 -1.5844  1.5866
 7548TIP3    H246840   6.461   3.950  11.226  0.3152 -0.8481  0.8339
 7549TIP3   OH246841   7.493   0.310  12.651 -0.6124 -0.5049 -0.1528
 7549TIP3    H146842   7.501   0.371  12.724  2.0090 -0.1816 -0.6232
 7549TIP3    H246843   7.475   0.365  12.575  1.4582 -0.2475 -0.5248
 7550TIP3   OH246844   3.239   2.002  10.725  0.3677 -0.1748 -0.3460
 7550TIP3    H146845   3.227   1.907  10.736 -0.9281  0.1659  1.6613
 7550TIP3    H246846   3.334   2.013  10.714  0.4245 -1.7778 -1.9518
 7551TIP3   OH246847   6.455   4.247  11.581  0.2821  0.4219 -0.1955
 7551TIP3    H146848   6.398   4.302  11.527  0.1205  1.1953  0.7178
 7551TIP3    H246849   6.420   4.257  11.670  1.1286 -0.0291  0.2035
 7552TIP3   OH246850   0.034   0.563  11.424  0.0513  0.1458 -0.1911
 7552TIP3    H146851  -0.018   0.583  11.502 -0.6496 -2.6916  0.1654
 7552TIP3    H246852  -0.030   0.554  11.354  0.4754  0.4464 -0.6296
 7553TIP3   OH246853   0.830   6.797  11.837 -0.1112 -0.0885  0.0585
 7553TIP3    H146854   0.753   6.819  11.784 -0.7404 -1.0590  0.5433
 7553TIP3    H246855   0.875   6.729  11.786 -1.3231 -1.8543  1.2214
 7554TIP3   OH246856   4.072   6.292  11.358 -0.2217 -0.0807  0.8590
 7554TIP3    H146857   4.011   6.218  11.365 -0.2242 -0.0672  0.9790
 7554TIP3    H246858   4.158   6.251  11.347 -0.2883 -0.0993  0.3542
 7555TIP3   OH246859   4.037   1.827  10.966  0.7372  0.0022 -0.5206
 7555TIP3    H146860   4.093   1.775  11.024 -0.5195 -1.0983 -0.2437
 7555TIP3    H246861   4.035   1.914  11.006 -1.2153 -1.0650  2.0028
 7556TIP3   OH246862   2.680   7.504  11.344 -0.3768 -0.0350 -0.0673
 7556TIP3    H146863   2.676   7.413  11.374 -0.5976  0.0430  0.1422
 7556TIP3    H246864   2.588   7.531  11.335 -0.3125  0.2783  0.2072
 7557TIP3   OH246865   3.495   1.663  10.982 -0.1236  0.0765 -0.3564
 7557TIP3    H146866   3.481   1.757  10.980 -1.2207 -0.0650 -0.0947
 7557TIP3    H246867   3.584   1.651  10.949  0.3179  1.2516  0.3462
 7558TIP3   OH246868   1.306   7.586  12.354  0.2006 -0.1510 -0.1366
 7558TIP3    H146869   1.214   7.563  12.360  0.1676 -0.1729 -0.6482
 7558TIP3    H246870   1.328   7.574  12.261  0.1964  1.8085 -0.4363
 7559TIP3   OH246871   3.298   1.747  10.759 -0.0350  0.0492  0.4875
 7559TIP3    H146872   3.386   1.783  10.770  0.2735 -0.4170 -0.4067
 7559TIP3    H246873   3.285   1.690  10.835  1.6330 -2.2763 -0.8455
 7560TIP3   OH246874   4.451   3.490  12.863 -0.5325 -0.4740  0.0225
 7560TIP3    H146875   4.534   3.520  12.899 -0.0957 -1.9894  0.3403
 7560TIP3    H246876   4.448   3.396  12.883 -1.1454 -0.9948 -2.2209
 7561TIP3   OH246877   6.129   2.365  13.135 -0.0632 -0.5159 -0.1010
 7561TIP3    H146878   6.036   2.372  13.156  0.0718 -1.4069  0.8260
 7561TIP3    H246879   6.170   2.331  13.214  1.3003  1.2761  0.0254
 7562TIP3   OH246880   1.391   0.398  11.031 -0.0498 -0.4120  0.1205
 7562TIP3    H146881   1.378   0.329  11.096  0.5277  0.3644  1.0810
 7562TIP3    H246882   1.380   0.353  10.947 -2.4120 -1.1378  0.7217
 7563TIP3   OH246883   5.213   2.030  12.315  0.4378  0.2975 -0.2454
 7563TIP3    H146884   5.131   1.982  12.302  0.6623  0.0556 -0.7779
 7563TIP3    H246885   5.247   2.044  12.227 -0.4713  2.9218 -0.2891
 7564TIP3   OH246886   1.581   7.214  12.181  0.0342 -0.2742 -0.5763
 7564TIP3    H146887   1.655   7.246  12.128  0.2385 -1.4988 -1.0624
 7564TIP3    H246888   1.620   7.149  12.239 -0.7181 -1.2266 -1.1184
 7565TIP3   OH246889   2.405   4.669  11.896  0.2360 -0.1518 -0.0691
 7565TIP3    H146890   2.376   4.659  11.986 -0.4576 -1.2348 -0.3956
 7565TIP3    H246891   2.500   4.664  11.900  0.1456 -2.6347  0.3588
 7566TIP3   OH246892   6.909   6.746  11.682  0.2249  0.0672 -0.2517
 7566TIP3    H146893   6.823   6.726  11.645  0.4078 -1.2501 -0.0321
 7566TIP3    H246894   6.958   6.786  11.611  0.3998 -1.9367 -1.3361
 7567TIP3   OH246895   2.108   2.183  10.715  0.6211 -0.4491  0.1663
 7567TIP3    H146896   2.106   2.088  10.731 -0.8884 -0.4741 -0.0107
 7567TIP3    H246897   2.197   2.209  10.740  0.5810 -1.6506  1.7634
 7568TIP3   OH246898   5.186   5.885  11.466  0.3905 -0.7352  0.3661
 7568TIP3    H146899   5.264   5.918  11.421 -0.7207  0.7724 -0.5688
 7568TIP3    H246900   5.189   5.927  11.552 -0.1605  0.6100 -0.2340
 7569TIP3   OH246901   0.609   5.266  12.830  0.5627  0.1556  0.1810
 7569TIP3    H146902   0.622   5.238  12.739  0.9261 -0.1523  0.3228
 7569TIP3    H246903   0.566   5.351  12.823  0.8223  0.2531 -0.2875
 7570TIP3   OH246904   3.111   1.990  11.450 -0.4146  0.7333  0.0135
 7570TIP3    H146905   3.163   1.939  11.388  0.7133  1.4093  0.3537
 7570TIP3    H246906   3.031   2.012  11.403 -0.1405  0.1573 -0.7451
 7571TIP3   OH246907   4.278   5.277  11.089  0.4912 -0.1587  0.0639
 7571TIP3    H146908   4.315   5.190  11.070  3.4462  0.7399  1.2546
 7571TIP3    H246909   4.325   5.336  11.030  1.0675  1.0569  1.6878
 7572TIP3   OH246910   5.819   4.233  11.949 -0.0516 -0.1375 -0.0353
 7572TIP3    H146911   5.787   4.244  12.038  0.5446  1.4063  0.0236
 7572TIP3    H246912   5.914   4.235  11.958  0.0065  0.3639 -0.7470
 7573TIP3   OH246913   6.975   4.635  13.182  0.4506  0.0566  0.2899
 7573TIP3    H146914   7.037   4.584  13.234 -1.3632 -1.0329  1.5138
 7573TIP3    H246915   6.992   4.726  13.206 -0.0836 -0.3900  2.6186
 7574TIP3   OH246916   6.608   5.075  10.696 -0.3973  0.0484  0.2811
 7574TIP3    H146917   6.696   5.069  10.733 -0.1328 -1.3248 -0.4830
 7574TIP3    H246918   6.598   5.167  10.673  0.6156  0.3351  0.9032
 7575TIP3   OH246919   5.837   4.105  13.172 -0.4999 -0.3656 -0.3553
 7575TIP3    H146920   5.821   4.070  13.259 -0.3582 -0.6392 -0.4396
 7575TIP3    H246921   5.749   4.118  13.135 -0.5464 -1.0546 -0.4942
 7576TIP3   OH246922   5.986   0.689  11.172 -0.0443 -0.3546  0.3711
 7576TIP3    H146923   5.953   0.703  11.084 -0.2613  1.1482  0.6763
 7576TIP3    H246924   5.943   0.608  11.201 -0.8588 -0.2252 -0.4589
 7577TIP3   OH246925   3.259   3.536  10.877  0.0029 -0.6313 -0.1654
 7577TIP3    H146926   3.354   3.551  10.874 -0.0160 -0.6220 -0.9486
 7577TIP3    H246927   3.221   3.622  10.893  0.1749 -0.8227  1.4065
 7578TIP3   OH246928   1.017   1.845  12.811  0.9660  0.8911  0.6358
 7578TIP3    H146929   0.934   1.869  12.851 -0.2284 -0.2866 -1.0290
 7578TIP3    H246930   1.061   1.790  12.877 -1.0118 -1.1462  0.3437
 7579TIP3   OH246931   7.116   6.758  12.574 -0.0074 -0.5142 -0.3650
 7579TIP3    H146932   7.120   6.838  12.520 -0.7093 -0.5216 -0.4404
 7579TIP3    H246933   7.201   6.754  12.617  1.1878 -1.3460 -2.6703
 7580TIP3   OH246934   2.522   6.592  10.745 -0.1351 -0.2996 -0.2903
 7580TIP3    H146935   2.504   6.670  10.798  0.9282 -0.8126  0.8717
 7580TIP3    H246936   2.452   6.530  10.768  0.5918 -0.6957  0.9004
 7581TIP3   OH246937   1.136   2.194  11.213 -0.2674 -0.0200  0.0591
 7581TIP3    H146938   1.149   2.144  11.133  0.0107  0.5664 -0.2646
 7581TIP3    H246939   1.213   2.176  11.266 -0.1124  0.1636 -0.1065
 7582TIP3   OH246940   1.958   1.805  12.168 -0.3333  0.0131 -0.1267
 7582TIP3    H146941   2.021   1.870  12.199 -1.0003  0.8517 -0.5033
 7582TIP3    H246942   1.914   1.776  12.247  1.4094 -1.5918  0.3425
 7583TIP3   OH246943   2.091   0.240  10.887 -0.4790 -0.8293  0.1096
 7583TIP3    H146944   2.106   0.155  10.846 -2.1332 -0.3770 -1.6469
 7583TIP3    H246945   1.996   0.243  10.900 -0.5258  0.9441 -0.4101
 7584TIP3   OH246946   6.277   0.791  10.647 -0.4444  0.5211  0.4379
 7584TIP3    H146947   6.277   0.699  10.670  1.3928  0.9767  2.7269
 7584TIP3    H246948   6.185   0.818  10.650 -1.4898 -1.8566 -3.7080
 7585TIP3   OH246949   1.185   5.912  12.350 -0.0025  1.3798 -0.4216
 7585TIP3    H146950   1.187   5.862  12.432  0.8227  0.4031 -1.0231
 7585TIP3    H246951   1.264   5.886  12.304 -1.1025  0.9046 -2.1298
 7586TIP3   OH246952   3.796   5.689  10.951 -0.5023  0.0353  0.1361
 7586TIP3    H146953   3.839   5.664  11.034  0.0199 -0.6781 -0.3322
 7586TIP3    H246954   3.704   5.702  10.975 -0.7279 -1.9259  0.5269
 7587TIP3   OH246955   1.175   7.527  10.826 -0.1420  0.0938 -0.8922
 7587TIP3    H146956   1.159   7.615  10.859 -0.9736 -0.0804 -0.8084
 7587TIP3    H246957   1.122   7.521  10.746  1.2207  0.2334 -1.8475
 7588TIP3   OH246958   3.987   3.852  11.569  0.2773  0.8286 -0.0107
 7588TIP3    H146959   3.900   3.838  11.608  0.1140  2.0289  0.0943
 7588TIP3    H246960   3.974   3.838  11.475 -0.1226  1.3728 -0.0412
 7589TIP3   OH246961   5.887   6.337  11.092 -0.1678  0.7733  0.3199
 7589TIP3    H146962   5.807   6.308  11.048 -0.4203  1.9837 -0.0678
 7589TIP3    H246963   5.953   6.341  11.022  0.5211 -1.1059  0.7943
 7590TIP3   OH246964   5.654   6.635  12.611 -0.4939 -0.2744 -0.3928
 7590TIP3    H146965   5.677   6.718  12.653  1.2186  0.1319 -1.9597
 7590TIP3    H246966   5.564   6.618  12.638 -0.8865  2.0866  0.0044
 7591TIP3   OH246967   3.844   4.258  11.863  0.6478 -0.1745  0.3860
 7591TIP3    H146968   3.804   4.245  11.949 -1.9715  0.2285 -0.6562
 7591TIP3    H246969   3.925   4.304  11.880 -0.4977  1.1994  2.5624
 7592TIP3   OH246970   0.447   2.329  12.077 -0.1848  0.4580  0.4133
 7592TIP3    H146971   0.491   2.307  11.995  0.2162  1.2825  0.3916
 7592TIP3    H246972   0.463   2.254  12.135  0.0692  0.1512 -0.0512
 7593TIP3   OH246973   6.109   3.827  11.903  0.0977  0.0985 -0.5205
 7593TIP3    H146974   6.113   3.912  11.946  0.3024 -0.3967  0.4694
 7593TIP3    H246975   6.015   3.810  11.892  0.0427  0.1823 -0.1800
 7594TIP3   OH246976   6.808   2.000  11.271 -0.4497  0.2218  0.4648
 7594TIP3    H146977   6.820   2.054  11.349 -0.5514  2.4924 -1.0154
 7594TIP3    H246978   6.896   1.975  11.245 -0.1778  1.8087 -0.2327
 7595TIP3   OH246979   0.686   5.223  13.531  0.3612  0.3099 -0.3307
 7595TIP3    H146980   0.664   5.315  13.516 -3.0967 -0.6854 -2.7702
 7595TIP3    H246981   0.659   5.207  13.622 -1.3226  1.2027 -0.6328
 7596TIP3   OH246982   0.305   5.882  11.187 -0.2263 -0.2576 -0.6370
 7596TIP3    H146983   0.397   5.872  11.210 -0.1410  2.1666  0.3784
 7596TIP3    H246984   0.264   5.919  11.266 -2.0729 -1.1907 -1.0926
 7597TIP3   OH246985   1.263   0.739  10.348 -0.1430  0.4060 -0.1180
 7597TIP3    H146986   1.197   0.669  10.354 -1.9532  1.9660 -0.7352
 7597TIP3    H246987   1.339   0.705  10.395 -1.6897 -1.1580  1.3789
 7598TIP3   OH246988   5.831   0.787  12.272 -0.0743  0.0346 -0.9113
 7598TIP3    H146989   5.909   0.810  12.221 -0.0142 -2.0073 -1.8124
 7598TIP3    H246990   5.761   0.780  12.207 -0.4619 -0.5874 -0.4373
 7599TIP3   OH246991   4.546   3.163  11.289 -0.0798  0.1367 -0.2113
 7599TIP3    H146992   4.479   3.224  11.257 -0.4069  0.7057  1.4758
 7599TIP3    H246993   4.600   3.216  11.348  1.6615 -0.4144 -1.2317
 7600TIP3   OH246994   4.906   3.605  11.366  0.0356 -0.1746  0.1342
 7600TIP3    H146995   4.905   3.695  11.397 -1.4750  0.1611 -0.7398
 7600TIP3    H246996   4.860   3.608  11.282  0.4644 -1.6650 -0.1927
 7601TIP3   OH246997   5.960   7.250  10.968 -0.2189  0.0125  0.4825
 7601TIP3    H146998   5.870   7.222  10.948 -0.6746  1.8188 -0.1705
 7601TIP3    H246999   6.012   7.211  10.898 -1.2085  2.7320 -1.9517
 7602TIP3   OH247000   6.262   6.656  11.473  0.4828  0.1098  0.1972
 7602TIP3    H147001   6.256   6.641  11.379  1.4640 -1.3157  0.3421
 7602TIP3    H247002   6.333   6.720  11.482 -0.2243  0.9534 -0.0722
 7603TIP3   OH247003   1.331   5.661  13.309 -0.0421  0.3189 -0.2095
 7603TIP3    H147004   1.373   5.700  13.385  0.3190 -0.7518  0.1513
 7603TIP3    H247005   1.239   5.649  13.335 -0.0518  0.4954 -0.1594
 7604TIP3   OH247006   6.935   5.924  10.900  0.2379 -0.5126  0.5684
 7604TIP3    H147007   6.845   5.915  10.869  0.0967 -2.7489  1.4528
 7604TIP3    H247008   6.930   5.912  10.995  1.7025 -3.3294  0.3828
 7605TIP3   OH247009   6.799   2.386  13.640  0.3253  0.1759 -0.2889
 7605TIP3    H147010   6.782   2.462  13.585 -0.2929  0.3895  0.1906
 7605TIP3    H247011   6.720   2.332  13.633  1.5842 -1.5510 -2.3883
 7606TIP3   OH247012   2.450   5.167  10.820  0.1854 -1.0816 -0.7613
 7606TIP3    H147013   2.363   5.137  10.795 -0.7657 -0.1317  1.1611
 7606TIP3    H247014   2.463   5.130  10.908  0.4548  1.1357  0.1971
 7607TIP3   OH247015   2.474   7.587  13.036 -0.3361  0.6783  0.0864
 7607TIP3    H147016   2.433   7.658  13.086 -1.3082 -1.0372  1.8190
 7607TIP3    H247017   2.551   7.563  13.086 -0.9214 -0.5827  0.4121
 7608TIP3   OH247018   6.037   3.673  13.387 -0.3789  0.5642 -0.9976
 7608TIP3    H147019   6.084   3.757  13.392 -0.0601  0.3855 -0.9551
 7608TIP3    H247020   6.103   3.607  13.409 -1.1791  0.4548  1.4407
 7609TIP3   OH247021   0.685   3.188  13.603  0.3197 -0.4702  0.2054
 7609TIP3    H147022   0.762   3.134  13.584 -0.2464 -1.5602  0.8732
 7609TIP3    H247023   0.624   3.168  13.532  0.1680 -0.5919  0.3703
 7610TIP3   OH247024   0.836   0.175  12.079  0.0527  0.2518 -0.3574
 7610TIP3    H147025   0.783   0.254  12.066 -0.5619 -0.4261 -2.4791
 7610TIP3    H247026   0.872   0.157  11.992  2.7383 -0.0910  0.7096
 7611TIP3   OH247027   0.162   2.373  11.288  0.4341 -0.2149  0.0465
 7611TIP3    H147028   0.247   2.329  11.282  0.1832 -0.9755  1.5475
 7611TIP3    H247029   0.098   2.302  11.283 -0.1164  0.3114 -0.6383
 7612TIP3   OH247030   4.817   4.724  12.200 -1.2717  0.3180  0.1307
 7612TIP3    H147031   4.864   4.806  12.180  0.7534 -0.2088  2.2295
 7612TIP3    H247032   4.732   4.752  12.233 -0.6254  1.6164  0.7743
 7613TIP3   OH247033   6.906   0.030  13.068 -0.0566 -0.3436  0.0510
 7613TIP3    H147034   6.890  -0.030  13.140 -3.8516  2.7341  2.1117
 7613TIP3    H247035   6.964   0.096  13.104  0.5508 -0.3840 -0.8031
 7614TIP3   OH247036   2.491   3.871  12.621 -0.2527  0.0502  0.0229
 7614TIP3    H147037   2.479   3.935  12.691 -0.8125 -0.2871  0.2351
 7614TIP3    H247038   2.417   3.812  12.629  0.1029 -0.4550 -0.3597
 7615TIP3   OH247039   6.292   6.192  10.930 -0.1891  0.2272  0.1672
 7615TIP3    H147040   6.378   6.190  10.972  0.0351 -1.3599 -0.2944
 7615TIP3    H247041   6.234   6.152  10.995 -0.4634  0.7141  0.2256
 7616TIP3   OH247042   4.309   0.328  12.064 -0.3640  0.1039  0.1288
 7616TIP3    H147043   4.361   0.403  12.036 -1.4562  0.9694  0.3078
 7616TIP3    H247044   4.357   0.293  12.139  0.3303  0.4268 -0.1509
 7617TIP3   OH247045   7.255   0.552  12.830 -0.3891  0.8392  0.4754
 7617TIP3    H147046   7.350   0.545  12.822 -0.3076  0.7109  1.4372
 7617TIP3    H247047   7.230   0.473  12.878 -0.9464  1.0296  0.4961
 7618TIP3   OH247048   3.380   0.847  12.998  0.3165  0.1539 -0.1698
 7618TIP3    H147049   3.343   0.765  12.964  0.5659  0.6126 -1.6266
 7618TIP3    H247050   3.325   0.868  13.074 -0.3266 -0.8880 -0.3229
 7619TIP3   OH247051   0.393   0.169  12.222  0.0691  0.4169 -0.1869
 7619TIP3    H147052   0.484   0.164  12.251  0.3474 -0.6066 -1.1680
 7619TIP3    H247053   0.390   0.114  12.143 -1.0003  1.8673 -1.1949
 7620TIP3   OH247054   2.315   5.406  12.617  0.4468  0.2899  0.1621
 7620TIP3    H147055   2.382   5.434  12.554  0.0701 -0.5535 -0.6367
 7620TIP3    H247056   2.363   5.357  12.683  0.8016  0.8878  0.3529
 7621TIP3   OH247057   5.820   3.764  13.511 -0.4859  0.4020 -0.1256
 7621TIP3    H147058   5.787   3.677  13.532 -2.1880  0.7790 -1.0810
 7621TIP3    H247059   5.906   3.748  13.472 -0.4199 -0.7682  0.4395
 7622TIP3   OH247060   4.815   6.066  11.556  0.4163 -0.1858 -0.0212
 7622TIP3    H147061   4.780   6.155  11.566  1.5253  0.1199  1.6035
 7622TIP3    H247062   4.790   6.040  11.467  0.2725  1.8372 -0.6288
 7623TIP3   OH247063   7.596   6.862  11.132  0.2091 -0.0895 -0.0287
 7623TIP3    H147064   7.544   6.941  11.146  0.7113  0.3326 -0.4976
 7623TIP3    H247065   7.534   6.790  11.141 -0.1319  0.3144  1.0513
 7624TIP3   OH247066   0.629   0.264  11.881 -0.1310  0.0306  0.4989
 7624TIP3    H147067   0.608   0.357  11.881  2.8192  0.7998  0.2525
 7624TIP3    H247068   0.697   0.255  11.814 -0.5143 -2.3586  0.3575
 7625TIP3   OH247069   5.502   5.624  11.304 -0.6711 -0.5798 -0.6377
 7625TIP3    H147070   5.471   5.558  11.366  2.2541 -2.3317 -0.9001
 7625TIP3    H247071   5.543   5.575  11.233  0.7118  1.4761 -1.3704
 7626TIP3   OH247072   4.216   3.818  12.639  0.3857  0.4247  0.6926
 7626TIP3    H147073   4.297   3.768  12.638 -0.1193 -0.5174 -1.9440
 7626TIP3    H247074   4.153   3.763  12.685  0.5027 -0.2397  0.0782
 7627TIP3   OH247075   5.234   4.297  11.159 -0.1735  0.7037  0.5943
 7627TIP3    H147076   5.234   4.324  11.250  0.6754 -1.4081  1.2693
 7627TIP3    H247077   5.146   4.263  11.144  0.1035 -0.2231  1.0436
 7628TIP3   OH247078   2.837   2.894  12.106 -0.1898  0.4909 -0.2725
 7628TIP3    H147079   2.748   2.875  12.136  0.0529  0.8009  0.7039
 7628TIP3    H247080   2.856   2.980  12.143  0.0122  1.0579 -1.6500
 7629TIP3   OH247081   0.532   0.483  11.130  0.1266 -0.5575  0.4263
 7629TIP3    H147082   0.504   0.492  11.222 -0.0438  1.0202  0.2366
 7629TIP3    H247083   0.623   0.453  11.136  0.4435  0.4882  1.1434
 7630TIP3   OH247084   5.008   4.906  12.510 -0.0536 -0.1832  0.4982
 7630TIP3    H147085   4.987   4.992  12.473 -0.9931  0.0085  1.4609
 7630TIP3    H247086   5.066   4.925  12.583  0.6595 -0.4698  0.0262
 7631TIP3   OH247087   6.944   4.633  13.807  0.1547 -0.0419  0.2656
 7631TIP3    H147088   6.902   4.678  13.733  0.3080  1.6461  1.1532
 7631TIP3    H247089   6.979   4.553  13.769 -1.2719 -0.0542 -1.1168
 7632TIP3   OH247090   7.518   2.632  13.584 -0.0150 -0.2895 -0.1876
 7632TIP3    H147091   7.435   2.662  13.620 -0.3827 -0.9335 -0.5029
 7632TIP3    H247092   7.514   2.537  13.587  1.6699 -0.3788  2.0034
 7633TIP3   OH247093   6.520   1.735  11.730  0.2362 -0.5492  0.0260
 7633TIP3    H147094   6.564   1.791  11.794  1.2188  0.0054 -1.0903
 7633TIP3    H247095   6.570   1.748  11.649 -1.2346 -0.8961 -0.9654
 7634TIP3   OH247096   5.034   0.209  13.080 -0.4597  0.0822 -0.4235
 7634TIP3    H147097   4.977   0.243  13.149 -1.9066 -3.6716  0.4661
 7634TIP3    H247098   4.975   0.193  13.006  0.5076  1.1235 -1.4677
 7635TIP3   OH247099   1.505   5.088  12.396  0.7129 -0.0834  0.7332
 7635TIP3    H147100   1.518   5.008  12.447  1.4883  0.0314  0.7261
 7635TIP3    H247101   1.417   5.117  12.420 -0.0000 -1.4901 -0.0571
 7636TIP3   OH247102   1.283   4.010  10.947  0.0898 -0.5351 -0.0373
 7636TIP3    H147103   1.286   4.017  10.852  0.3830 -0.3364 -0.0143
 7636TIP3    H247104   1.217   3.942  10.964  1.0371 -1.5808 -0.4283
 7637TIP3   OH247105   0.575   2.808  11.692 -0.2189  0.3281  0.2183
 7637TIP3    H147106   0.509   2.818  11.761 -0.2572  1.8209 -0.0008
 7637TIP3    H247107   0.564   2.885  11.637  0.0696 -0.6479 -1.2541
 7638TIP3   OH247108   4.808   4.216  12.260  0.6669 -0.7650 -0.1184
 7638TIP3    H147109   4.761   4.232  12.178  0.3574  0.2187  0.2350
 7638TIP3    H247110   4.900   4.233  12.238  0.4061  1.1014  0.1133
 7639TIP3   OH247111   1.363   5.241  12.577  0.3649  0.2842 -0.6093
 7639TIP3    H147112   1.381   5.234  12.671  0.5391 -2.8517 -0.7806
 7639TIP3    H247113   1.268   5.254  12.572  0.4975  1.6800 -0.0293
 7640TIP3   OH247114   5.840   5.185  10.702 -0.4723  1.1006  0.4214
 7640TIP3    H147115   5.843   5.241  10.625  1.4895  0.3773 -0.0974
 7640TIP3    H247116   5.758   5.136  10.694 -0.3422  1.1129 -1.1731
 7641TIP3   OH247117   5.376   1.478  11.787 -0.6454  0.5198  0.3410
 7641TIP3    H147118   5.405   1.518  11.868  1.2110 -0.7570  0.3859
 7641TIP3    H247119   5.433   1.517  11.720  0.3557 -1.0402  0.2251
 7642TIP3   OH247120   1.766   2.530  12.682  0.0111  0.1037  0.0201
 7642TIP3    H147121   1.696   2.580  12.642  1.1267  1.6522 -0.0901
 7642TIP3    H247122   1.765   2.554  12.774 -0.6430 -1.1658  0.3718
 7643TIP3   OH247123   2.487   3.114  11.344  0.0092  0.3319  0.3959
 7643TIP3    H147124   2.572   3.116  11.300 -0.4170  0.0432 -0.4560
 7643TIP3    H247125   2.431   3.169  11.290 -0.4309  0.2621  0.7770
 7644TIP3   OH247126   0.565   1.434  12.896  0.3302  0.3732 -0.6534
 7644TIP3    H147127   0.476   1.468  12.884  0.6263  1.2095 -0.5475
 7644TIP3    H247128   0.587   1.454  12.986  0.9382  0.9338 -0.9193
 7645TIP3   OH247129   3.886   6.107  11.399 -0.5142 -0.1155 -0.4325
 7645TIP3    H147130   3.890   6.032  11.340  2.1598 -0.6252  0.2648
 7645TIP3    H247131   3.842   6.075  11.477  0.1481 -0.8548 -0.3432
 7646TIP3   OH247132   6.717   1.244  11.768 -0.0027  0.2426  0.2540
 7646TIP3    H147133   6.751   1.203  11.848  0.6372  0.2636 -0.0062
 7646TIP3    H247134   6.678   1.326  11.798  0.6390  0.4615  0.4832
 7647TIP3   OH247135   1.692   0.011  11.769  0.0821  0.5951 -0.3404
 7647TIP3    H147136   1.708  -0.061  11.708  0.3201  0.5873 -0.2685
 7647TIP3    H247137   1.601  -0.002  11.797 -0.1150  0.7526 -0.8910
 7648TIP3   OH247138   4.881   3.633  10.851 -0.3907  0.3428  0.7829
 7648TIP3    H147139   4.807   3.589  10.893 -0.5102  1.1908  1.4700
 7648TIP3    H247140   4.957   3.580  10.876 -1.0632 -3.0166 -3.2302
 7649TIP3   OH247141   0.644   1.435  11.192  0.0944  0.0608  0.4468
 7649TIP3    H147142   0.696   1.499  11.241 -1.0146  1.3651 -0.0376
 7649TIP3    H247143   0.622   1.479  11.110  0.6594 -1.5445 -0.6139
 7650TIP3   OH247144   4.965   5.993  12.690 -0.2590 -0.5874 -0.3494
 7650TIP3    H147145   5.046   5.941  12.697  0.0282 -0.2899 -1.2649
 7650TIP3    H247146   4.937   6.005  12.780  0.2023 -1.5060 -0.0646
 7651TIP3   OH247147   0.849   4.135  13.131  0.4314  0.0238  0.5566
 7651TIP3    H147148   0.838   4.041  13.146  0.8293 -0.8422 -3.4434
 7651TIP3    H247149   0.764   4.173  13.153 -0.4744 -1.6358  0.0933
 7652TIP3   OH247150   3.698   2.895  11.422  0.1110  0.3353 -0.1452
 7652TIP3    H147151   3.773   2.909  11.365 -1.1771 -0.9263 -2.2778
 7652TIP3    H247152   3.670   2.805  11.403 -0.9555  0.2039  1.8053
 7653TIP3   OH247153   5.802   1.026  12.409  0.0434 -0.5253  0.3208
 7653TIP3    H147154   5.827   0.943  12.366  2.3928  0.3195 -0.0704
 7653TIP3    H247155   5.829   1.015  12.500  1.7321  0.3012 -0.0472
 7654TIP3   OH247156   2.284   4.071  12.060 -0.3634 -0.2943 -0.1702
 7654TIP3    H147157   2.298   4.037  12.148  0.7947 -1.8329 -0.9034
 7654TIP3    H247158   2.316   4.161  12.063  0.0962 -0.4821  0.8526
 7655TIP3   OH247159   0.363   7.550  11.801  0.4623 -0.2211  0.1222
 7655TIP3    H147160   0.375   7.608  11.726 -1.1076 -1.0672 -0.8397
 7655TIP3    H247161   0.445   7.502  11.809  0.0844 -1.3988 -2.2384
 7656TIP3   OH247162   3.209   1.288  10.527  0.0392 -0.4517  0.3405
 7656TIP3    H147163   3.270   1.360  10.545  1.7112 -1.4317 -1.1405
 7656TIP3    H247164   3.166   1.271  10.612  1.3103  0.7216  1.2563
 7657TIP3   OH247165   6.524   4.272  13.617  0.3126 -0.0226 -0.2259
 7657TIP3    H147166   6.550   4.223  13.539 -0.2061 -0.1612 -0.3135
 7657TIP3    H247167   6.451   4.223  13.653  1.3225 -0.6419  1.0488
 7658TIP3   OH247168   1.152   2.965  12.112 -0.1784 -0.7417  0.3449
 7658TIP3    H147169   1.159   3.041  12.053 -1.0305  0.3818  1.6292
 7658TIP3    H247170   1.242   2.944  12.135  0.0244  1.1424  1.4798
 7659TIP3   OH247171   0.202   1.302  12.108  0.3070  0.2321 -0.1657
 7659TIP3    H147172   0.117   1.279  12.146 -0.1975 -1.2579 -2.0659
 7659TIP3    H247173   0.205   1.256  12.025  2.8640  0.5237 -0.3193
 7660TIP3   OH247174   5.783   5.272  11.465  0.1351 -0.7791 -0.3888
 7660TIP3    H147175   5.861   5.252  11.516 -0.6697  0.5000  1.4603
 7660TIP3    H247176   5.788   5.214  11.389  2.5191 -1.1767  0.0083
 7661TIP3   OH247177   6.977   1.218  12.363  0.3678 -0.2472  1.0357
 7661TIP3    H147178   6.906   1.249  12.306  1.6957  0.7330 -0.1640
 7661TIP3    H247179   6.950   1.243  12.451  0.4447  2.6211  0.3336
 7662TIP3   OH247180   2.781   6.581  10.666  0.8135 -0.0558 -0.4879
 7662TIP3    H147181   2.686   6.580  10.682  1.0103 -2.3277  1.0678
 7662TIP3    H247182   2.803   6.489  10.652  3.2724 -0.1151  2.7188
 7663TIP3   OH247183   6.415   5.310  11.758  0.4065  0.2232 -0.3610
 7663TIP3    H147184   6.391   5.325  11.667  0.9380 -0.1276 -0.5611
 7663TIP3    H247185   6.412   5.215  11.768 -2.6217  0.3192  0.8105
 7664TIP3   OH247186   6.348   3.035  11.703  0.2465  0.7070 -0.5367
 7664TIP3    H147187   6.423   3.091  11.726  0.2450  0.8910 -0.9646
 7664TIP3    H247188   6.292   3.091  11.649 -0.3953  0.6918  0.1064
 7665TIP3   OH247189   3.582   3.518  11.233 -0.3516  0.0466 -0.4122
 7665TIP3    H147190   3.585   3.456  11.160  1.4363  0.0376 -0.3724
 7665TIP3    H247191   3.520   3.585  11.205  1.6467  1.0402 -2.7974
 7666TIP3   OH247192   5.067   0.916  11.511  0.3856  0.2997  0.3343
 7666TIP3    H147193   5.017   0.896  11.431  0.4372 -0.2475  0.4296
 7666TIP3    H247194   5.149   0.867  11.499 -0.5011 -1.6496  1.7162
 7667TIP3   OH247195   6.668   4.968  12.095 -0.4916  0.1380 -0.0497
 7667TIP3    H147196   6.659   4.897  12.159 -0.3831  0.5057  0.3786
 7667TIP3    H247197   6.745   4.945  12.044  0.1895  0.4887  0.7962
 7668TIP3   OH247198   6.994   4.126  11.091  0.0993  0.1310 -0.1810
 7668TIP3    H147199   6.999   4.060  11.160 -0.6686  1.1284  0.8746
 7668TIP3    H247200   6.962   4.079  11.014 -2.0970 -0.4395  1.0096
 7669TIP3   OH247201   5.673   6.708  11.348  0.0552  0.5498  0.5963
 7669TIP3    H147202   5.752   6.665  11.315 -0.6316  1.0465 -1.9473
 7669TIP3    H247203   5.612   6.636  11.363 -1.0521  0.3366 -3.5346
 7670TIP3   OH247204   3.287   3.227  11.796  0.2395  0.6549  0.3022
 7670TIP3    H147205   3.363   3.202  11.743  0.2318  2.0796 -0.4355
 7670TIP3    H247206   3.307   3.195  11.884 -0.1167 -2.5196 -0.6548
 7671TIP3   OH247207   5.923   2.120  13.582  0.5292 -0.6493 -0.1033
 7671TIP3    H147208   5.908   2.026  13.594 -0.5270 -0.7849 -2.0877
 7671TIP3    H247209   5.857   2.147  13.518 -0.1787  1.7720  1.4916
 7672TIP3   OH247210   7.635   0.884  12.405 -0.0721 -0.1650 -0.4511
 7672TIP3    H147211   7.591   0.901  12.488  0.8443 -0.9530  0.2214
 7672TIP3    H247212   7.698   0.956  12.396 -1.2159  0.7807 -1.2540
 7673TIP3   OH247213   4.241   3.209  13.024  0.1126  0.1130  0.1129
 7673TIP3    H147214   4.231   3.114  13.019 -0.0010 -0.0149  2.0171
 7673TIP3    H247215   4.334   3.222  13.044  0.1808  0.4357 -0.3805
 7674TIP3   OH247216   4.917   3.172  10.777 -0.0876  0.0617 -0.0912
 7674TIP3    H147217   4.887   3.138  10.861 -0.9279 -0.5336 -0.6182
 7674TIP3    H247218   4.983   3.110  10.748 -1.5504 -1.1239 -1.0071
 7675TIP3   OH247219   6.651   6.363  12.168 -0.2499  0.3462 -0.1429
 7675TIP3    H147220   6.701   6.406  12.237 -1.9025  1.0801  0.6475
 7675TIP3    H247221   6.562   6.397  12.177 -0.8309 -0.5984 -1.7567
 7676TIP3   OH247222   1.946   5.261  11.967  0.3344 -0.1734 -0.2742
 7676TIP3    H147223   2.027   5.260  11.916  0.8657  0.5738  0.5221
 7676TIP3    H247224   1.881   5.220  11.909  1.4376 -1.5282 -0.6290
 7677TIP3   OH247225   7.616   2.363  12.375 -0.2053  0.0951 -0.0019
 7677TIP3    H147226   7.598   2.274  12.347 -1.7973 -0.0294  1.2607
 7677TIP3    H247227   7.530   2.400  12.395  0.5118  1.5554  0.5444
 7678TIP3   OH247228   0.992   6.998  10.897  0.0045  0.2825 -0.3755
 7678TIP3    H147229   1.053   7.053  10.847  1.0650 -0.5491 -0.0223
 7678TIP3    H247230   1.027   6.999  10.986 -1.6117  1.3688  0.2861
 7679TIP3   OH247231   4.452   4.149  11.147  0.1275 -0.2028  0.0299
 7679TIP3    H147232   4.469   4.214  11.079 -1.2067 -0.7848 -0.9049
 7679TIP3    H247233   4.361   4.163  11.171  0.3334 -0.5895  1.0720
 7680TIP3   OH247234   4.362   0.760  11.484  0.1453 -0.0778  0.0229
 7680TIP3    H147235   4.280   0.721  11.513  0.3335  0.8210  1.8557
 7680TIP3    H247236   4.336   0.843  11.444  0.0950 -0.2012 -0.2032
 7681TIP3   OH247237   4.225   3.741  11.313  0.0582  0.1104  0.3319
 7681TIP3    H147238   4.201   3.795  11.388 -4.3197 -2.0346  0.8034
 7681TIP3    H247239   4.184   3.784  11.238  0.7910  0.0150 -0.1341
 7682TIP3   OH247240   0.073   0.931  12.025  0.3174 -0.1079 -0.0740
 7682TIP3    H147241   0.166   0.908  12.019  0.6663  1.0991  0.2641
 7682TIP3    H247242   0.047   0.902  12.112  0.8789  1.1076  0.5387
 7683TIP3   OH247243   1.443   5.793  10.421  0.2972  0.1026  0.0310
 7683TIP3    H147244   1.495   5.818  10.345 -0.5743  1.6764 -0.0892
 7683TIP3    H247245   1.507   5.759  10.484  1.5090  1.9799 -0.1140
 7684TIP3   OH247246   7.030   2.272  13.541  0.2579  0.0506 -0.3242
 7684TIP3    H147247   6.998   2.240  13.457  2.1210  0.1184 -1.0998
 7684TIP3    H247248   6.954   2.316  13.580 -0.1937  1.6227 -2.7629
 7685TIP3   OH247249   1.150   6.017  11.096  0.4895  0.0865 -0.0945
 7685TIP3    H147250   1.066   6.050  11.128 -0.3979 -1.5421 -0.6171
 7685TIP3    H247251   1.135   5.996  11.004  1.0253 -1.5380  0.1437
 7686TIP3   OH247252   2.449   3.315  11.149 -0.5703  0.2194  0.3728
 7686TIP3    H147253   2.520   3.311  11.086 -1.5234  1.7079 -0.8946
 7686TIP3    H247254   2.463   3.398  11.196 -2.0883  1.1578 -0.7458
 7687TIP3   OH247255   0.318   6.374  11.548  0.0343 -0.5130  0.0360
 7687TIP3    H147256   0.330   6.342  11.459  1.5182  0.6424 -0.2203
 7687TIP3    H247257   0.372   6.316  11.602  0.1606 -0.4227  0.0072
 7688TIP3   OH247258   5.353   5.665  11.966 -0.3682 -0.0365  0.1411
 7688TIP3    H147259   5.426   5.717  11.932 -0.1722  0.1842  0.8956
 7688TIP3    H247260   5.343   5.693  12.056  0.4686 -2.0678  0.9244
 7689TIP3   OH247261   5.808   2.540  12.627  0.4519 -0.5857  0.2746
 7689TIP3    H147262   5.827   2.570  12.538 -0.4451  0.6099  0.4619
 7689TIP3    H247263   5.741   2.473  12.617 -1.8005  1.5478  0.1711
 7690TIP3   OH247264   1.597   3.873  12.902  0.5151 -0.3970  0.3801
 7690TIP3    H147265   1.530   3.940  12.889  0.9865 -0.3185 -2.1274
 7690TIP3    H247266   1.568   3.799  12.849  1.1770 -1.3253  1.2720
 7691TIP3   OH247267   3.809   0.565  11.026 -0.0935  0.0645 -0.6708
 7691TIP3    H147268   3.750   0.529  10.960  1.0659 -1.1290 -1.1015
 7691TIP3    H247269   3.788   0.517  11.106  1.7925 -2.0779 -1.3594
 7692TIP3   OH247270   6.936   7.675  10.870 -0.1398  0.0392  0.1632
 7692TIP3    H147271   6.990   7.741  10.827  0.1072 -0.4411 -0.2904
 7692TIP3    H247272   6.846   7.699  10.849 -0.0467  0.1953 -0.0551
 7693TIP3   OH247273   4.562   2.835  17.930  0.4490 -0.2710  0.5478
 7693TIP3    H147274   4.622   2.789  17.871 -0.4470  0.2381 -0.7960
 7693TIP3    H247275   4.593   2.812  18.018  1.5317 -1.4238 -0.1027
 7694TIP3   OH247276   2.233   7.544  12.527 -0.2427 -0.4791  0.3115
 7694TIP3    H147277   2.277   7.581  12.604  0.1217 -0.1747 -0.0356
 7694TIP3    H247278   2.140   7.555  12.545 -0.1585  1.8745 -0.3464
 7695TIP3   OH247279   3.492   1.962  12.073 -0.2769  0.3404  0.3495
 7695TIP3    H147280   3.492   1.896  12.003  1.3590  1.3328 -0.6525
 7695TIP3    H247281   3.505   2.045  12.027 -1.7731  1.3476  1.6388
 7696TIP3   OH247282   6.653   5.687  12.272  0.3257  0.5400 -0.1516
 7696TIP3    H147283   6.704   5.607  12.284 -0.4963  0.0508  0.1129
 7696TIP3    H247284   6.706   5.755  12.314  0.3865 -0.1015  0.8457
 7697TIP3   OH247285   1.564   2.722  10.783  0.5152 -0.2047  0.7285
 7697TIP3    H147286   1.587   2.629  10.783 -3.2792 -1.3847 -2.0730
 7697TIP3    H247287   1.613   2.760  10.711  0.5332 -0.5170  0.5774
 7698TIP3   OH247288   2.278   0.996  11.293 -0.6027  0.2348 -0.4482
 7698TIP3    H147289   2.333   1.020  11.367  1.3971 -1.8052 -1.1597
 7698TIP3    H247290   2.256   1.079  11.252  0.9434  1.2145  0.5805
 7699TIP3   OH247291   6.777   0.651  11.316  0.4518 -0.4121  0.2594
 7699TIP3    H147292   6.791   0.580  11.254 -0.1641 -0.3115 -0.0082
 7699TIP3    H247293   6.840   0.635  11.386 -0.5238 -1.9449  0.8405
 7700TIP3   OH247294   2.207   6.081  10.726  0.8552 -0.1858  0.1259
 7700TIP3    H147295   2.235   5.990  10.720  0.7664 -0.1718 -0.5676
 7700TIP3    H247296   2.285   6.128  10.755  0.2257 -0.8306  3.2176
 7701TIP3   OH247297   0.186   0.674  12.206 -0.1767  0.4010  0.0039
 7701TIP3    H147298   0.239   0.598  12.231  0.2712  0.2995 -1.1831
 7701TIP3    H247299   0.249   0.735  12.168 -0.9085  0.2543 -1.4967
 7702TIP3   OH247300   3.925   6.747  12.049 -0.3177 -0.3970 -0.1671
 7702TIP3    H147301   3.985   6.770  11.978  0.2850  0.5085  0.6144
 7702TIP3    H247302   3.866   6.681  12.010  0.9521 -1.0607 -1.0395
 7703TIP3   OH247303   0.898   4.480  10.237 -0.3014 -0.2523  0.6178
 7703TIP3    H147304   0.989   4.491  10.264  0.2188  1.8000 -1.5450
 7703TIP3    H247305   0.859   4.567  10.248 -1.0566 -0.2582 -1.4489
 7704TIP3   OH247306   3.832   4.490  10.997 -0.4956 -0.3312  0.1460
 7704TIP3    H147307   3.807   4.550  11.068 -0.5532 -0.2129  0.0261
 7704TIP3    H247308   3.770   4.418  11.004 -0.7063 -0.1659  0.0169
 7705TIP3   OH247309   7.404   6.443  12.094 -0.4617 -0.2750  0.0568
 7705TIP3    H147310   7.387   6.412  12.183 -1.1591 -1.4739 -0.4525
 7705TIP3    H247311   7.487   6.490  12.100 -0.3001 -0.6670  1.2685
 7706TIP3   OH247312   1.304   6.219  11.220  0.1236  0.0965  0.2519
 7706TIP3    H147313   1.287   6.126  11.234 -1.3480  0.4956  1.4973
 7706TIP3    H247314   1.396   6.224  11.197  0.2878 -1.6473  0.4157
 7707TIP3   OH247315   0.527   0.003  11.604  0.5671  0.0846 -0.4668
 7707TIP3    H147316   0.603   0.042  11.562  1.5314 -1.0627  0.1667
 7707TIP3    H247317   0.543  -0.091  11.601 -0.3884 -0.1335  0.4814
 7708TIP3   OH247318   1.206   6.288  12.866  0.3659  0.0207  0.1848
 7708TIP3    H147319   1.281   6.231  12.879 -0.0900 -0.6059  0.1029
 7708TIP3    H247320   1.141   6.233  12.822 -0.4197  0.3282  0.9286
 7709TIP3   OH247321   7.562   0.147  11.629  0.1173 -0.2408  0.0611
 7709TIP3    H147322   7.636   0.188  11.583  1.3811 -0.6077  1.6758
 7709TIP3    H247323   7.563   0.056  11.600  0.2941 -0.2414  0.0682
 7710TIP3   OH247324   7.270   6.852  11.356  0.1159  0.1175  0.4228
 7710TIP3    H147325   7.220   6.879  11.279  1.4765 -0.4056 -0.6945
 7710TIP3    H247326   7.347   6.909  11.355  0.3565 -0.1888  1.1565
 7711TIP3   OH247327   5.691   5.198  11.985 -0.5353 -0.4088  0.5616
 7711TIP3    H147328   5.626   5.268  11.981 -0.5056 -0.4228 -2.5981
 7711TIP3    H247329   5.639   5.117  11.986 -0.6491 -0.4007 -1.2544
 7712TIP3   OH247330   2.448   3.315  12.355  0.4544  0.0030  0.1780
 7712TIP3    H147331   2.520   3.348  12.302 -0.2252  1.0852 -0.1186
 7712TIP3    H247332   2.390   3.391  12.365  0.1880 -0.3931  1.8226
 7713TIP3   OH247333   5.613   2.850  12.247 -0.5004  0.0825 -0.0766
 7713TIP3    H147334   5.577   2.794  12.178  2.0333 -1.5211 -0.2275
 7713TIP3    H247335   5.581   2.810  12.328 -1.7833  0.7278 -0.2438
 7714TIP3   OH247336   4.673   2.954  11.470  0.4518  0.8754  0.1997
 7714TIP3    H147337   4.655   2.892  11.399 -0.7954  1.1840  0.2112
 7714TIP3    H247338   4.615   3.028  11.452  1.6664  1.8988  0.3799
 7715TIP3   OH247339   1.301   5.757  11.478 -0.2395  0.2260 -0.7145
 7715TIP3    H147340   1.245   5.745  11.402 -0.5258  2.3162 -0.9111
 7715TIP3    H247341   1.389   5.732  11.448 -0.3797  0.8398 -1.7092
 7716TIP3   OH247342   2.330   3.018  12.096 -0.3858 -0.5765  0.1225
 7716TIP3    H147343   2.366   2.930  12.102 -0.4412 -0.5561  0.8032
 7716TIP3    H247344   2.292   3.034  12.182  0.2843  0.3997  0.2531
 7717TIP3   OH247345   1.599   6.806  12.515 -0.3007  0.3446 -0.1698
 7717TIP3    H147346   1.682   6.778  12.555 -0.2104  0.5873 -0.1876
 7717TIP3    H247347   1.608   6.782  12.423  0.7920  2.6287 -0.7356
 7718TIP3   OH247348   5.105   7.159  10.781 -0.1470 -0.6719  0.0035
 7718TIP3    H147349   5.084   7.193  10.694 -0.8275  1.6495  0.9874
 7718TIP3    H247350   5.036   7.194  10.838  1.3076 -0.5222  1.7848
 7719TIP3   OH247351   7.445   4.012  12.174 -0.6334  0.2072 -0.3831
 7719TIP3    H147352   7.531   4.045  12.200  1.0015 -3.0878 -1.1556
 7719TIP3    H247353   7.387   4.041  12.245  1.6490  0.1948  1.6343
 7720TIP3   OH247354   0.364   7.090  12.247  0.0635 -0.2256 -0.0111
 7720TIP3    H147355   0.347   7.124  12.160 -1.1376 -0.4967  0.0954
 7720TIP3    H247356   0.408   7.161  12.293 -0.7462  0.5023 -0.3464
 7721TIP3   OH247357   3.642   1.537  10.686  0.1416 -0.5151 -0.6955
 7721TIP3    H147358   3.733   1.529  10.660 -0.2457  0.9157 -2.7206
 7721TIP3    H247359   3.624   1.458  10.737  2.2819 -1.1796 -0.8931
 7722TIP3   OH247360   0.258   2.970  12.247  0.0685  0.3153 -0.2399
 7722TIP3    H147361   0.272   3.046  12.303  2.2694  0.9562 -1.5498
 7722TIP3    H247362   0.184   2.924  12.287  1.1236  1.0454  2.8187
 7723TIP3   OH247363   0.886   6.080  12.514  0.6395 -0.1715 -0.1816
 7723TIP3    H147364   0.878   6.052  12.423  0.2184  0.7376 -0.4412
 7723TIP3    H247365   0.797   6.077  12.548  0.5946  0.6817 -0.1862
 7724TIP3   OH247366   4.178   3.063  11.248 -0.3701  0.6496 -0.1064
 7724TIP3    H147367   4.239   3.135  11.232  0.8579 -0.6953 -1.9003
 7724TIP3    H247368   4.205   3.027  11.332  1.8948 -0.3639 -1.1795
 7725TIP3   OH247369   5.332   3.333  10.770 -0.1360  0.0676 -0.0459
 7725TIP3    H147370   5.315   3.405  10.710  1.1352 -0.1847 -0.7566
 7725TIP3    H247371   5.336   3.255  10.713  0.8421 -0.2106  0.3819
 7726TIP3   OH247372   6.913   1.637  12.690  0.2444 -0.0145 -0.1952
 7726TIP3    H147373   6.930   1.577  12.763 -0.2496 -1.3165 -1.1061
 7726TIP3    H247374   6.990   1.693  12.688  0.6191 -0.4489  0.8476
 7727TIP3   OH247375   3.226   1.637  11.552 -0.2024 -0.2055 -0.3681
 7727TIP3    H147376   3.150   1.685  11.586 -0.0298 -0.3072  0.1750
 7727TIP3    H247377   3.293   1.647  11.620  1.1413  1.9453 -1.8598
 7728TIP3   OH247378   5.391   3.426  10.203 -0.2440 -0.5760 -0.3655
 7728TIP3    H147379   5.302   3.419  10.168 -0.9672  0.6674  1.1167
 7728TIP3    H247380   5.384   3.396  10.293 -0.0573  3.0340  1.0021
 7729TIP3   OH247381   7.018   1.886  10.550  0.2256  0.2590 -0.0831
 7729TIP3    H147382   7.018   1.817  10.484 -0.7096 -1.3706  1.5134
 7729TIP3    H247383   7.091   1.943  10.525  0.3345 -0.6635 -2.0911
 7730TIP3   OH247384   0.108   6.148  10.718 -0.2423 -0.2487 -0.6547
 7730TIP3    H147385   0.164   6.109  10.651  0.9655 -0.6371  0.5187
 7730TIP3    H247386   0.057   6.075  10.752 -1.0358 -0.0060 -1.3057
 7731TIP3   OH247387   0.595   3.727  10.730 -0.1355 -0.2144 -0.4000
 7731TIP3    H147388   0.687   3.751  10.741 -0.6595  2.8934 -1.7826
 7731TIP3    H247389   0.550   3.766  10.804 -0.7412  1.4228 -1.5712
 7732TIP3   OH247390   0.021   0.507  10.895 -0.1442  0.3034 -0.5159
 7732TIP3    H147391   0.113   0.530  10.902  0.5670 -1.8787 -1.6808
 7732TIP3    H247392   0.013   0.424  10.942 -1.9417  1.3170  1.1067
 7733TIP3   OH247393   7.182   2.048  11.875  0.2976 -0.2578  0.6865
 7733TIP3    H147394   7.254   1.995  11.910 -0.8194 -1.6322  1.0147
 7733TIP3    H247395   7.105   2.017  11.923 -0.5309  1.0993  0.2598
 7734TIP3   OH247396   1.067   5.023  12.011 -0.0796 -0.2324  0.4694
 7734TIP3    H147397   1.154   5.040  12.047 -0.5499  1.9956  0.6715
 7734TIP3    H247398   1.054   4.929  12.023  2.1704 -0.5656  0.6858
 7735TIP3   OH247399   7.154   1.385  12.548  0.5280  0.2816  0.0644
 7735TIP3    H147400   7.083   1.415  12.605  0.9960  0.2569  0.6733
 7735TIP3    H247401   7.191   1.310  12.594  0.4752 -0.1716 -0.6132
 7736TIP3   OH247402   1.359   3.831  12.607 -0.2465  0.5932  0.0840
 7736TIP3    H147403   1.294   3.779  12.560  1.1102 -0.7782 -0.3374
 7736TIP3    H247404   1.354   3.800  12.698  1.9981 -1.9231 -0.5302
 7737TIP3   OH247405   7.235   2.059  10.507  0.4668  0.5303  0.4547
 7737TIP3    H147406   7.237   2.087  10.599 -1.0251  1.3837  0.2633
 7737TIP3    H247407   7.293   2.121  10.462 -0.3192  1.3522  0.5398
 7738TIP3   OH247408   0.713   3.474  12.653  0.0160 -0.4141  0.4625
 7738TIP3    H147409   0.775   3.514  12.715 -2.8353  0.5154  2.9554
 7738TIP3    H247410   0.708   3.536  12.581  1.7264 -0.3844  0.3334
 7739TIP3   OH247411   4.166   3.560  10.809 -0.1816  0.5849 -0.1009
 7739TIP3    H147412   4.075   3.532  10.797 -0.5473  0.6737  2.1055
 7739TIP3    H247413   4.204   3.556  10.721 -2.0872 -0.2252 -0.9406
 7740TIP3   OH247414   2.671   3.214  11.016 -0.8807  0.6687  0.2435
 7740TIP3    H147415   2.714   3.256  10.942  1.9508 -0.6781  0.9865
 7740TIP3    H247416   2.663   3.122  10.990 -3.4962  0.8373  0.1455
 7741TIP3   OH247417   4.597   2.694  10.540  0.5086 -0.1688 -0.0203
 7741TIP3    H147418   4.652   2.622  10.510  0.6613 -0.2520  0.4491
 7741TIP3    H247419   4.509   2.670  10.512  0.4941 -0.7402  0.4811
 7742TIP3   OH247420   5.736   3.849  12.434  0.0098  0.1584  0.2439
 7742TIP3    H147421   5.768   3.824  12.347 -0.5816  2.5706 -0.7529
 7742TIP3    H247422   5.799   3.809  12.494  2.0208  0.6094 -1.4269
 7743TIP3   OH247423   0.988   0.120  11.789 -0.4182  0.0516  0.4939
 7743TIP3    H147424   1.054   0.078  11.845 -0.1996  0.8358  0.8340
 7743TIP3    H247425   1.030   0.199  11.757 -0.8318  0.0196 -0.1418
 7744TIP3   OH247426   7.073   3.656  12.392  0.0414 -0.8527  0.4458
 7744TIP3    H147427   7.110   3.719  12.330 -2.3851 -1.1646 -1.4749
 7744TIP3    H247428   7.053   3.708  12.470  2.7931 -0.3706  0.9246
 7745TIP3   OH247429   0.229   1.675  10.473 -0.0414 -0.5234  1.0502
 7745TIP3    H147430   0.150   1.621  10.477  0.3657 -1.0574  2.5409
 7745TIP3    H247431   0.198   1.760  10.443 -1.1859 -0.7250  1.5893
 7746TIP3   OH247432   0.826   1.680  10.957  0.0955  0.3571 -0.4443
 7746TIP3    H147433   0.853   1.764  10.920 -0.1791  1.9053  2.5691
 7746TIP3    H247434   0.742   1.697  10.998 -0.1967 -1.5337 -0.1341
 7747TIP3   OH247435   4.749   1.835  10.826  0.1186  0.0796  0.3357
 7747TIP3    H147436   4.801   1.854  10.748 -1.1842  1.5229 -0.2292
 7747TIP3    H247437   4.810   1.794  10.886  0.8291 -2.5795 -1.9944
 7748TIP3   OH247438   0.939   5.050  10.701 -0.3562 -0.2395  0.3892
 7748TIP3    H147439   1.026   5.089  10.708 -0.1377 -0.5239 -0.5780
 7748TIP3    H247440   0.879   5.125  10.702 -0.0419  0.0156  0.1990
 7749TIP3   OH247441   1.530   1.429  12.618 -0.3649 -0.1630  0.2088
 7749TIP3    H147442   1.580   1.380  12.554 -0.5116 -0.1708  0.0988
 7749TIP3    H247443   1.564   1.518  12.613 -1.6414  0.2938 -1.2322
 7750TIP3   OH247444   6.399   4.607  12.032  0.5410  0.3396 -0.1366
 7750TIP3    H147445   6.367   4.697  12.035 -0.1491  0.2232 -2.1808
 7750TIP3    H247446   6.355   4.562  12.104 -0.5689  1.2045 -0.2590
 7751TIP3   OH247447   5.578   2.798  13.914  0.1684 -0.0732 -0.1243
 7751TIP3    H147448   5.613   2.882  13.883 -1.5868  0.9359  0.5128
 7751TIP3    H247449   5.507   2.778  13.853  0.4845 -1.0337 -0.1827
 7752TIP3   OH247450   5.578   0.182  13.167 -0.5406  0.6674 -0.2093
 7752TIP3    H147451   5.494   0.164  13.209  0.6086 -0.8237  1.6314
 7752TIP3    H247452   5.603   0.268  13.201  0.1653 -0.3228  2.0367
 7753TIP3   OH247453   6.001   3.085  10.980 -0.3156 -0.0801 -0.3790
 7753TIP3    H147454   5.960   3.046  10.903 -0.3606 -0.3715 -0.2076
 7753TIP3    H247455   5.960   3.041  11.054  2.6212 -2.8770 -0.1833
 7754TIP3   OH247456   1.324   7.049  11.800 -0.1236  0.6933  0.2279
 7754TIP3    H147457   1.253   7.064  11.738  0.4757  0.0251 -0.6400
 7754TIP3    H247458   1.284   7.060  11.886 -1.2391  0.4707 -0.2531
 7755TIP3   OH247459   5.547   0.631  10.882  0.5811 -0.5137  0.0508
 7755TIP3    H147460   5.459   0.607  10.853  0.9226 -1.4216 -0.2592
 7755TIP3    H247461   5.597   0.549  10.880  1.4692  0.0074  0.1033
 7756TIP3   OH247462   2.408   4.893  12.196  0.1724  0.6672  0.6174
 7756TIP3    H147463   2.335   4.855  12.246  0.5683  2.2316  2.5421
 7756TIP3    H247464   2.485   4.848  12.230  0.2576  0.0982 -0.3073
 7757TIP3   OH247465   5.014   2.219  12.112  0.1210 -0.3161 -0.0773
 7757TIP3    H147466   5.030   2.193  12.021  1.5750  2.2897 -0.6532
 7757TIP3    H247467   5.009   2.136  12.160 -0.3845 -1.7563 -2.4388
 7758TIP3   OH247468   4.504   0.453  12.872 -0.2001 -0.1332  0.9421
 7758TIP3    H147469   4.465   0.494  12.949  0.2195  0.6227  0.7701
 7758TIP3    H247470   4.598   0.460  12.887  0.0115  2.6111 -0.8566
 7759TIP3   OH247471   6.781   4.461  12.314  0.1176  0.3886  0.5778
 7759TIP3    H147472   6.864   4.419  12.338  0.8296  1.0284 -0.6794
 7759TIP3    H247473   6.729   4.391  12.274 -0.9177 -0.5950  3.3448
 7760TIP3   OH247474   0.588   0.011  10.803 -0.3160 -0.1467  0.1466
 7760TIP3    H147475   0.582   0.022  10.708 -1.4065  0.3891  0.2605
 7760TIP3    H247476   0.529   0.078  10.839  0.7134  0.2038  1.2358
 7761TIP3   OH247477   2.120   2.831  11.518 -0.0167 -0.2363  0.1097
 7761TIP3    H147478   2.024   2.830  11.523 -0.0683  1.4083 -0.0782
 7761TIP3    H247479   2.149   2.799  11.603 -0.7494  0.6227  0.7039
 7762TIP3   OH247480   6.311   7.445  11.910 -0.3786 -0.5055 -0.1445
 7762TIP3    H147481   6.334   7.353  11.922 -0.2706 -0.5773 -0.8285
 7762TIP3    H247482   6.220   7.451  11.940 -0.3688 -0.8236 -0.0449
 7763TIP3   OH247483   7.552   4.142  11.388  0.2551  0.4488  0.4807
 7763TIP3    H147484   7.459   4.123  11.379 -0.6160  3.0871  2.6976
 7763TIP3    H247485   7.590   4.059  11.419 -1.3583 -0.6190 -0.2656
 7764TIP3   OH247486   0.131   5.040  11.215  0.0464  0.2160 -0.4080
 7764TIP3    H147487   0.067   4.989  11.166 -0.0887  0.2617 -0.2798
 7764TIP3    H247488   0.203   5.054  11.153  0.6866 -1.2638 -0.0533
 7765TIP3   OH247489   2.086   3.714  11.251  0.2316 -0.3676 -0.1887
 7765TIP3    H147490   2.019   3.776  11.225 -0.2022 -0.1149  1.4462
 7765TIP3    H247491   2.073   3.639  11.193  0.7820  1.0059 -2.2156
 7766TIP3   OH247492   0.906   0.981  13.011  0.0418  0.3528  0.0691
 7766TIP3    H147493   0.962   1.011  13.082 -0.5042  1.3875  0.0858
 7766TIP3    H247494   0.874   0.895  13.040 -1.5228  1.4528  1.9095
 7767TIP3   OH247495   4.475   3.569  11.926 -0.1790 -0.4588 -0.2104
 7767TIP3    H147496   4.485   3.585  11.832 -0.8081  0.0528 -0.1977
 7767TIP3    H247497   4.522   3.641  11.968  2.0540 -1.8807 -0.0790
 7768TIP3   OH247498   0.470   2.254  13.228 -0.0278  0.6508  0.4694
 7768TIP3    H147499   0.527   2.294  13.161  0.0675 -0.0044  0.1536
 7768TIP3    H247500   0.382   2.285  13.205 -0.3204 -1.2303 -1.2810
 7769TIP3   OH247501   2.173   6.900  11.137  0.5667  0.3025  0.5608
 7769TIP3    H147502   2.121   6.881  11.059  0.3911  0.5998  0.6038
 7769TIP3    H247503   2.259   6.861  11.119  0.0352 -1.0998  0.9101
 7770TIP3   OH247504   0.181   1.152  11.485  0.0298  0.0211  0.3124
 7770TIP3    H147505   0.265   1.180  11.521 -0.3496  0.1235  1.1456
 7770TIP3    H247506   0.191   1.057  11.472 -0.1521 -0.2159  1.6816
 7771TIP3   OH247507   1.086   2.505  10.854  0.0182  0.3050 -0.3024
 7771TIP3    H147508   1.172   2.492  10.813  0.0843  0.0943 -0.0943
 7771TIP3    H247509   1.042   2.567  10.795  0.1781  0.1393 -0.6038
 7772TIP3   OH247510   2.158   5.137  10.791 -0.2121 -0.5956  0.0997
 7772TIP3    H147511   2.142   5.174  10.878  0.2418 -1.0933  0.3974
 7772TIP3    H247512   2.077   5.091  10.769 -0.8345  0.6383 -0.3242
 7773TIP3   OH247513   6.523   6.066  12.821 -0.0561  0.3141  0.4650
 7773TIP3    H147514   6.535   5.990  12.877  2.9169  0.1666 -0.2352
 7773TIP3    H247515   6.491   6.031  12.738  0.4128 -0.0714  0.4465
 7774TIP3   OH247516   3.165   1.435  12.427 -0.1020  0.0193 -0.1967
 7774TIP3    H147517   3.078   1.397  12.411 -0.3814  1.0752 -1.2945
 7774TIP3    H247518   3.149   1.529  12.435  0.8989  0.1790  0.0543
 7775TIP3   OH247519   3.984   6.960  11.626 -0.6755 -0.0267 -0.2479
 7775TIP3    H147520   4.043   7.010  11.570  1.6008 -1.6241  0.5556
 7775TIP3    H247521   3.991   6.870  11.594 -1.5167 -0.4904  0.8170
 7776TIP3   OH247522   2.288   5.708  11.143  0.2052  0.6712  0.1572
 7776TIP3    H147523   2.315   5.748  11.225 -0.1588  1.4517 -0.0922
 7776TIP3    H247524   2.334   5.759  11.076 -1.5116  1.7489 -0.2519
 7777TIP3   OH247525   5.374   7.120  12.719 -0.1155  0.0257 -0.1301
 7777TIP3    H147526   5.374   7.092  12.627 -0.3093  1.0652 -0.4542
 7777TIP3    H247527   5.381   7.038  12.769  1.7515 -0.4477 -1.0958
 7778TIP3   OH247528   6.162   5.326  12.749  0.3128 -0.0180  0.3881
 7778TIP3    H147529   6.145   5.233  12.763 -0.5689 -0.1915 -1.5420
 7778TIP3    H247530   6.115   5.370  12.820 -1.3691 -0.9446 -0.0984
 7779TIP3   OH247531   0.222   4.306  12.697 -0.3199 -0.2827 -0.1052
 7779TIP3    H147532   0.238   4.319  12.791  1.0500  0.9615 -0.4826
 7779TIP3    H247533   0.308   4.313  12.657 -0.6815 -2.2022 -1.3451
 7780TIP3   OH247534   5.829   1.147  12.159 -0.1089  0.4604 -0.0466
 7780TIP3    H147535   5.821   1.136  12.254 -0.4949  0.4436 -0.0802
 7780TIP3    H247536   5.899   1.086  12.134  1.5343  2.0131  0.5276
 7781TIP3   OH247537   6.039   1.548  12.903 -0.4839 -0.3975 -0.2670
 7781TIP3    H147538   5.964   1.581  12.953 -0.4012 -1.2598  0.4665
 7781TIP3    H247539   6.067   1.622  12.849 -1.8697 -0.0707 -0.5738
 7782TIP3   OH247540   4.516   7.350  11.718  0.1137  0.4014  0.2663
 7782TIP3    H147541   4.518   7.389  11.631 -0.9319 -2.0475 -0.9267
 7782TIP3    H247542   4.430   7.309  11.724  1.2422 -1.9818  1.2826
 7783TIP3   OH247543   7.152   2.423  12.687  0.0819 -0.0187 -1.0024
 7783TIP3    H147544   7.135   2.396  12.777  2.1309 -1.0317 -0.8598
 7783TIP3    H247545   7.102   2.361  12.634 -0.1578 -0.2002 -0.5716
 7784TIP3   OH247546   3.186   0.044  10.654 -0.3012 -0.0181 -0.0278
 7784TIP3    H147547   3.225   0.061  10.568 -1.2951 -1.8304 -0.8944
 7784TIP3    H247548   3.165  -0.049  10.653  0.8017 -0.3840  2.6955
 7785TIP3   OH247549   3.283   5.318  11.762  0.9993  0.5592  0.6361
 7785TIP3    H147550   3.306   5.228  11.784 -0.2250 -0.0235 -0.3427
 7785TIP3    H247551   3.320   5.331  11.675  0.2524  0.6336  0.3259
 7786TIP3   OH247552   6.122   3.337  12.848  0.5270  0.0815 -0.0309
 7786TIP3    H147553   6.101   3.244  12.840  1.2857 -0.1186  0.2122
 7786TIP3    H247554   6.198   3.350  12.791  0.3748  0.5713 -0.1288
 7787TIP3   OH247555   3.024   4.831  11.904  0.4628 -0.0305  0.1108
 7787TIP3    H147556   3.064   4.795  11.983  0.4646 -2.0466 -0.7544
 7787TIP3    H247557   3.096   4.837  11.841  0.1060 -0.1535 -0.3097
 7788TIP3   OH247558   2.735   7.172  11.892  0.6684 -0.2257 -0.6171
 7788TIP3    H147559   2.669   7.113  11.856  2.1858 -2.2088 -0.3350
 7788TIP3    H247560   2.818   7.142  11.854  1.8554 -0.0957  1.6812
 7789TIP3   OH247561   4.699   2.513  11.343 -0.1677 -0.4682 -0.1362
 7789TIP3    H147562   4.673   2.432  11.299 -0.4341 -0.9101  0.8112
 7789TIP3    H247563   4.651   2.512  11.426  0.2167  0.4158  0.1097
 7790TIP3   OH247564   6.550   6.904  11.066 -0.7594 -0.3017  0.6444
 7790TIP3    H147565   6.642   6.915  11.089 -0.2811 -1.7298 -0.4811
 7790TIP3    H247566   6.535   6.966  10.995 -0.0489 -1.5793 -0.6648
 7791TIP3   OH247567   6.756   5.331  12.552 -0.5322 -0.5103  0.1544
 7791TIP3    H147568   6.701   5.375  12.616  2.8276  0.7292  2.4835
 7791TIP3    H247569   6.746   5.238  12.571 -0.2827 -0.2051  1.9427
 7792TIP3   OH247570   4.016   4.075  11.063 -0.3935 -0.5805  0.2728
 7792TIP3    H147571   3.958   4.122  11.123 -0.9655 -2.3074  1.1295
 7792TIP3    H247572   4.000   4.117  10.978  0.0579  1.5625  1.1682
 7793TIP3   OH247573   7.329   5.937  13.278  0.3769  0.2560  0.2012
 7793TIP3    H147574   7.275   5.990  13.219  0.0007 -0.4587 -0.1221
 7793TIP3    H247575   7.279   5.933  13.359  0.2078  0.0637  0.0893
 7794TIP3   OH247576   1.736   4.284  10.925 -0.1549 -0.4314 -0.0220
 7794TIP3    H147577   1.672   4.283  10.995 -0.3711  0.9933 -0.1650
 7794TIP3    H247578   1.728   4.371  10.886  1.1091 -0.5993 -0.7357
 7795TIP3   OH247579   4.964   6.309  10.846 -0.2788  0.3628 -0.2459
 7795TIP3    H147580   5.003   6.317  10.758  0.8684  1.3990  0.3286
 7795TIP3    H247581   4.959   6.398  10.878 -2.7087  0.2248 -0.0564
 7796TIP3   OH247582   5.923   3.962  10.860  0.4476  0.0317 -1.0426
 7796TIP3    H147583   5.958   4.015  10.932  1.1922  0.2167 -1.5357
 7796TIP3    H247584   5.869   3.896  10.903  2.0764 -0.8015 -0.1940
 7797TIP3   OH247585   6.065   1.691  11.122  0.4590 -0.1367 -0.5900
 7797TIP3    H147586   6.000   1.680  11.053  0.2164 -0.3199 -0.3352
 7797TIP3    H247587   6.120   1.613  11.116 -0.6329 -1.0297  0.5513
 7798TIP3   OH247588   6.939   0.229  11.145  0.2505  0.1203  0.0132
 7798TIP3    H147589   7.031   0.205  11.151  0.0864 -0.4607  0.2453
 7798TIP3    H247590   6.899   0.195  11.225  0.0794  1.5185  0.5540
 7799TIP3   OH247591   7.306   3.588  12.169  0.6453  0.0822 -0.1216
 7799TIP3    H147592   7.348   3.553  12.090  1.5600 -0.9903  0.7981
 7799TIP3    H247593   7.331   3.680  12.170 -0.2798  0.3927 -1.6308
 7800TIP3   OH247594   0.509   2.815  11.980 -0.0453  0.0328  0.0656
 7800TIP3    H147595   0.466   2.899  11.998 -0.9695 -0.3407 -0.3333
 7800TIP3    H247596   0.579   2.810  12.045  0.5367  1.4690 -0.4097
 7801TIP3   OH247597   1.649   1.225  10.647 -0.1407 -0.2321  0.6923
 7801TIP3    H147598   1.591   1.296  10.620  0.3166  0.4889  1.5719
 7801TIP3    H247599   1.592   1.165  10.695 -0.8640 -1.2939 -1.3781
 7802TIP3   OH247600   4.536   5.599  10.651  0.1900 -0.1015  0.0752
 7802TIP3    H147601   4.607   5.551  10.608  1.4552 -1.3260  3.2550
 7802TIP3    H247602   4.457   5.548  10.631  0.6954 -0.5282 -0.9001
 7803TIP3   OH247603   5.358   0.318  11.508 -0.1354 -0.3040  0.1506
 7803TIP3    H147604   5.292   0.249  11.508  0.4859 -0.9088 -0.0105
 7803TIP3    H247605   5.361   0.349  11.418 -0.9295  0.4501  0.3675
 7804TIP3   OH247606   7.432   6.665  12.938  0.7892  0.8432  0.5323
 7804TIP3    H147607   7.393   6.687  12.853 -1.5078  0.8871  1.5262
 7804TIP3    H247608   7.505   6.608  12.916 -0.5072 -0.1871 -1.4480
 7805TIP3   OH247609   4.365   1.328  11.975  0.2263  0.2148  0.7020
 7805TIP3    H147610   4.406   1.328  12.061  3.3207 -1.4580 -0.5689
 7805TIP3    H247611   4.362   1.235  11.951  1.2984  0.7220 -1.6961
 7806TIP3   OH247612   7.073   6.535  12.332 -0.0779  0.6470  0.1993
 7806TIP3    H147613   7.147   6.529  12.394  0.6114 -0.0078 -0.6590
 7806TIP3    H247614   7.084   6.620  12.290 -0.3514  0.9481  0.7254
 7807TIP3   OH247615   6.953   5.487  11.485 -0.1062  0.4148 -0.5754
 7807TIP3    H147616   6.875   5.443  11.452  0.5696  0.2975 -2.1210
 7807TIP3    H247617   6.953   5.573  11.443  0.2478  0.6676 -0.0738
 7808TIP3   OH247618   3.637   4.310  11.008 -0.0600  0.0036  0.3371
 7808TIP3    H147619   3.611   4.240  11.067 -1.6471  0.8016  0.6365
 7808TIP3    H247620   3.579   4.301  10.932  0.1460  0.6003  0.0975
 7809TIP3   OH247621   1.020   5.433  11.851 -0.2472 -0.3611  0.1046
 7809TIP3    H147622   0.937   5.471  11.879 -0.9575 -1.7814 -0.0060
 7809TIP3    H247623   1.059   5.397  11.930 -0.8087 -1.6506 -0.1730
 7810TIP3   OH247624   6.429   0.459  12.076 -0.1938  0.6145 -0.5311
 7810TIP3    H147625   6.345   0.419  12.053  0.0188 -1.2909  1.6220
 7810TIP3    H247626   6.420   0.551  12.050 -3.1276  0.5902  0.0779
 7811TIP3   OH247627   3.897   0.974  10.647  0.1284 -0.3523  0.1268
 7811TIP3    H147628   3.814   0.945  10.686 -0.5503  1.8854  0.5311
 7811TIP3    H247629   3.947   0.894  10.633 -1.7591 -1.6951  0.6781
 7812TIP3   OH247630   6.839   4.559  11.231  0.1671 -0.2028  0.1390
 7812TIP3    H147631   6.821   4.473  11.193 -1.3199 -0.2099  0.7745
 7812TIP3    H247632   6.777   4.566  11.303  1.1104  0.9143  0.8638
 7813TIP3   OH247633   3.052   3.130  10.970 -0.6087  0.5660  0.3092
 7813TIP3    H147634   3.057   3.096  11.060  0.7290 -0.4849 -0.1362
 7813TIP3    H247635   3.031   3.054  10.916  2.6436  0.2419 -0.7248
 7814TIP3   OH247636   7.365   0.298  11.966  0.1246 -0.0267  0.1501
 7814TIP3    H147637   7.446   0.306  11.916  0.0620  2.4531  0.2897
 7814TIP3    H247638   7.372   0.214  12.011  3.7412  1.0379  1.9969
 7815TIP3   OH247639   4.967   1.522  12.058 -0.2690  0.1413  0.2908
 7815TIP3    H147640   4.915   1.491  11.984 -0.6315  0.4597  0.4113
 7815TIP3    H247641   5.053   1.483  12.044 -0.4403 -0.1073 -0.0972
 7816TIP3   OH247642   4.902   1.687  12.250  0.1683  0.0243  0.0591
 7816TIP3    H147643   4.817   1.685  12.295  1.0070 -0.7621  1.6918
 7816TIP3    H247644   4.891   1.626  12.176 -0.8570  0.3926 -0.1179
 7817TIP3   OH247645   6.287   6.608  12.504 -0.0941 -0.7494  0.2848
 7817TIP3    H147646   6.322   6.554  12.575 -0.3575 -0.4702  0.6307
 7817TIP3    H247647   6.202   6.639  12.537  0.9623  1.6471  1.0123
 7818TIP3   OH247648   0.469   5.432  11.760  0.2237  0.2564  0.0784
 7818TIP3    H147649   0.434   5.356  11.715  0.5687 -1.1864  2.1028
 7818TIP3    H247650   0.399   5.497  11.757 -0.9086 -0.9300  0.1681
 7819TIP3   OH247651   3.179   4.540  12.637  0.0323  0.5060 -0.2164
 7819TIP3    H147652   3.090   4.532  12.602  0.6480 -1.6375 -1.5257
 7819TIP3    H247653   3.228   4.585  12.568  0.3952 -0.2045 -0.4365
 7820TIP3   OH247654   0.149   3.364  11.466  0.3207 -0.3376 -0.3179
 7820TIP3    H147655   0.181   3.405  11.385  2.8762 -1.6512 -0.0751
 7820TIP3    H247656   0.157   3.270  11.450 -3.1604 -0.8189  0.0094
 7821TIP3   OH247657   6.612   3.087  12.606 -0.1539  0.2668  0.3036
 7821TIP3    H147658   6.648   3.019  12.549  0.2462  1.1105 -0.4799
 7821TIP3    H247659   6.593   3.042  12.688  0.4536 -0.7053 -0.0695
 7822TIP3   OH247660   4.252   5.396  12.654 -0.4547  0.0469  0.1536
 7822TIP3    H147661   4.296   5.314  12.677 -1.5275 -0.3889  0.7214
 7822TIP3    H247662   4.311   5.465  12.686  0.3235 -0.4967 -0.0863
 7823TIP3   OH247663   7.565   6.038  10.869  0.2796 -0.8357 -0.4465
 7823TIP3    H147664   7.562   5.945  10.845 -1.5355 -0.8646 -0.2560
 7823TIP3    H247665   7.614   6.040  10.951 -0.0996 -1.6903 -0.1915
 7824TIP3   OH247666   0.167   6.417  12.661  0.0577 -0.0785 -0.6878
 7824TIP3    H147667   0.174   6.458  12.747 -0.3337  1.6544 -1.4395
 7824TIP3    H247668   0.163   6.324  12.680 -2.0764  0.3330  1.3095
 7825TIP3   OH247669   0.740   2.247  12.156  0.3212  0.6202  0.3945
 7825TIP3    H147670   0.822   2.216  12.119  0.3013  1.6484 -0.5720
 7825TIP3    H247671   0.728   2.334  12.118 -1.5946  0.1929 -0.1098
 7826TIP3   OH247672   5.768   5.621  10.750 -0.0073  0.2555  0.2625
 7826TIP3    H147673   5.858   5.597  10.773  0.1792  0.6065 -0.0809
 7826TIP3    H247674   5.725   5.637  10.834 -0.2378 -1.5701  0.5289
 7827TIP3   OH247675   0.810   0.999  13.324 -0.0166  0.4415  0.3906
 7827TIP3    H147676   0.875   0.929  13.335 -0.5054 -0.4571 -1.9460
 7827TIP3    H247677   0.858   1.070  13.282 -0.3903 -0.0554 -0.9282
 7828TIP3   OH247678   3.651   3.722  11.403  0.1806  0.5660 -0.5153
 7828TIP3    H147679   3.591   3.792  11.377 -0.3595 -0.4658 -2.1754
 7828TIP3    H247680   3.618   3.644  11.359  1.5046 -0.4794  0.2762
 7829TIP3   OH247681   1.483   2.565  11.975  0.9169  0.2764 -0.3950
 7829TIP3    H147682   1.488   2.575  12.070 -1.4223  0.4499 -0.2119
 7829TIP3    H247683   1.427   2.489  11.962  0.8381  0.5301 -1.6319
 7830TIP3   OH247684   0.368   0.454  12.228 -0.3873  0.2000  0.3439
 7830TIP3    H147685   0.346   0.365  12.254 -0.7034 -0.0061 -0.6175
 7830TIP3    H247686   0.398   0.447  12.138 -1.3832  1.1940 -0.0895
 7831TIP3   OH247687   1.199   0.597  10.730  0.3699 -0.2690  0.2132
 7831TIP3    H147688   1.109   0.618  10.706  0.5610 -1.2821 -1.5386
 7831TIP3    H247689   1.250   0.673  10.700  0.3592 -0.6945 -0.9464
 7832TIP3   OH247690   0.163   4.859  13.232  0.1804 -0.5176  0.7408
 7832TIP3    H147691   0.109   4.923  13.278 -0.8857 -1.1545  0.4299
 7832TIP3    H247692   0.120   4.775  13.249  0.9026 -1.0101  0.2211
 7833TIP3   OH247693   0.466   1.761  13.006 -0.4315 -0.0217 -0.0110
 7833TIP3    H147694   0.453   1.686  13.065 -0.7334 -1.3422 -1.7011
 7833TIP3    H247695   0.538   1.811  13.047  1.1268 -2.2721  0.1758
 7834TIP3   OH247696   0.137   3.652  13.286 -0.3243 -0.0931  0.4916
 7834TIP3    H147697   0.200   3.627  13.353 -0.4504 -0.2985  0.5336
 7834TIP3    H247698   0.149   3.746  13.276  0.6656 -0.2647 -0.1837
 7835TIP3   OH247699   7.369   3.645  11.903 -0.2945 -0.3050 -0.1334
 7835TIP3    H147700   7.396   3.708  11.836 -0.7957  0.2830  0.2103
 7835TIP3    H247701   7.373   3.560  11.859  0.8925 -0.1091 -0.4592
 7836TIP3   OH247702   7.300   4.612  12.897  0.2955  0.1707 -0.0951
 7836TIP3    H147703   7.304   4.673  12.971 -2.3706 -1.3506  1.4823
 7836TIP3    H247704   7.381   4.562  12.902 -0.3901 -0.8541  2.7960
 7837TIP3   OH247705   7.448   1.753  11.217 -0.7443 -0.0202  0.5492
 7837TIP3    H147706   7.443   1.811  11.141 -1.7766  0.8994  1.2830
 7837TIP3    H247707   7.358   1.723  11.229 -0.5684 -0.2544  1.3237
 7838TIP3   OH247708   5.576   5.079  10.663  0.1150  0.2135  0.4378
 7838TIP3    H147709   5.565   4.989  10.634  1.1048  0.2130  0.0003
 7838TIP3    H247710   5.534   5.083  10.748 -1.0465 -0.3279 -0.0890
 7839TIP3   OH247711   6.886   0.487  11.119 -0.8789  0.0377 -0.5375
 7839TIP3    H147712   6.920   0.399  11.130  3.3570  1.6910  2.3599
 7839TIP3    H247713   6.945   0.528  11.055 -1.3737  1.3512 -0.1933
 7840TIP3   OH247714   7.516   2.497  12.889  0.3578 -0.1898 -0.0977
 7840TIP3    H147715   7.581   2.494  12.819  2.8079 -1.4897  2.0578
 7840TIP3    H247716   7.469   2.414  12.883 -1.1325  0.7005 -1.5829
 7841TIP3   OH247717   4.980   4.890  12.808 -0.1867  0.4292 -0.1995
 7841TIP3    H147718   4.994   4.817  12.747 -0.2326  1.3993 -1.4014
 7841TIP3    H247719   5.052   4.882  12.870 -0.6731 -1.1356  0.2099
 7842TIP3   OH247720   0.934   2.052  11.462  0.5274 -0.1466  0.0361
 7842TIP3    H147721   0.917   2.042  11.368  0.0318 -1.8587  0.2735
 7842TIP3    H247722   0.954   1.964  11.492 -1.9718 -0.1394  2.0316
 7843TIP3   OH247723   5.405   2.844  12.838  0.4218 -0.1552  0.1003
 7843TIP3    H147724   5.356   2.798  12.906 -0.0518 -1.5081 -1.1056
 7843TIP3    H247725   5.494   2.808  12.843  0.4456 -0.0888  0.1530
 7844TIP3   OH247726   1.562   4.637  12.228  0.3846  0.8126 -0.0155
 7844TIP3    H147727   1.526   4.717  12.266  0.7839  0.1642  1.8867
 7844TIP3    H247728   1.489   4.574  12.231  0.3773  0.8023 -0.4630
 7845TIP3   OH247729   0.062   4.565  12.948  0.2153  0.0112  0.0515
 7845TIP3    H147730   0.104   4.529  13.027  0.9781  1.7654  0.5040
 7845TIP3    H247731  -0.019   4.515  12.939  0.2696 -0.4634  1.7578
 7846TIP3   OH247732   7.203   2.128  10.772 -0.3310 -0.6687 -0.6861
 7846TIP3    H147733   7.234   2.072  10.843  1.3962  1.0636  0.0042
 7846TIP3    H247734   7.118   2.161  10.804  0.4374  0.1220  0.6421
 7847TIP3   OH247735   2.427   5.295  12.913  0.2985  0.1128 -0.6711
 7847TIP3    H147736   2.399   5.204  12.914  0.7780 -0.0434  0.8026
 7847TIP3    H247737   2.367   5.340  12.972  2.6242 -0.1332  2.1051
 7848TIP3   OH247738   4.863   3.543  12.524  0.0061  0.6880  0.1556
 7848TIP3    H147739   4.842   3.607  12.592 -1.3176 -0.5812  0.9787
 7848TIP3    H247740   4.780   3.529  12.478  0.5071  0.2722 -0.6549
 7849TIP3   OH247741   4.830   4.729  10.980 -0.6431  0.3415  0.4539
 7849TIP3    H147742   4.908   4.705  10.930 -1.6477 -3.0763  0.2454
 7849TIP3    H247743   4.768   4.760  10.914 -0.4161  0.3196  0.2291
 7850TIP3   OH247744   3.463   4.474  11.196 -0.8731 -0.6125  0.7424
 7850TIP3    H147745   3.496   4.430  11.117  2.9848  0.3266  1.6319
 7850TIP3    H247746   3.464   4.567  11.174 -1.5412 -0.4646  1.3221
 7851TIP3   OH247747   1.557   4.482  11.552  0.2372 -0.0922  0.0141
 7851TIP3    H147748   1.554   4.386  11.547 -1.3166 -0.0687  0.1341
 7851TIP3    H247749   1.642   4.501  11.592  0.1758 -1.4622  0.8549
 7852TIP3   OH247750   6.775   5.422  12.274 -0.3108  0.0167  0.0074
 7852TIP3    H147751   6.798   5.363  12.201  0.0922 -1.5168  1.3203
 7852TIP3    H247752   6.741   5.364  12.342 -3.0757  1.6491  0.1808
 7853TIP3   OH247753   6.797   6.589  13.239  0.1981 -0.1091  0.4955
 7853TIP3    H147754   6.872   6.646  13.255  0.6816 -0.2576 -1.0513
 7853TIP3    H247755   6.763   6.569  13.326  2.5507 -0.8402  1.3130
 7854TIP3   OH247756   1.971   5.999  10.557  0.0310 -0.0300  0.1644
 7854TIP3    H147757   2.000   5.910  10.532  0.1260 -0.3417  1.3248
 7854TIP3    H247758   2.052   6.050  10.560  0.0275 -0.0082 -0.0790
 7855TIP3   OH247759   0.295   6.057  10.529 -0.0785 -0.2328  0.1460
 7855TIP3    H147760   0.352   6.010  10.589 -1.8329 -2.1582  0.3823
 7855TIP3    H247761   0.346   6.134  10.503  2.1876 -1.3295  1.1283
 7856TIP3   OH247762   1.357   7.200  11.147 -0.6989 -0.4937  0.2339
 7856TIP3    H147763   1.405   7.193  11.229 -0.7267 -0.5624  0.2431
 7856TIP3    H247764   1.342   7.294  11.136  1.2015 -0.2403 -0.7681
 7857TIP3   OH247765   5.437   1.870  12.156  0.3503 -0.2150 -0.2914
 7857TIP3    H147766   5.363   1.900  12.103 -1.0152 -0.9177  1.1329
 7857TIP3    H247767   5.460   1.945  12.210  0.0950 -0.2563 -0.1231
 7858TIP3   OH247768   7.530   1.461  11.913 -0.0676  0.3751 -0.1928
 7858TIP3    H147769   7.471   1.402  11.866 -0.4397 -0.1417  0.8655
 7858TIP3    H247770   7.610   1.463  11.860 -0.4521 -0.2155 -0.8117
 7859TIP3   OH247771   1.696   5.034  11.342 -0.2530  0.6646 -0.1744
 7859TIP3    H147772   1.761   5.028  11.272 -0.7613 -0.8286 -0.5526
 7859TIP3    H247773   1.617   5.067  11.299  0.2069  2.4340  0.2748
 7860TIP3   OH247774   7.217   3.430  11.464 -0.0912 -0.0008  0.6020
 7860TIP3    H147775   7.225   3.432  11.560  0.7310 -1.3315  0.5965
 7860TIP3    H247776   7.302   3.396  11.435  0.1797  1.6859 -0.7045
 7861TIP3   OH247777   1.314   5.886  12.053  0.6244  0.2296 -0.2890
 7861TIP3    H147778   1.326   5.802  12.098 -0.3834 -0.3274 -1.0274
 7861TIP3    H247779   1.403   5.921  12.046  1.3780 -1.7714 -1.8271
 7862TIP3   OH247780   2.329   4.128  11.622  0.3496  0.7249 -0.4543
 7862TIP3    H147781   2.251   4.167  11.584  0.3089  1.3366  0.2416
 7862TIP3    H247782   2.298   4.045  11.660  0.0942  0.8443 -0.4038
 7863TIP3   OH247783   1.262   4.072  10.676  0.3214 -0.0805 -0.1608
 7863TIP3    H147784   1.358   4.072  10.670  0.3187 -0.9195 -0.3958
 7863TIP3    H247785   1.238   3.980  10.666 -0.5374  0.1688 -0.4464
 7864TIP3   OH247786   2.205   3.311  10.582  0.2564 -0.4980  0.4691
 7864TIP3    H147787   2.272   3.294  10.648  2.2168  0.4817 -1.1495
 7864TIP3    H247788   2.238   3.386  10.533 -1.1358 -1.1092 -1.5443
 7865TIP3   OH247789   4.569   1.016  12.836  0.2495 -0.0468 -0.4388
 7865TIP3    H147790   4.513   1.091  12.857  0.4345  0.0691 -0.3590
 7865TIP3    H247791   4.522   0.940  12.870  0.5702  0.1407  0.4461
 7866TIP3   OH247792   4.009   3.345  13.066  0.7288  0.0740 -0.1786
 7866TIP3    H147793   4.035   3.436  13.081  1.0868 -0.2551  1.4500
 7866TIP3    H247794   4.092   3.298  13.058  0.5493 -0.1839 -0.5376
 7867TIP3   OH247795   5.190   5.232  12.118 -0.1094  0.1971  0.2330
 7867TIP3    H147796   5.131   5.287  12.170 -0.3442  1.6261 -1.4556
 7867TIP3    H247797   5.278   5.263  12.139 -0.1638  0.3166  0.2813
 7868TIP3   OH247798   0.611   4.431  12.700 -0.3066  0.3988 -0.1226
 7868TIP3    H147799   0.672   4.504  12.691 -1.6113  1.6715  1.0557
 7868TIP3    H247800   0.649   4.377  12.769  0.3037  0.2993 -0.5227
 7869TIP3   OH247801   5.043   3.980  12.503 -0.2327 -0.1786  0.5137
 7869TIP3    H147802   4.965   3.952  12.455  0.2373 -0.0860 -0.3339
 7869TIP3    H247803   5.009   4.027  12.579 -1.0609  2.1860 -1.1881
 7870TIP3   OH247804   2.298   5.076  13.207 -0.0714 -0.6490 -0.8295
 7870TIP3    H147805   2.349   5.063  13.127  0.1605 -1.8678 -0.4994
 7870TIP3    H247806   2.358   5.052  13.277 -0.3250  0.2635 -0.2900
 7871TIP3   OH247807   3.580   3.183  11.421  0.0320  0.6503  1.1107
 7871TIP3    H147808   3.639   3.242  11.375 -0.0552  0.2510  0.4683
 7871TIP3    H247809   3.609   3.095  11.396  0.3775  0.3989  2.3255
 7872TIP3   OH247810   7.645   2.515  12.649  0.4269  0.5435 -0.3464
 7872TIP3    H147811   7.635   2.608  12.666  0.8119  0.6000 -0.4274
 7872TIP3    H247812   7.669   2.510  12.556 -1.8626  0.2308 -0.9943
 7873TIP3   OH247813   0.274   4.140  12.951  0.4328 -0.3882 -0.1369
 7873TIP3    H147814   0.188   4.171  12.979  0.4979 -0.2269 -0.1209
 7873TIP3    H247815   0.312   4.100  13.029  0.1352 -0.9864 -0.2833
 7874TIP3   OH247816   3.489   0.790  10.548 -0.3266  0.3255 -0.1715
 7874TIP3    H147817   3.436   0.870  10.548  0.3511  0.7837  0.7923
 7874TIP3    H247818   3.577   0.819  10.572 -0.3741 -0.9036  1.6232
 7875TIP3   OH247819   7.165   3.631  11.231 -0.2150 -0.2977  0.2162
 7875TIP3    H147820   7.178   3.538  11.251 -0.4683 -0.2919  0.4119
 7875TIP3    H247821   7.143   3.632  11.137 -0.5994 -0.4730  0.3025
 7876TIP3   OH247822   5.745   6.482  10.327  0.0676 -0.9183  0.0357
 7876TIP3    H147823   5.688   6.559  10.333 -0.5857 -1.5021  2.8816
 7876TIP3    H247824   5.716   6.437  10.248  0.9666  2.0305 -2.1415
 7877TIP3   OH247825   6.835   2.251  10.420  0.1068 -0.3456 -0.2062
 7877TIP3    H147826   6.925   2.221  10.407 -0.1251 -0.6730 -1.1335
 7877TIP3    H247827   6.843   2.328  10.476  0.6395 -2.8043  3.3764
 7878TIP3   OH247828   6.747   2.308  11.709 -0.2422 -0.0484 -0.4668
 7878TIP3    H147829   6.702   2.388  11.680 -0.9865 -0.5453 -0.6953
 7878TIP3    H247830   6.773   2.327  11.799 -1.0433  0.1956 -0.2737
 7879TIP3   OH247831   0.218   5.019  10.908 -0.4326  0.3961  0.4259
 7879TIP3    H147832   0.286   5.084  10.888  0.6539 -1.4969 -2.7419
 7879TIP3    H247833   0.261   4.954  10.962  0.0125 -0.2182 -0.6343
 7880TIP3   OH247834   0.789   6.668  11.457 -0.0573  0.1850  0.4946
 7880TIP3    H147835   0.715   6.615  11.486 -0.1921  0.4054  0.5595
 7880TIP3    H247836   0.853   6.663  11.528 -1.6011  3.1642  2.2586
 7881TIP3   OH247837   7.108   0.105  12.373 -0.0270 -0.3470 -0.3656
 7881TIP3    H147838   7.020   0.123  12.341 -0.4197  0.3389  1.0345
 7881TIP3    H247839   7.120   0.011  12.359 -0.4697 -0.2205 -1.7350
 7882TIP3   OH247840   7.560   0.645  11.624  0.5297 -0.1358  0.0372
 7882TIP3    H147841   7.596   0.680  11.705  1.6359  0.8031 -0.8146
 7882TIP3    H247842   7.482   0.598  11.650  0.6405  0.4942  1.5936
 7883TIP3   OH247843   3.005   6.342  11.395 -0.1306  0.3943 -0.0973
 7883TIP3    H147844   3.003   6.309  11.305 -1.4734 -3.8399  1.2561
 7883TIP3    H247845   3.093   6.319  11.426 -0.9285 -1.7974  0.7209
 7884TIP3   OH247846   6.825   6.679  11.198  0.4186  0.0798 -0.3639
 7884TIP3    H147847   6.830   6.641  11.111  1.5014  1.4416 -0.9269
 7884TIP3    H247848   6.833   6.604  11.257  0.8236 -0.7352 -1.4291
 7885TIP3   OH247849   5.475   0.553  12.058 -0.2926 -0.2203  0.3035
 7885TIP3    H147850   5.456   0.592  12.143 -1.0230 -0.7757  0.4058
 7885TIP3    H247851   5.396   0.504  12.036  0.3080 -1.0036 -0.1688
 7886TIP3   OH247852   6.897   0.082  11.356  0.2958 -0.2819 -0.1256
 7886TIP3    H147853   6.801   0.078  11.357  0.3312 -2.5078  0.4038
 7886TIP3    H247854   6.924  -0.007  11.376  2.4999  0.7152  1.7338
 7887TIP3   OH247855   4.723   0.517  11.349  0.1967 -0.2303  0.6463
 7887TIP3    H147856   4.792   0.580  11.369  1.1668 -0.8194 -0.6713
 7887TIP3    H247857   4.748   0.481  11.264 -1.1148 -1.3276  0.6972
 7888TIP3   OH247858   4.216   5.081  11.873 -0.2198  0.3812 -0.1606
 7888TIP3    H147859   4.226   5.060  11.965  0.6513  0.8207 -0.1453
 7888TIP3    H247860   4.304   5.070  11.836 -0.4773  0.5839 -0.8516
 7889TIP3   OH247861   0.581   6.767  11.711  0.3052  0.5875  0.3805
 7889TIP3    H147862   0.504   6.742  11.763  0.7595 -2.0817 -0.0541
 7889TIP3    H247863   0.590   6.696  11.647  1.9074  1.9253 -0.9806
 7890TIP3   OH247864   1.193   3.748  11.006 -0.1720  0.1391  0.0964
 7890TIP3    H147865   1.124   3.681  11.009  0.6282 -1.2797 -4.4517
 7890TIP3    H247866   1.264   3.711  11.057 -0.8260 -1.1145  0.1518
 7891TIP3   OH247867   5.641   4.332  12.978 -0.8265 -0.3671 -0.2872
 7891TIP3    H147868   5.622   4.264  13.043  2.5508 -2.1518 -0.9261
 7891TIP3    H247869   5.629   4.288  12.894 -0.6772  0.5142 -0.7799
 7892TIP3   OH247870   1.977   5.936  11.778 -0.4066 -0.3709  0.5737
 7892TIP3    H147871   1.942   5.852  11.807 -1.3296  0.2736  1.4067
 7892TIP3    H247872   2.071   5.929  11.792 -0.5923 -0.8909  1.6645
 7893TIP3   OH247873   6.506   1.571  10.904  0.3131 -0.2870 -0.5633
 7893TIP3    H147874   6.466   1.484  10.900 -0.0433 -0.1042 -1.0570
 7893TIP3    H247875   6.571   1.570  10.834  0.9722 -0.4816  0.0497
 7894TIP3   OH247876   7.586   5.146  11.643  0.1286  0.5120 -0.3131
 7894TIP3    H147877   7.560   5.087  11.714 -0.0248 -0.3550 -1.0764
 7894TIP3    H247878   7.612   5.088  11.572 -1.5959  1.3089 -1.6809
 7895TIP3   OH247879   0.496   1.522  10.964  0.1864  0.3560 -0.0662
 7895TIP3    H147880   0.568   1.507  10.902  2.1890  0.4647  2.0600
 7895TIP3    H247881   0.503   1.615  10.986  0.4837  0.0241  1.3677
 7896TIP3   OH247882   2.499   1.091  11.434 -0.3623  0.1936  0.1679
 7896TIP3    H147883   2.582   1.043  11.434 -0.5802 -0.2419  1.6934
 7896TIP3    H247884   2.522   1.178  11.400  0.7674  0.1469  0.7465
 7897TIP3   OH247885   6.250   3.101  11.159 -0.1066 -0.0097 -0.4276
 7897TIP3    H147886   6.193   3.090  11.236 -0.8922  0.9099 -0.8680
 7897TIP3    H247887   6.199   3.065  11.087  0.8508 -1.3765 -0.4602
 7898TIP3   OH247888   6.077   7.024  12.547 -0.5187  0.2877  0.1109
 7898TIP3    H147889   5.994   7.062  12.517  0.8451  2.6341 -0.9317
 7898TIP3    H247890   6.121   7.095  12.593  0.8166 -1.0060  0.9089
 7899TIP3   OH247891   5.166   5.625  11.552  0.4459  0.0111  0.0944
 7899TIP3    H147892   5.171   5.703  11.497  1.8252 -0.8577 -1.0903
 7899TIP3    H247893   5.257   5.596  11.560 -0.1279 -2.0593 -0.3978
 7900TIP3   OH247894   4.985   4.615  12.687  0.1735 -0.4823  0.0674
 7900TIP3    H147895   4.988   4.594  12.593 -0.2967  0.0431 -0.0689
 7900TIP3    H247896   4.978   4.529  12.730  0.6549 -0.7445 -0.3550
 7901TIP3   OH247897   6.429   4.606  13.373  0.0832 -0.0067  0.0613
 7901TIP3    H147898   6.357   4.544  13.381  0.3535 -0.2387  0.7169
 7901TIP3    H247899   6.396   4.687  13.412 -0.2640  0.2714 -0.7816
 7902TIP3   OH247900   0.468   1.789  10.408  0.4161 -0.0019 -0.3843
 7902TIP3    H147901   0.479   1.726  10.337  0.3314  0.6014 -0.9397
 7902TIP3    H247902   0.393   1.757  10.458  2.3101 -2.1677  1.3206
 7903TIP3   OH247903   4.805   3.927  12.354 -0.5394  0.1771 -0.0119
 7903TIP3    H147904   4.719   3.885  12.361 -1.0658  1.2989  0.3572
 7903TIP3    H247905   4.787   4.013  12.317  0.0277  1.6681  2.9255
 7904TIP3   OH247906   5.961   5.011  10.902  0.0559  0.0163  0.0639
 7904TIP3    H147907   5.931   5.068  10.831  2.4784  1.1280 -0.1992
 7904TIP3    H247908   5.885   4.958  10.925 -1.7946  2.0801 -0.9455
 7905TIP3   OH247909   4.556   3.607  11.651  0.4413 -0.6797  0.1469
 7905TIP3    H147910   4.648   3.582  11.656  0.4418 -1.1222 -1.5744
 7905TIP3    H247911   4.551   3.669  11.579 -0.4639  0.0994  0.8524
 7906TIP3   OH247912   3.188   1.001  12.510  0.1870 -0.2494 -0.0235
 7906TIP3    H147913   3.172   0.921  12.560  1.3261  0.3320  1.3403
 7906TIP3    H247914   3.101   1.038  12.496 -0.3454 -1.6334 -0.5482
 7907TIP3   OH247915   5.510   0.852  18.341 -0.1160 -0.1432 -0.9092
 7907TIP3    H147916   5.603   0.874  18.335 -0.7454  2.6509 -1.5232
 7907TIP3    H247917   5.477   0.906  18.412 -1.3312 -1.0246 -0.7727
 7908TIP3   OH247918   7.439   4.812  11.426  0.0611  0.1258 -0.8183
 7908TIP3    H147919   7.414   4.772  11.343 -1.3889  1.5006 -1.1119
 7908TIP3    H247920   7.498   4.883  11.401  1.2050 -0.6748 -0.4648
 7909TIP3   OH247921   0.704   4.581  11.711  0.4276  0.3520 -0.3781
 7909TIP3    H147922   0.770   4.642  11.678  1.9512 -0.2685  1.3147
 7909TIP3    H247923   0.695   4.603  11.803  0.3150 -1.3346  0.0484
 7910TIP3   OH247924   2.001   6.230  10.853 -0.4221  0.0211 -0.2588
 7910TIP3    H147925   2.079   6.189  10.816  0.1902  1.5086 -0.6546
 7910TIP3    H247926   1.989   6.186  10.938  0.5966 -0.5025 -0.3771
 7911TIP3   OH247927   1.314   2.929  13.284 -0.0704 -0.3018 -0.2853
 7911TIP3    H147928   1.247   2.895  13.225  0.9894 -1.7745 -0.6943
 7911TIP3    H247929   1.294   2.888  13.368  1.6399 -2.7387 -0.9409
 7912TIP3   OH247930   2.798   2.404  11.488 -0.3071  0.0437 -0.1965
 7912TIP3    H147931   2.711   2.370  11.466  0.2470 -0.5996 -1.5486
 7912TIP3    H247932   2.792   2.498  11.470 -0.7063 -0.0055 -0.3351
 7913TIP3   OH247933   6.836   5.873  12.283  0.0755 -0.2774  0.2481
 7913TIP3    H147934   6.898   5.936  12.319  0.5719 -0.3738 -0.4220
 7913TIP3    H247935   6.886   5.793  12.271 -0.7191 -1.0476  1.7539
 7914TIP3   OH247936   6.102   0.130  12.034  0.1228 -0.0595  0.0117
 7914TIP3    H147937   6.131   0.097  12.119 -0.6172  0.5630  0.5142
 7914TIP3    H247938   6.007   0.131  12.039  0.0449 -0.5004 -1.0228
 7915TIP3   OH247939   5.660   6.435  11.912 -0.2625 -0.0788 -0.4711
 7915TIP3    H147940   5.678   6.456  12.004 -0.1364 -0.3602 -0.4300
 7915TIP3    H247941   5.726   6.485  11.863  0.4157 -0.8165 -0.3406
 7916TIP3   OH247942   0.782   1.216  12.901  0.5928  0.1418  0.3456
 7916TIP3    H147943   0.857   1.244  12.849  0.3175 -1.1029 -0.8080
 7916TIP3    H247944   0.814   1.140  12.950  0.0738 -0.4971 -0.2784
 7917TIP3   OH247945   4.517   5.091  11.969 -0.1524 -0.3587 -0.0890
 7917TIP3    H147946   4.544   5.048  11.888 -1.4975 -2.6902  0.6184
 7917TIP3    H247947   4.598   5.108  12.017  0.5931  0.3399 -1.5300
 7918TIP3   OH247948   1.257   2.706  10.400  0.1586 -0.3383  0.0466
 7918TIP3    H147949   1.255   2.626  10.452  1.5610 -0.3970  0.0282
 7918TIP3    H247950   1.199   2.688  10.326  0.6696 -1.4457 -0.1027
 7919TIP3   OH247951   7.644   4.472  12.501  0.5406  0.2933  0.2103
 7919TIP3    H147952   7.675   4.529  12.431  1.1483 -1.9355 -1.4835
 7919TIP3    H247953   7.724   4.440  12.543  0.4684 -1.8239 -1.0901
 7920TIP3   OH247954   2.567   4.183  11.779  0.8274 -0.3912  0.0096
 7920TIP3    H147955   2.559   4.157  11.871 -0.0478  0.9400  0.3439
 7920TIP3    H247956   2.489   4.147  11.737 -0.1728  1.2081  0.3883
 7921TIP3   OH247957   6.679   7.012  10.711 -0.4064  0.1893  0.1423
 7921TIP3    H147958   6.772   6.992  10.699 -0.3377  0.8211 -0.4494
 7921TIP3    H247959   6.634   6.933  10.682 -0.0714  0.1319 -0.2357
 7922TIP3   OH247960   6.882   3.086  11.041  0.0570 -0.3201 -0.4377
 7922TIP3    H147961   6.913   2.999  11.015 -0.4259 -0.1737 -1.5938
 7922TIP3    H247962   6.810   3.068  11.102 -0.9416 -0.8022 -1.6942
 7923TIP3   OH247963   1.839   0.081  11.335 -0.4563 -0.0317 -0.0936
 7923TIP3    H147964   1.867   0.172  11.326 -1.1991  0.3302  1.0924
 7923TIP3    H247965   1.876   0.037  11.258  0.3169  1.1612 -0.4302
 7924TIP3   OH247966   5.225   4.927  12.029  0.5285  1.0798  0.1451
 7924TIP3    H147967   5.257   4.941  12.118 -0.7464  2.7504  0.3855
 7924TIP3    H247968   5.180   5.008  12.007 -0.7175  0.0231 -1.3711
 7925TIP3   OH247969   7.236   7.384  10.938 -0.0913  0.4969  0.0392
 7925TIP3    H147970   7.228   7.371  11.033 -1.7214 -0.7624 -0.2249
 7925TIP3    H247971   7.327   7.411  10.926  0.2213  0.4663  1.9431
 7926TIP3   OH247972   0.262   5.483  11.250  0.0198  0.0052  0.2134
 7926TIP3    H147973   0.292   5.487  11.160  0.3910 -1.3778  0.2430
 7926TIP3    H247974   0.328   5.532  11.300  1.1313 -1.1975  0.0004
 7927TIP3   OH247975   6.774   2.612  12.562  0.1453  0.6848 -0.7795
 7927TIP3    H147976   6.802   2.538  12.617 -1.5008 -0.2250 -1.1087
 7927TIP3    H247977   6.679   2.603  12.557  0.0747  1.9220 -2.1344
 7928TIP3   OH247978   4.702   7.101  11.692 -0.0960 -0.0456 -0.4611
 7928TIP3    H147979   4.714   7.066  11.781 -0.9046 -0.8608 -0.6534
 7928TIP3    H247980   4.659   7.185  11.706 -1.1289 -0.6119 -0.0977
 7929TIP3   OH247981   7.259   5.395  11.883  0.7013 -0.1187 -0.2329
 7929TIP3    H147982   7.178   5.377  11.932  1.1098  0.7132  0.7799
 7929TIP3    H247983   7.286   5.482  11.912  1.4645  0.0124 -1.2697
 7930TIP3   OH247984   2.056   2.698  10.957 -0.5515 -0.5011 -0.2034
 7930TIP3    H147985   2.121   2.768  10.960 -0.0062 -1.0225  0.4931
 7930TIP3    H247986   1.994   2.726  10.890  1.8531 -1.2243 -2.9723
 7931TIP3   OH247987   6.265   5.599  12.089  0.0339 -0.0375  0.5026
 7931TIP3    H147988   6.280   5.548  12.009  0.7728  0.9059  0.0244
 7931TIP3    H247989   6.315   5.552  12.156 -0.4506 -0.7357  0.3965
 7932TIP3   OH247990   0.856   4.320  11.289 -0.6532 -0.2273  0.1056
 7932TIP3    H147991   0.800   4.397  11.285  0.7293  0.8425 -4.0992
 7932TIP3    H247992   0.797   4.246  11.279 -1.7685  0.4318  1.5917
 7933TIP3   OH247993   5.562   6.738  11.863 -0.5341 -0.3707 -0.1239
 7933TIP3    H147994   5.502   6.665  11.877  0.1370 -1.1153 -1.0422
 7933TIP3    H247995   5.643   6.698  11.831 -0.9517  0.8950 -3.1174
 7934TIP3   OH247996   1.711   2.244  12.093  0.0058  0.0064  0.0177
 7934TIP3    H147997   1.705   2.327  12.140  2.5439  1.0951 -1.3566
 7934TIP3    H247998   1.746   2.182  12.157  0.4649  0.6588  0.4109
 7935TIP3   OH247999   3.744   2.766  12.472  0.6133  0.2752  0.5099
 7935TIP3    H148000   3.748   2.670  12.478 -2.8213  0.0572  1.0608
 7935TIP3    H248001   3.733   2.794  12.563  1.8469  1.2809  0.3776
 7936TIP3   OH248002   2.305   6.288  11.670  0.2370  0.7111  0.0751
 7936TIP3    H148003   2.246   6.335  11.729  0.9905  0.8016  0.7815
 7936TIP3    H248004   2.366   6.243  11.729  0.3983 -0.0049 -0.6235
 7937TIP3   OH248005   6.188   5.531  13.135  0.2620  0.2373 -0.5873
 7937TIP3    H148006   6.226   5.600  13.081  0.0836 -0.0515 -1.0853
 7937TIP3    H248007   6.149   5.577  13.209 -0.3588  0.7242 -1.2073
 7938TIP3   OH248008   3.677   7.037  10.918 -0.2470 -0.1449 -0.1371
 7938TIP3    H148009   3.698   6.947  10.896 -0.0221 -1.1150  3.5054
 7938TIP3    H248010   3.591   7.033  10.960  0.7382  0.9183  2.1390
 7939TIP3   OH248011   6.457   2.819  11.847  0.2295  0.2350  0.4130
 7939TIP3    H148012   6.418   2.895  11.804 -0.4472 -0.4400 -0.1967
 7939TIP3    H248013   6.466   2.845  11.938 -1.4692  0.4902  0.5335
 7940TIP3   OH248014   6.863   7.489  11.573 -0.2214  0.0853  0.3446
 7940TIP3    H148015   6.775   7.486  11.535 -0.0395  0.5843 -0.1237
 7940TIP3    H248016   6.895   7.399  11.565 -0.9444 -0.2607  1.1576
 7941TIP3   OH248017   5.976   4.241  11.478  0.1657  0.1520 -0.1944
 7941TIP3    H148018   6.044   4.210  11.418 -0.0999  1.2420 -1.0824
 7941TIP3    H248019   6.001   4.204  11.562  2.2494  1.0431 -0.3438
 7942TIP3   OH248020   0.366   3.577  10.678 -0.2339  0.0002 -0.1797
 7942TIP3    H148021   0.421   3.499  10.672 -0.6926 -0.4355  0.8580
 7942TIP3    H248022   0.426   3.646  10.706 -0.0906 -0.3462  0.4065
 7943TIP3   OH248023   5.041   6.719  10.719  0.0021  0.3005  0.2258
 7943TIP3    H148024   5.001   6.700  10.804 -0.3447 -0.2617 -0.0600
 7943TIP3    H248025   4.983   6.679  10.655  1.3970 -1.1820 -0.1696
 7944TIP3   OH248026   7.492   7.334  11.234 -0.0733 -0.0847  0.0497
 7944TIP3    H148027   7.579   7.344  11.274 -0.8778 -0.1966  1.9194
 7944TIP3    H248028   7.488   7.406  11.170  1.6563 -0.5317 -0.6301
 7945TIP3   OH248029   3.303   6.717  11.061 -0.2051 -0.1845 -0.1669
 7945TIP3    H148030   3.209   6.700  11.051 -0.4654  1.0274  0.1404
 7945TIP3    H248031   3.345   6.636  11.031 -1.4004 -1.5753  1.6636
 7946TIP3   OH248032   3.229   4.400  12.876 -0.6659 -0.0024 -0.1829
 7946TIP3    H148033   3.208   4.463  12.807 -1.5844  0.8255  0.8214
 7946TIP3    H248034   3.248   4.319  12.829 -0.9122  0.6377 -1.4284
 7947TIP3   OH248035   0.343   3.567  11.082  0.1840  0.2883  0.2891
 7947TIP3    H148036   0.317   3.576  11.173 -2.0371 -1.0674 -0.1490
 7947TIP3    H248037   0.263   3.583  11.032  1.6464  2.4838 -1.5681
 7948TIP3   OH248038   6.486   6.329  12.895 -0.2863  0.2668  0.3064
 7948TIP3    H148039   6.572   6.328  12.935 -1.5305 -1.1726  3.1835
 7948TIP3    H248040   6.492   6.265  12.824  1.1112  0.5720  0.1174
 7949TIP3   OH248041   6.609   0.572  11.016  0.0946  0.1540  0.2633
 7949TIP3    H148042   6.696   0.568  11.057  1.1353 -0.9676 -1.8754
 7949TIP3    H248043   6.593   0.482  10.986 -1.5023  0.5009 -0.0028
 7950TIP3   OH248044   6.171   1.149  12.006  0.2186  0.0334 -0.4204
 7950TIP3    H148045   6.125   1.233  12.007  1.1592  0.6103  1.8253
 7950TIP3    H248046   6.218   1.148  11.923  0.5605  1.9825 -0.3035
 7951TIP3   OH248047   5.632   7.368  11.472  0.1345 -0.0336  0.6356
 7951TIP3    H148048   5.711   7.351  11.421 -1.0239 -0.9138 -0.9547
 7951TIP3    H248049   5.662   7.371  11.562  1.7985 -1.5805  0.1828
 7952TIP3   OH248050   5.404   6.763  11.567  0.8841  0.5690  0.2324
 7952TIP3    H148051   5.478   6.812  11.533  0.2962  1.3873  0.1072
 7952TIP3    H248052   5.436   6.727  11.650  1.7059  0.1421 -0.2560
 7953TIP3   OH248053   7.264   2.685  12.246 -0.6263 -0.3106  0.9970
 7953TIP3    H148054   7.208   2.715  12.174 -0.7765 -1.6655  0.5035
 7953TIP3    H248055   7.203   2.663  12.316 -0.4507  1.4062  1.7202
 7954TIP3   OH248056   5.081   1.667  12.549 -0.2863  0.6057 -0.0163
 7954TIP3    H148057   5.024   1.653  12.624  1.1252  1.9292  1.3705
 7954TIP3    H248058   5.026   1.711  12.485 -1.0774  0.9869  0.9068
 7955TIP3   OH248059   1.983   3.902  10.568  0.1717  0.5645 -0.1394
 7955TIP3    H148060   2.001   3.989  10.532  0.1926  0.5996 -0.0441
 7955TIP3    H248061   1.905   3.915  10.623  0.9257  0.7897  0.9019
 7956TIP3   OH248062   7.214   5.844  12.988  0.2490  0.1010  0.1162
 7956TIP3    H148063   7.142   5.854  12.926 -1.0489 -0.3533  1.4987
 7956TIP3    H248064   7.277   5.911  12.962 -0.3020  0.0179 -1.5853
 7957TIP3   OH248065   5.096   5.463  12.242 -0.2787 -0.3085  0.0519
 7957TIP3    H148066   5.105   5.475  12.148 -0.0592  1.6965  0.2816
 7957TIP3    H248067   5.002   5.474  12.259 -0.4226 -1.3351  0.0204
 7958TIP3   OH248068   1.791   4.963  12.027 -0.2027 -0.8378 -0.1398
 7958TIP3    H148069   1.842   5.012  12.092 -0.1914 -1.1416  0.0829
 7958TIP3    H248070   1.812   4.871  12.044 -0.2144 -0.9194 -0.5661
 7959TIP3   OH248071   2.788   2.637  11.861  0.1480 -0.6028 -0.6480
 7959TIP3    H148072   2.827   2.682  11.935 -3.7664  1.0323  0.7171
 7959TIP3    H248073   2.789   2.701  11.790 -0.8364 -0.1618 -0.2870
 7960TIP3   OH248074   1.431   6.272  10.810 -0.3766 -0.3290 -0.1065
 7960TIP3    H148075   1.399   6.362  10.804  0.5058 -0.0249 -0.3717
 7960TIP3    H248076   1.521   6.281  10.842 -0.3657 -1.1309  0.0912
 7961TIP3   OH248077   5.290   5.281  11.805 -0.2501 -0.4910 -0.1411
 7961TIP3    H148078   5.226   5.313  11.869 -0.2560  0.9452 -0.8074
 7961TIP3    H248079   5.375   5.300  11.845 -0.2413 -0.8829  0.0322
 7962TIP3   OH248080   5.662   2.352  12.882  0.3245  0.2722 -0.0792
 7962TIP3    H148081   5.607   2.274  12.894  0.5056  0.1719  0.0981
 7962TIP3    H248082   5.748   2.318  12.859  0.3577  0.4258 -0.1867
 7963TIP3   OH248083   5.498   1.225  12.122 -0.4315 -0.1166  0.3063
 7963TIP3    H148084   5.576   1.244  12.070 -0.5696 -0.2193  0.0650
 7963TIP3    H248085   5.470   1.138  12.093 -0.0247 -0.5405  1.1374
 7964TIP3   OH248086   2.383   4.464  10.843 -0.1203 -0.2194  0.1671
 7964TIP3    H148087   2.356   4.439  10.754 -1.4298  0.5607  0.3224
 7964TIP3    H248088   2.311   4.517  10.876  0.4774 -0.2673  1.6105
 7965TIP3   OH248089   1.452   6.549  10.771 -0.2998  0.1520  0.3500
 7965TIP3    H148090   1.515   6.528  10.840  1.7078  2.1912 -0.7522
 7965TIP3    H248091   1.448   6.644  10.770 -0.4362  0.1813 -2.1863
 7966TIP3   OH248092   4.076   7.374  11.075 -0.6217  0.9499  0.3664
 7966TIP3    H148093   4.000   7.317  11.064  0.7639 -0.9218 -0.2251
 7966TIP3    H248094   4.082   7.423  10.993 -0.4570  0.1011 -0.1474
 7967TIP3   OH248095   2.814   6.292  10.651  0.5371 -0.1820  0.0572
 7967TIP3    H148096   2.896   6.245  10.634  0.5105 -0.7920  1.4855
 7967TIP3    H248097   2.753   6.224  10.679 -0.4485  0.2842 -0.9016
 7968TIP3   OH248098   3.041   6.983  12.440 -0.0831 -0.2879  0.2759
 7968TIP3    H148099   3.089   6.910  12.478 -0.3503 -1.5915 -1.7997
 7968TIP3    H248100   2.963   6.944  12.401  0.1601  0.9705 -1.5843
 7969TIP3   OH248101   1.493   2.925  11.637 -0.3747 -0.0666  0.4476
 7969TIP3    H148102   1.562   2.957  11.579 -1.0726 -0.3400 -0.5649
 7969TIP3    H248103   1.515   2.960  11.723  0.6668  0.3819  0.0095
 7970TIP3   OH248104   5.598   5.424  11.124 -0.0186 -0.6235  0.3851
 7970TIP3    H148105   5.660   5.352  11.131 -0.3944 -0.9277  0.5770
 7970TIP3    H248106   5.528   5.391  11.067  0.6016  0.1412 -0.8647
 7971TIP3   OH248107   5.530   6.017  10.344  0.8039  0.2955 -0.1892
 7971TIP3    H148108   5.588   6.087  10.372  0.2881  0.7473 -0.2425
 7971TIP3    H248109   5.531   6.022  10.248  0.7829  0.2095 -0.1942
 7972TIP3   OH248110   5.714   2.286  12.555 -0.0811 -0.0534  0.2113
 7972TIP3    H148111   5.715   2.191  12.565  1.5229 -0.0333  0.3838
 7972TIP3    H248112   5.722   2.300  12.461 -2.0774 -0.0666 -0.0178
 7973TIP3   OH248113   5.430   2.257  12.413 -0.5069 -0.9875  0.1493
 7973TIP3    H148114   5.490   2.186  12.391  1.9849  0.9251  0.3792
 7973TIP3    H248115   5.459   2.331  12.360 -2.3570  0.1896  0.6816
 7974TIP3   OH248116   0.571   6.147  11.139  0.1065  0.6267 -0.7473
 7974TIP3    H148117   0.630   6.223  11.139 -1.4593  1.8796 -0.3689
 7974TIP3    H248118   0.598   6.097  11.216  1.5113  0.4619 -1.3021
 7975TIP3   OH248119   0.046   1.188  11.860 -0.8226  0.0749 -0.4095
 7975TIP3    H148120   0.021   1.124  11.927  0.6670 -1.0581 -0.8810
 7975TIP3    H248121  -0.010   1.168  11.785 -1.6125  0.5260  0.0430
 7976TIP3   OH248122   4.208   1.335  12.516 -0.2144  0.0580 -0.3516
 7976TIP3    H148123   4.263   1.268  12.475 -0.8245 -1.2594  0.8659
 7976TIP3    H248124   4.183   1.296  12.600 -2.5746  0.8260 -0.6394
 7977TIP3   OH248125   5.078   3.157  10.531  0.0362 -0.3202 -0.2525
 7977TIP3    H148126   5.064   3.097  10.458 -1.2751 -0.8809  0.4219
 7977TIP3    H248127   5.097   3.099  10.605  0.3192  0.1890  0.0769
 7978TIP3   OH248128   5.107   4.223  10.786 -0.5987 -0.7471 -0.2877
 7978TIP3    H148129   5.091   4.161  10.715 -0.6425 -0.6923 -0.3253
 7978TIP3    H248130   5.184   4.188  10.831 -0.6868 -0.8857 -0.2444
 7979TIP3   OH248131   1.329   2.311  11.970 -0.3766  0.3901 -0.6044
 7979TIP3    H148132   1.265   2.325  11.900 -2.3129 -0.7330  0.8639
 7979TIP3    H248133   1.347   2.217  11.967 -1.7109  0.0056  1.3359
 7980TIP3   OH248134   0.515   3.875  12.043  0.1935  0.4022 -0.0530
 7980TIP3    H148135   0.423   3.878  12.070  0.3043 -1.5644  0.6355
 7980TIP3    H248136   0.514   3.826  11.961  0.6087  0.5327 -0.1383
 7981TIP3   OH248137   5.550   4.649  10.994  0.7483 -0.3918 -0.3457
 7981TIP3    H148138   5.478   4.685  10.944 -0.1738 -0.7814  0.6543
 7981TIP3    H248139   5.514   4.570  11.035  1.7973 -0.7100  0.0016
 7982TIP3   OH248140   5.567   3.655  10.212  0.1275 -0.1654 -0.5309
 7982TIP3    H148141   5.492   3.597  10.226  0.4681 -0.1824  1.4641
 7982TIP3    H248142   5.547   3.733  10.264  0.7661  0.5180 -1.2895
 7983TIP3   OH248143   5.137   6.636  11.602 -0.1510 -0.3436 -0.4284
 7983TIP3    H148144   5.220   6.672  11.571 -0.6493  0.3510 -0.9867
 7983TIP3    H248145   5.129   6.552  11.557  1.0714 -1.2695  0.9669
 7984TIP3   OH248146   2.543   2.526  11.865  0.4446  0.0487 -0.3454
 7984TIP3    H148147   2.624   2.570  11.893 -0.2728  1.0477  0.2240
 7984TIP3    H248148   2.495   2.592  11.816 -0.0412 -0.5324 -0.6672
 7985TIP3   OH248149   6.985   5.542  12.075  0.0470 -0.0366  0.1992
 7985TIP3    H148150   6.972   5.450  12.049  0.0030 -0.3015  1.1353
 7985TIP3    H248151   6.900   5.584  12.058 -1.2856 -1.0945  3.5239
 7986TIP3   OH248152   0.056   5.727  12.632  0.1085  0.2418  0.6815
 7986TIP3    H148153   0.018   5.641  12.615  0.1573  0.7427 -2.6251
 7986TIP3    H248154  -0.012   5.776  12.677 -0.8193 -0.7966  0.4365
 7987TIP3   OH248155   7.566   0.930  12.659 -0.0028  0.0252  0.2828
 7987TIP3    H148156   7.560   0.999  12.725  0.4460 -0.7986  1.2100
 7987TIP3    H248157   7.601   0.854  12.706  1.4414 -0.2593 -1.1400
 7988TIP3   OH248158   1.785   7.009  10.870 -0.1916 -0.0288 -0.1802
 7988TIP3    H148159   1.735   6.950  10.926  3.5773 -1.5850  1.9377
 7988TIP3    H248160   1.802   7.085  10.925  0.8461 -0.1267 -0.3526
 7989TIP3   OH248161   2.068   4.178  11.896 -0.2987 -0.1594 -0.1114
 7989TIP3    H148162   2.125   4.232  11.842 -0.8053 -0.8986 -1.4395
 7989TIP3    H248163   2.127   4.119  11.943  0.1197  0.1947 -0.1931
 7990TIP3   OH248164   3.071   2.184  12.345 -0.2020  0.4462 -0.7286
 7990TIP3    H148165   2.982   2.217  12.357 -1.2557 -1.9748 -1.2395
 7990TIP3    H248166   3.061   2.088  12.344  2.6149  0.0364  0.7362
 7991TIP3   OH248167   6.116   4.988  12.155  0.1189 -0.7734 -0.1933
 7991TIP3    H148168   6.085   4.912  12.107 -3.1924  0.5784 -0.4272
 7991TIP3    H248169   6.080   4.978  12.243  2.1964 -0.9000  0.6966
 7992TIP3   OH248170   1.715   6.469  12.484 -0.2097  0.0625 -0.1733
 7992TIP3    H148171   1.703   6.462  12.578 -0.7575  1.4218 -0.1286
 7992TIP3    H248172   1.809   6.483  12.472  0.2461 -2.2916 -0.0102
 7993TIP3   OH248173   6.398   3.579  12.338  0.2662 -0.3478 -0.1254
 7993TIP3    H148174   6.343   3.612  12.266  1.5732 -0.9213 -1.4497
 7993TIP3    H248175   6.478   3.630  12.332  0.5264 -0.6489  0.7184
 7994TIP3   OH248176   5.960   2.947  11.656  0.3239  0.1628  0.1559
 7994TIP3    H148177   6.041   2.900  11.641 -0.8173 -2.3835  1.4158
 7994TIP3    H248178   5.909   2.935  11.576 -0.3605 -1.7352  0.8226
 7995TIP3   OH248179   3.114   6.568  11.971  0.2743 -0.6806 -0.2998
 7995TIP3    H148180   3.192   6.571  12.026  0.3971 -0.4496 -0.4886
 7995TIP3    H248181   3.063   6.496  12.008  0.1999 -0.3202  0.3237
 7996TIP3   OH248182   7.557   0.443  12.878  0.9162 -0.1247 -0.1630
 7996TIP3    H148183   7.613   0.385  12.931  1.9218 -0.6429 -1.7159
 7996TIP3    H248184   7.597   0.529  12.886 -0.0141  0.1978  1.3663
 7997TIP3   OH248185   2.209   3.291  11.378  0.3613  0.1527 -0.0779
 7997TIP3    H148186   2.215   3.382  11.407  2.0437 -0.1469  0.6551
 7997TIP3    H248187   2.170   3.245  11.452 -0.7379  0.2932 -0.5485
 7998TIP3   OH248188   6.762   1.048  12.864  0.2581 -0.3403  0.2445
 7998TIP3    H148189   6.822   1.108  12.908  0.6065  0.1790 -0.8941
 7998TIP3    H248190   6.677   1.092  12.869 -0.1997 -1.3590  2.3976
 7999TIP3   OH248191   1.127   5.943  11.599  0.4427  0.1070 -0.0939
 7999TIP3    H148192   1.051   5.886  11.594  1.2824 -1.1416  0.9226
 7999TIP3    H248193   1.199   5.890  11.566  0.9426  1.1921 -0.8221
 8000TIP3   OH248194   0.417   0.909  10.372 -0.1332  0.0325 -0.0264
 8000TIP3    H148195   0.423   0.949  10.459  1.0491  1.8275 -0.8681
 8000TIP3    H248196   0.351   0.961  10.326 -1.2274 -1.3117 -0.0522
 8001TIP3   OH248197   0.380   5.352  12.300  0.3297  0.3406  0.4043
 8001TIP3    H148198   0.347   5.442  12.296 -0.4129  0.0917  0.8627
 8001TIP3    H248199   0.340   5.309  12.225  0.7948  0.4205  0.1055
 8002TIP3   OH248200   0.080   1.425  10.965  0.0246  0.2633 -0.3044
 8002TIP3    H148201   0.021   1.351  10.982  0.7188 -0.4362 -0.8611
 8002TIP3    H248202   0.166   1.385  10.955  0.4257  1.1636 -0.5692
 8003TIP3   OH248203   2.236   2.368  11.398  0.0842  0.4190 -0.2519
 8003TIP3    H148204   2.180   2.445  11.385 -0.5779  0.1626  0.8709
 8003TIP3    H248205   2.248   2.364  11.493  1.4720  0.0684 -0.4289
 8004TIP3   OH248206   4.833   4.720  10.677  0.7757  0.0494 -0.1937
 8004TIP3    H148207   4.899   4.784  10.652 -1.3272  1.2024 -3.6076
 8004TIP3    H248208   4.866   4.637  10.642  1.5252  0.1218  0.3327
 8005TIP3   OH248209   1.671   0.452  11.338  0.2749  0.4152 -0.6356
 8005TIP3    H148210   1.751   0.407  11.313 -0.4836 -1.1988 -0.2816
 8005TIP3    H248211   1.690   0.545  11.325  1.9096  0.0059 -1.3328
 8006TIP3   OH248212   5.636   2.239  10.998 -0.4071  0.5188  0.3057
 8006TIP3    H148213   5.705   2.298  10.967 -0.5067  1.0484  1.0514
 8006TIP3    H248214   5.654   2.156  10.955  0.3596  0.8085  0.0464
 8007TIP3   OH248215   6.192   2.778  10.855  0.9714  0.1411 -0.3447
 8007TIP3    H148216   6.227   2.690  10.869  0.1074 -0.1040  0.3734
 8007TIP3    H248217   6.121   2.765  10.792  1.0701  0.3789 -0.5035
 8008TIP3   OH248218   3.865   4.602  12.156  0.8546  0.6161  0.2485
 8008TIP3    H148219   3.857   4.675  12.217  0.8861 -0.0802  1.1012
 8008TIP3    H248220   3.820   4.529  12.199 -0.5391  0.5183 -1.2621
 8009TIP3   OH248221   1.437   2.588  12.286  0.1631 -0.3653 -0.2118
 8009TIP3    H148222   1.401   2.500  12.282 -0.6162 -0.2650  2.3823
 8009TIP3    H248223   1.530   2.577  12.267  0.4411 -2.0686  1.7765
 8010TIP3   OH248224   6.251   7.090  10.895 -0.0392 -0.0810  0.3228
 8010TIP3    H148225   6.224   7.082  10.804 -0.2301  1.1951  0.2470
 8010TIP3    H248226   6.347   7.098  10.891  0.2990 -3.0740  0.4855
 8011TIP3   OH248227   4.661   6.043  11.259 -0.8533  0.4254  0.2298
 8011TIP3    H148228   4.729   6.035  11.192 -1.7325 -0.9794 -0.5308
 8011TIP3    H248229   4.578   6.037  11.211 -1.5177  1.2526  1.2400
 8012TIP3   OH248230   6.745   4.433  13.249  0.6183 -0.4349 -0.3569
 8012TIP3    H148231   6.743   4.432  13.345 -0.9693 -1.5846 -0.3604
 8012TIP3    H248232   6.818   4.491  13.227  0.9279 -0.0419  1.5386
 8013TIP3   OH248233   3.759   1.436  11.087 -0.1615  0.2013  0.8473
 8013TIP3    H148234   3.767   1.525  11.050 -0.3483 -0.1227  0.0068
 8013TIP3    H248235   3.758   1.379  11.010  1.1057 -0.6237  1.4097
 8014TIP3   OH248236   0.576   0.999  11.631  0.5760 -0.7371  0.0238
 8014TIP3    H148237   0.533   1.030  11.551  0.5332  0.4109  0.4669
 8014TIP3    H248238   0.555   0.906  11.635 -0.2760 -0.5967 -0.7744
 8015TIP3   OH248239   2.531   3.162  12.017 -0.0854  0.3196  0.1683
 8015TIP3    H148240   2.453   3.124  12.056 -1.2249  1.0297 -1.2697
 8015TIP3    H248241   2.521   3.257  12.031  0.3186  0.4462 -0.3542
 8016TIP3   OH248242   0.684   7.526  10.465 -0.0894  0.2268  0.4506
 8016TIP3    H148243   0.639   7.610  10.473  0.6147  0.5667  0.9373
 8016TIP3    H248244   0.756   7.543  10.403 -1.2601 -0.5938 -1.2220
 8017TIP3   OH248245   3.405   7.400  10.609 -0.2217 -0.0096 -0.2004
 8017TIP3    H148246   3.432   7.439  10.526  0.8468  0.6019  0.4136
 8017TIP3    H248247   3.312   7.420  10.616 -0.1305  0.6779 -0.8444
 8018TIP3   OH248248   4.773   5.521  12.001 -0.3726  0.5287  0.3342
 8018TIP3    H148249   4.679   5.518  11.983 -0.0216 -0.3278 -1.6227
 8018TIP3    H248250   4.784   5.467  12.080 -1.2307 -1.8244 -1.0569
 8019TIP3   OH248251   0.651   3.584  12.399  0.5078  0.2408 -0.2171
 8019TIP3    H148252   0.614   3.548  12.319 -0.7997 -0.7414  0.8026
 8019TIP3    H248253   0.577   3.622  12.445  1.3243  1.2388  0.3363
 8020TIP3   OH248254   2.461   1.537  12.117  0.4976  0.0938 -0.3242
 8020TIP3    H148255   2.488   1.489  12.038  0.1815 -0.7851  0.0816
 8020TIP3    H248256   2.395   1.599  12.085 -1.0932 -1.5888 -0.5116
 8021TIP3   OH248257   1.022   1.000  10.981 -0.2838 -0.1223  0.3230
 8021TIP3    H148258   1.050   0.911  10.961 -2.5150 -1.1985  1.6159
 8021TIP3    H248259   1.010   1.001  11.076  0.3177  1.7830  0.4260
 8022TIP3   OH248260   7.360   3.211  12.406  0.3418  0.0762 -0.0792
 8022TIP3    H148261   7.309   3.131  12.419  0.4411  0.1934  1.1646
 8022TIP3    H248262   7.296   3.276  12.377  0.0100 -0.0988  0.2561
 8023TIP3   OH248263   5.339   3.431  12.775 -0.1901  0.5064 -0.2725
 8023TIP3    H148264   5.296   3.506  12.735 -0.2692  1.9990  2.3474
 8023TIP3    H248265   5.402   3.470  12.837 -0.2018 -1.5602  1.1469
 8024TIP3   OH248266   0.554   3.963  12.598 -0.2856  0.1187 -0.7088
 8024TIP3    H148267   0.624   3.970  12.663 -0.6200 -0.2754 -0.3054
 8024TIP3    H248268   0.473   3.972  12.648 -0.5314  0.3749 -1.1478
 8025TIP3   OH248269   4.326   5.235  12.336  0.3776  0.6839 -0.0589
 8025TIP3    H148270   4.266   5.234  12.262 -0.9031 -0.5983  0.9356
 8025TIP3    H248271   4.282   5.183  12.403  2.4810 -0.1118  0.8064
 8026TIP3   OH248272   3.162   4.130  11.938  0.0209 -0.2601 -0.2803
 8026TIP3    H148273   3.103   4.102  12.008 -0.5150 -1.3689 -1.1388
 8026TIP3    H248274   3.113   4.115  11.858  0.2615  1.8891 -0.8921
 8027TIP3   OH248275   3.529   2.569  11.794  0.5199 -0.6170  0.2341
 8027TIP3    H148276   3.436   2.570  11.768  0.5150 -1.8239  0.1496
 8027TIP3    H248277   3.534   2.630  11.867  0.1618  1.4086 -1.3590
 8028TIP3   OH248278   2.530   2.406  12.910  0.2664 -0.2180 -0.1473
 8028TIP3    H148279   2.537   2.354  12.990 -0.9311  0.1215  0.1966
 8028TIP3    H248280   2.452   2.372  12.866  0.8292 -0.3027 -1.1105
 8029TIP3   OH248281   5.970   6.859  11.829  0.1067 -0.0479 -0.2116
 8029TIP3    H148282   6.035   6.833  11.764  1.8308  1.9685  0.5917
 8029TIP3    H248283   5.949   6.950  11.808 -1.0800 -0.0913  0.6649
 8030TIP3   OH248284   5.608   7.457  10.787  0.2474  0.0654  0.0502
 8030TIP3    H148285   5.530   7.512  10.784 -0.1696 -0.5410 -1.5676
 8030TIP3    H248286   5.576   7.373  10.820  0.4616  0.1671  0.5209
 8031TIP3   OH248287   5.018   0.476  11.403  0.0403  0.3010  0.0356
 8031TIP3    H148288   4.970   0.401  11.368 -0.4693  0.9310 -0.6477
 8031TIP3    H248289   5.106   0.468  11.368 -0.3378  0.6692 -1.0599
 8032TIP3   OH248290   7.045   1.679  10.389 -0.3936 -0.0752 -0.2272
 8032TIP3    H148291   7.013   1.672  10.299 -3.3213 -0.6809  0.7419
 8032TIP3    H248292   7.023   1.595  10.429  0.9328  0.1453  1.0653
 8033TIP3   OH248293   2.056   6.876  10.894 -0.2526 -0.3804  0.4610
 8033TIP3    H148294   2.092   6.860  10.807  0.6290 -0.5217  0.8341
 8033TIP3    H248295   1.967   6.907  10.879 -0.0756 -0.3228 -0.4894
 8034TIP3   OH248296   6.826   4.824  11.452  0.1905  0.3377  0.1696
 8034TIP3    H148297   6.880   4.898  11.424  0.3636  1.1729  2.4282
 8034TIP3    H248298   6.790   4.788  11.372  2.3345  1.1418 -1.2323
 8035TIP3   OH248299   4.134   0.817  12.985 -0.0192 -1.0260 -0.5084
 8035TIP3    H148300   4.143   0.810  12.890 -0.0320 -1.8584 -0.4598
 8035TIP3    H248301   4.040   0.808  13.001 -0.0605 -0.4780 -0.4459
 8036TIP3   OH248302   0.194   6.461  12.404 -0.1229 -0.4057  0.5896
 8036TIP3    H148303   0.173   6.452  12.497 -1.4453 -0.3984  0.3091
 8036TIP3    H248304   0.152   6.543  12.377 -1.0313 -1.1605 -0.3533
 8037TIP3   OH248305   1.465   2.484  13.390 -0.1254  0.1994 -0.4201
 8037TIP3    H148306   1.395   2.494  13.325 -0.3569  0.8092 -0.0813
 8037TIP3    H248307   1.479   2.389  13.396 -0.8472  0.0792 -0.5701
 8038TIP3   OH248308   4.941   0.781  10.802 -0.0524 -0.0443 -0.5122
 8038TIP3    H148309   4.964   0.717  10.734  0.1136  0.3709 -0.8467
 8038TIP3    H248310   4.877   0.735  10.856  1.0001 -0.9420 -0.0024
 8039TIP3   OH248311   3.533   7.625  12.431  0.8397  0.3180  0.1795
 8039TIP3    H148312   3.522   7.720  12.441 -0.3095  0.2589 -0.3976
 8039TIP3    H248313   3.464   7.587  12.485  0.3904 -0.1564 -0.7097
 8040TIP3   OH248314   1.141   2.692  11.771 -0.1769 -0.0896  0.6159
 8040TIP3    H148315   1.064   2.738  11.738 -0.0244 -0.3660 -0.1398
 8040TIP3    H248316   1.213   2.720  11.714 -0.0247 -1.0229  0.3192
 8041TIP3   OH248317   0.428   4.679  10.368 -0.2453 -0.0204 -0.3795
 8041TIP3    H148318   0.412   4.588  10.396 -2.1424 -0.2905 -2.1116
 8041TIP3    H248319   0.489   4.670  10.295 -1.2180 -0.0479 -1.2194
 8042TIP3   OH248320   1.845   6.194  11.770  0.7436 -0.3128  0.0834
 8042TIP3    H148321   1.910   6.123  11.774 -0.5884 -1.5444  0.9625
 8042TIP3    H248322   1.808   6.196  11.858 -0.3372  0.4246 -0.3805
 8043TIP3   OH248323   1.491   0.055  10.953  0.3695 -0.6462  0.5174
 8043TIP3    H148324   1.477   0.138  10.908 -0.6430 -1.7652 -1.3734
 8043TIP3    H248325   1.427   0.056  11.024 -0.6604 -0.4048 -0.3889
 8044TIP3   OH248326   6.944   3.324  13.802  0.0362  0.1267 -0.1696
 8044TIP3    H148327   6.942   3.267  13.725  0.6782  1.8450 -1.5288
 8044TIP3    H248328   7.027   3.371  13.795  0.9496 -0.8951  2.5617
 8045TIP3   OH248329   5.069   4.197  11.911 -0.0758 -0.3284  0.2415
 8045TIP3    H148330   5.146   4.183  11.857 -0.1290  0.1914  0.0281
 8045TIP3    H248331   5.077   4.287  11.942  0.1129 -0.7128  1.3523
 8046TIP3   OH248332   5.717   0.212  11.258 -0.0295 -0.1433  0.2455
 8046TIP3    H148333   5.679   0.225  11.345  0.0675 -1.5888  0.5294
 8046TIP3    H248334   5.644   0.180  11.205  0.1049 -0.0698  0.0131
 8047TIP3   OH248335   2.833   4.579  11.692  0.1524 -0.3392 -0.2686
 8047TIP3    H148336   2.892   4.649  11.664 -1.8089  0.4612 -2.8538
 8047TIP3    H248337   2.781   4.559  11.614 -1.5201 -2.4936  1.2597
 8048TIP3   OH248338   3.385   0.814  12.398 -0.3941 -0.2064  0.4825
 8048TIP3    H148339   3.303   0.766  12.383 -1.2212  0.8888  1.2532
 8048TIP3    H248340   3.390   0.822  12.494 -0.5116  1.5494  0.3836
 8049TIP3   OH248341   1.532   3.316  11.169 -0.2873  0.1433 -0.3361
 8049TIP3    H148342   1.585   3.371  11.112 -0.3455 -2.5614 -3.2591
 8049TIP3    H248343   1.590   3.293  11.241 -0.1908  3.5992  0.8790
 8050TIP3   OH248344   6.289   5.225  12.295 -0.2428  0.8424  0.3641
 8050TIP3    H148345   6.347   5.153  12.270 -0.2297  0.9627  0.0273
 8050TIP3    H248346   6.335   5.303  12.263 -1.3941  0.8218 -1.5250
 8051TIP3   OH248347   2.754   2.671  11.467 -0.1820 -0.0792 -0.2790
 8051TIP3    H148348   2.729   2.755  11.428 -2.4992  0.1273  1.4414
 8051TIP3    H248349   2.675   2.618  11.462  0.5087 -1.2690  0.9141
 8052TIP3   OH248350   6.664   5.899  10.803  0.0120 -0.3333  0.1199
 8052TIP3    H148351   6.614   5.829  10.762 -2.0351  0.9561  0.2495
 8052TIP3    H248352   6.597   5.963  10.829  1.7956  1.8569 -0.3844
 8053TIP3   OH248353   5.708   0.887  11.686 -0.0384 -0.0635  0.3981
 8053TIP3    H148354   5.686   0.808  11.735 -0.7249 -0.1279 -0.0005
 8053TIP3    H248355   5.674   0.959  11.739 -0.1346 -0.0898  0.3732
 8054TIP3   OH248356   0.161   1.148  12.789  0.1137  0.4791  0.0749
 8054TIP3    H148357   0.253   1.166  12.771  0.7251 -2.1559  0.1279
 8054TIP3    H248358   0.158   1.053  12.805 -2.1575  0.8707  2.7683
 8055TIP3   OH248359   1.561   4.835  12.471  0.6291 -0.1173  0.0817
 8055TIP3    H148360   1.516   4.787  12.541 -0.2775  1.4459  0.6461
 8055TIP3    H248361   1.634   4.779  12.446 -1.2854 -2.5392 -0.4744
 8056TIP3   OH248362   2.726   3.000  11.882 -0.2010 -1.0002 -0.5939
 8056TIP3    H148363   2.727   2.969  11.973 -1.4017 -0.3651 -0.3296
 8056TIP3    H248364   2.667   3.076  11.884  2.5911  1.3652 -1.1861
 8057TIP3   OH248365   4.046   5.406  11.075 -0.1326 -0.0042  0.0888
 8057TIP3    H148366   4.102   5.332  11.099 -1.2873 -0.4814  1.3800
 8057TIP3    H248367   4.092   5.482  11.110  0.6540 -0.1687 -0.5367
 8058TIP3   OH248368   3.019   1.327  11.216 -0.3384  0.3874  0.7835
 8058TIP3    H148369   2.950   1.261  11.221 -0.9218  0.5614 -2.5204
 8058TIP3    H248370   3.098   1.281  11.244 -0.4686 -2.2701 -2.6086
 8059TIP3   OH248371   3.255   5.154  11.145 -0.3068 -0.2152 -0.0640
 8059TIP3    H148372   3.213   5.158  11.230 -0.5719  2.3208 -0.2197
 8059TIP3    H248373   3.346   5.179  11.162 -0.0773 -0.8211 -0.3812
 8060TIP3   OH248374   5.425   7.086  13.023  0.3912 -0.2566  0.3626
 8060TIP3    H148375   5.338   7.047  13.014  0.5682 -0.3924 -0.9809
 8060TIP3    H248376   5.422   7.164  12.968  0.5801  0.7182  1.6908
 8061TIP3   OH248377   2.067   5.400  12.728 -0.0341  0.0577 -0.0194
 8061TIP3    H148378   2.160   5.416  12.717 -0.5253  2.1323 -1.6802
 8061TIP3    H248379   2.025   5.483  12.708 -2.2195 -0.5065  1.7791
 8062TIP3   OH248380   1.162   1.740  13.071 -0.2299  0.1552  0.0914
 8062TIP3    H148381   1.177   1.671  13.136 -0.0928 -1.4921 -1.6031
 8062TIP3    H248382   1.073   1.772  13.091 -0.8965 -1.5469  0.0382
 8063TIP3   OH248383   6.927   1.689  11.732 -0.3206 -0.3817 -0.1957
 8063TIP3    H148384   6.928   1.594  11.721  0.4273 -0.3312 -0.5844
 8063TIP3    H248385   6.924   1.702  11.827  1.3224 -0.7939 -0.0699
 8064TIP3   OH248386   5.058   2.394  11.849  0.5271 -0.0825  0.0102
 8064TIP3    H148387   5.082   2.462  11.786 -0.8695  2.0564  1.6201
 8064TIP3    H248388   4.964   2.408  11.865  0.0098 -2.8338 -0.0260
 8065TIP3   OH248389   4.660   2.262  11.246 -0.5016 -0.5005 -0.1920
 8065TIP3    H148390   4.720   2.189  11.261 -0.1543 -0.4056 -1.0688
 8065TIP3    H248391   4.619   2.243  11.162 -2.4338 -1.0490  0.8328
 8066TIP3   OH248392   5.485   0.956  10.765  0.4131 -0.2975  0.2701
 8066TIP3    H148393   5.487   0.865  10.733 -0.2723  0.0228 -0.7732
 8066TIP3    H248394   5.531   0.954  10.848  0.5294 -1.5826  0.1943
 8067TIP3   OH248395   4.821   1.607  10.579 -0.0848  0.1867  0.9766
 8067TIP3    H148396   4.758   1.591  10.649  1.4554 -0.2297  2.3495
 8067TIP3    H248397   4.896   1.551  10.602  1.1255  1.3163 -0.0874
 8068TIP3   OH248398   5.921   6.132  10.721  0.6097 -0.4286  0.8179
 8068TIP3    H148399   5.877   6.054  10.687 -0.1100  0.1453  0.3953
 8068TIP3    H248400   6.014   6.117  10.704  0.4410 -1.0206  0.3786
 8069TIP3   OH248401   2.670   7.401  11.678  1.2418 -0.6703 -0.0021
 8069TIP3    H148402   2.618   7.353  11.742  0.6069 -0.3788 -0.2945
 8069TIP3    H248403   2.674   7.343  11.602 -1.7287  0.7009 -1.3655
 8070TIP3   OH248404   0.042   2.526  12.143 -0.4756 -0.2866  0.0652
 8070TIP3    H148405  -0.002   2.443  12.122 -0.6185 -0.3318  0.5424
 8070TIP3    H248406  -0.029   2.584  12.172 -0.2638 -0.2444  0.4889
 8071TIP3   OH248407   3.726   3.759  10.834 -0.5191  0.2508  0.0670
 8071TIP3    H148408   3.678   3.683  10.800 -0.4955  0.2491  0.0377
 8071TIP3    H248409   3.663   3.831  10.827 -0.1095  0.5051 -1.1115
 8072TIP3   OH248410   7.417   1.898  11.939  0.1375  0.3743  0.2846
 8072TIP3    H148411   7.439   1.825  11.997  2.1291  0.5384 -0.1999
 8072TIP3    H248412   7.378   1.856  11.862  0.6621 -0.1279  0.2864
 8073TIP3   OH248413   2.232   7.185  11.278  0.4520  0.3960  0.7694
 8073TIP3    H148414   2.313   7.134  11.282 -0.1948 -0.9658 -1.5702
 8073TIP3    H248415   2.164   7.120  11.258 -1.6917  1.1059  4.6463
 8074TIP3   OH248416   4.816   6.267  12.705 -0.4101  0.6390 -0.1622
 8074TIP3    H148417   4.899   6.228  12.730  0.4402  0.5377 -2.8509
 8074TIP3    H248418   4.823   6.359  12.732  0.4543  0.5538 -0.0932
 8075TIP3   OH248419   2.356   4.348  11.285  0.0839  0.2082 -0.5732
 8075TIP3    H148420   2.281   4.298  11.254  0.6729 -0.7267 -0.5246
 8075TIP3    H248421   2.422   4.337  11.217  1.3834 -1.8307  0.9078
 8076TIP3   OH248422   4.929   2.875  11.531  0.3090  0.4066  0.2353
 8076TIP3    H148423   4.846   2.920  11.515  0.3421  0.5985  0.5967
 8076TIP3    H248424   4.948   2.829  11.450 -0.8525 -0.7593  0.5972
 8077TIP3   OH248425   6.862   3.392  10.958 -0.3120 -0.6110 -0.1642
 8077TIP3    H148426   6.863   3.308  11.004  2.4772 -0.6534 -0.0790
 8077TIP3    H248427   6.898   3.372  10.872 -1.2718  0.2310 -0.7810
 8078TIP3   OH248428   1.330   4.169  12.306 -0.2919  0.3906 -0.3095
 8078TIP3    H148429   1.387   4.189  12.381 -0.3974  1.9060 -0.5865
 8078TIP3    H248430   1.375   4.099  12.260  0.3734  0.2436  0.5381
 8079TIP3   OH248431   6.541   3.649  12.047  0.0122  0.3378  0.4536
 8079TIP3    H148432   6.446   3.659  12.059 -0.0713 -0.1747  0.2743
 8079TIP3    H248433   6.569   3.730  12.005 -0.1166  1.0598  1.7174
 8080TIP3   OH248434   0.031   4.461  10.467  0.0813 -0.0546 -0.8901
 8080TIP3    H148435  -0.051   4.508  10.452  0.5166  1.4307  0.9291
 8080TIP3    H248436   0.070   4.505  10.542  1.8965 -1.6134 -0.8405
 8081TIP3   OH248437   5.639   0.826  11.392 -0.2271 -0.2696 -0.3045
 8081TIP3    H148438   5.670   0.829  11.482 -2.1756  0.8481  0.3893
 8081TIP3    H248439   5.642   0.734  11.369  2.3633 -0.3702  0.0802
 8082TIP3   OH248440   6.606   5.348  11.232  0.0833 -0.0959 -0.3291
 8082TIP3    H148441   6.518   5.314  11.217 -0.6074  1.7656 -0.6967
 8082TIP3    H248442   6.620   5.338  11.327 -0.5555 -0.3224 -0.2548
 8083TIP3   OH248443   7.660   4.324  13.282  0.2196  0.0277 -0.0495
 8083TIP3    H148444   7.669   4.319  13.377  0.2946  0.8114 -0.0125
 8083TIP3    H248445   7.571   4.292  13.264 -0.6189  1.9441  0.4885
 8084TIP3   OH248446   6.194   2.755  11.160  0.2301  0.2133  0.2371
 8084TIP3    H148447   6.214   2.771  11.068 -0.8299 -0.5411 -0.1443
 8084TIP3    H248448   6.275   2.720  11.196  0.4036 -0.2909 -0.6169
 8085TIP3   OH248449   4.595   4.905  12.287  0.0040  0.2634 -0.4435
 8085TIP3    H148450   4.518   4.900  12.344 -0.3478 -0.7329 -0.9938
 8085TIP3    H248451   4.604   4.999  12.269 -0.4240  0.5015  0.5099
 8086TIP3   OH248452   7.515   7.451  10.932  0.1442 -0.2594 -0.2626
 8086TIP3    H148453   7.550   7.364  10.914  2.9154  0.4220  1.3226
 8086TIP3    H248454   7.536   7.502  10.854  0.5200 -0.4699 -0.3017
 8087TIP3   OH248455   5.697   4.209  11.387  0.3046  0.0326  0.1058
 8087TIP3    H148456   5.791   4.220  11.403  0.1452 -0.6866  1.7541
 8087TIP3    H248457   5.662   4.180  11.471 -1.3576 -0.0019 -0.5647
 8088TIP3   OH248458   7.386   5.983  12.476  0.3252 -0.0738  0.2343
 8088TIP3    H148459   7.319   5.915  12.478  1.8236 -1.5867  1.5398
 8088TIP3    H248460   7.377   6.028  12.560  0.2619  0.4161 -0.0328
 8089TIP3   OH248461   2.276   4.967  11.202 -0.3501  0.0568 -0.5028
 8089TIP3    H148462   2.187   4.967  11.237  0.1277 -1.8290  0.8136
 8089TIP3    H248463   2.296   5.060  11.188 -1.6034  0.6890  1.5633
 8090TIP3   OH248464   3.022   4.122  11.708  0.6645 -0.5914  0.1090
 8090TIP3    H148465   2.931   4.150  11.712  0.7664 -0.4286  1.7401
 8090TIP3    H248466   3.054   4.159  11.625 -0.0184  1.6112  0.7515
 8091TIP3   OH248467   6.053   0.432  12.186  0.5269  0.1890 -0.2662
 8091TIP3    H148468   5.975   0.478  12.154  0.1995 -0.4812 -0.4462
 8091TIP3    H248469   6.110   0.426  12.109  0.9520  1.0660 -0.0289
 8092TIP3   OH248470   7.221   7.098  10.879  0.7151 -0.6548 -0.0369
 8092TIP3    H148471   7.129   7.089  10.903 -0.5069 -0.7098 -3.9558
 8092TIP3    H248472   7.236   7.193  10.880 -0.3676 -0.4015 -2.1084
 8093TIP3   OH248473   2.642   5.510  12.415 -0.0067 -0.0505  0.4904
 8093TIP3    H148474   2.567   5.557  12.453  0.6292  1.2375  0.2213
 8093TIP3    H248475   2.602   5.444  12.358 -0.9488  0.1891  0.8493
 8094TIP3   OH248476   2.806   3.693  11.983  0.5359 -0.1936 -0.1755
 8094TIP3    H148477   2.876   3.745  11.944  1.1484 -1.3334 -0.6478
 8094TIP3    H248478   2.725   3.735  11.952  0.9982 -0.7085 -2.2528
 8095TIP3   OH248479   6.474   4.316  12.667  0.3832 -0.2490 -0.0220
 8095TIP3    H148480   6.460   4.351  12.579 -0.3927 -0.5653 -0.0276
 8095TIP3    H248481   6.492   4.393  12.720 -3.0746  0.4690  0.3321
 8096TIP3   OH248482   4.165   4.232  12.353 -0.3471  0.1290 -0.2203
 8096TIP3    H148483   4.111   4.159  12.382  1.9780 -0.6608  2.4597
 8096TIP3    H248484   4.197   4.205  12.267 -1.3583 -0.9330 -0.2948
 8097TIP3   OH248485   4.617   4.601  11.832 -0.3843 -0.5876 -0.5681
 8097TIP3    H148486   4.608   4.534  11.900 -1.6015 -1.6458 -1.7178
 8097TIP3    H248487   4.695   4.650  11.857 -0.8887 -0.8154  1.6877
 8098TIP3   OH248488   3.851   4.744  12.732 -0.2748  0.0807  0.5094
 8098TIP3    H148489   3.802   4.686  12.790  1.1064 -1.7738 -0.0556
 8098TIP3    H248490   3.830   4.832  12.762 -3.2860 -0.6098  0.7822
 8099TIP3   OH248491   5.114   5.500  11.948 -0.0978  0.0798  0.0187
 8099TIP3    H148492   5.053   5.496  11.875  0.3480 -0.4903 -0.3385
 8099TIP3    H248493   5.182   5.561  11.920  0.4368 -0.6646 -0.3431
 8100TIP3   OH248494   1.075   6.530  12.859 -0.7072 -1.5642  0.6741
 8100TIP3    H148495   1.083   6.535  12.763  1.2157 -1.6870  0.7948
 8100TIP3    H248496   1.111   6.444  12.881  1.2808 -0.5316  1.6945
 8101TIP3   OH248497   6.603   5.781  11.196 -0.3545 -0.2544 -0.0879
 8101TIP3    H148498   6.532   5.842  11.174 -0.1956 -0.2273 -0.5448
 8101TIP3    H248499   6.661   5.830  11.254 -0.9220 -0.4131  0.6302
 8102TIP3   OH248500   2.467   5.768  10.947  0.3386  0.0633  0.0153
 8102TIP3    H148501   2.533   5.700  10.964  0.2031 -0.0784 -0.0164
 8102TIP3    H248502   2.510   5.850  10.970  0.2990 -0.0909  0.6555
 8103TIP3   OH248503   4.943   1.667  10.996  0.5738  0.1374 -0.4810
 8103TIP3    H148504   4.981   1.579  10.985 -2.0232 -0.9812 -1.2737
 8103TIP3    H248505   4.870   1.654  11.057  0.2880  1.8230 -0.4106
 8104TIP3   OH248506   3.713   2.970  11.670 -0.1313 -0.2978 -0.3881
 8104TIP3    H148507   3.799   3.013  11.677  0.1377 -0.8250 -0.4463
 8104TIP3    H248508   3.702   2.954  11.577  0.3966 -1.6163 -0.2380
 8105TIP3   OH248509   1.109   1.410  12.080  0.0153  0.5740  0.3257
 8105TIP3    H148510   1.143   1.482  12.026 -1.6641  1.0079 -0.1869
 8105TIP3    H248511   1.017   1.403  12.056 -0.4626 -0.0957  2.1842
 8106TIP3   OH248512   0.367   6.631  11.839 -0.2576 -0.0298 -0.0502
 8106TIP3    H148513   0.352   6.570  11.767 -1.1708  0.3230 -0.1679
 8106TIP3    H248514   0.281   6.670  11.856  0.3528  1.3739 -0.0993
 8107TIP3   OH248515   0.216   4.373  11.036  0.6103 -0.5284  0.0545
 8107TIP3    H148516   0.197   4.462  11.007  1.6216 -0.4626 -0.4831
 8107TIP3    H248517   0.136   4.344  11.080 -0.3425  0.0190 -1.2583
 8108TIP3   OH248518   1.113   1.184  11.908  0.1420 -0.1007 -0.3054
 8108TIP3    H148519   1.085   1.215  11.822 -1.7722 -0.4780  0.1410
 8108TIP3    H248520   1.089   1.255  11.968  0.1762 -0.4233  0.0945
 8109TIP3   OH248521   3.361   7.345  12.445 -0.3890 -0.2484 -0.3120
 8109TIP3    H148522   3.291   7.410  12.448 -1.6420 -1.5138 -0.9129
 8109TIP3    H248523   3.349   7.294  12.525  1.3197  0.9306  0.7563
 8110TIP3   OH248524   7.614   5.380  11.487 -0.1502 -0.0120  0.9487
 8110TIP3    H148525   7.619   5.317  11.559 -0.0042  0.0776  1.0179
 8110TIP3    H248526   7.683   5.353  11.426  0.1809  0.3167  1.1706
 8111TIP3   OH248527   4.023   0.344  13.261 -0.4404  0.0029  0.0634
 8111TIP3    H148528   4.097   0.317  13.207 -0.9657 -1.3582 -0.0054
 8111TIP3    H248529   3.980   0.413  13.209 -0.2817 -0.4952 -0.7606
 8112TIP3   OH248530   1.247   2.860  11.528 -0.0420  0.4522  0.4164
 8112TIP3    H148531   1.333   2.887  11.559 -0.5841  0.9798  1.5282
 8112TIP3    H248532   1.265   2.787  11.469  1.2754  1.7168 -0.8145
 8113TIP3   OH248533   1.228   2.497  10.121  0.0893 -0.4278  0.1007
 8113TIP3    H148534   1.305   2.521  10.069 -0.3055  0.1865 -0.2217
 8113TIP3    H248535   1.222   2.402  10.113  0.3598 -0.3982 -0.5148
 8114TIP3   OH248536   2.004   6.061  13.138  0.2712 -0.6030  0.1913
 8114TIP3    H148537   2.041   6.051  13.050  0.6259  1.3988  0.0620
 8114TIP3    H248538   1.964   5.977  13.157  0.9226 -1.3515 -1.5496
 8115TIP3   OH248539   6.512   1.929  11.233  0.5052  0.4292 -0.1449
 8115TIP3    H148540   6.509   1.860  11.299 -2.1083 -0.9227 -1.5034
 8115TIP3    H248541   6.604   1.954  11.228  1.6318 -3.0317  0.3767
 8116TIP3   OH248542   1.617   7.301  13.124 -0.1735 -0.0884  0.3289
 8116TIP3    H148543   1.543   7.349  13.085 -0.5108  0.0505  1.1276
 8116TIP3    H248544   1.684   7.368  13.138 -0.5886  0.1439  1.3035
 8117TIP3   OH248545   5.848   6.190  11.804 -0.0219  0.1585 -0.0231
 8117TIP3    H148546   5.802   6.108  11.784 -0.6176  0.8304 -1.5816
 8117TIP3    H248547   5.820   6.250  11.735 -0.2287  1.9361  1.5362
 8118TIP3   OH248548   5.156   7.501  12.953  0.7079  0.2773 -0.2188
 8118TIP3    H148549   5.222   7.460  13.009  0.5892 -0.0561 -0.3235
 8118TIP3    H248550   5.139   7.437  12.885  0.9809  0.7514 -0.7444
 8119TIP3   OH248551   6.699   1.895  12.192  0.6889 -0.8089 -0.2303
 8119TIP3    H148552   6.716   1.972  12.245  0.8578  0.6086 -2.2483
 8119TIP3    H248553   6.664   1.831  12.254 -0.0805  1.0837  1.4040
 8120TIP3   OH248554   5.481   3.694  10.988  0.1823 -0.7181  0.4181
 8120TIP3    H148555   5.394   3.734  10.984  0.7086  0.3852 -0.3142
 8120TIP3    H248556   5.490   3.647  10.905  1.5521  1.9518 -1.0665
 8121TIP3   OH248557   2.374   1.229  11.980 -0.1180  0.2889 -0.0608
 8121TIP3    H148558   2.464   1.245  12.010 -0.3655  0.3755  0.6603
 8121TIP3    H248559   2.358   1.297  11.915  0.5034 -0.0265 -0.5617
 8122TIP3   OH248560   6.169   2.116  18.395 -0.3024 -0.0456 -0.3133
 8122TIP3    H148561   6.077   2.095  18.409 -0.4506  1.7237  1.9336
 8122TIP3    H248562   6.217   2.044  18.436 -0.7347  0.2461  0.7389
 8123TIP3   OH248563   2.206   0.089  11.353 -0.1204 -0.5135  0.2050
 8123TIP3    H148564   2.230   0.143  11.278  0.9992  1.2824  1.7613
 8123TIP3    H248565   2.290   0.068  11.395 -0.8109  0.5003  2.2315
 8124TIP3   OH248566   4.418   3.155  11.554 -0.2279 -0.3188 -0.1487
 8124TIP3    H148567   4.410   3.247  11.580  1.5511 -0.4413  0.9805
 8124TIP3    H248568   4.341   3.113  11.592 -1.9035  0.8964 -1.9643
 8125TIP3   OH248569   4.867   6.779  11.222  0.5867 -0.1347 -0.1020
 8125TIP3    H148570   4.855   6.851  11.284  0.5343  0.4795 -0.8111
 8125TIP3    H248571   4.959   6.755  11.230  0.3324 -0.8296  1.0197
 8126TIP3   OH248572   7.065   0.724  11.796 -0.1574  0.2848  0.0576
 8126TIP3    H148573   7.071   0.699  11.889 -0.5316  0.6135  0.1705
 8126TIP3    H248574   6.972   0.740  11.781  0.2267  3.3323  0.4401
 8127TIP3   OH248575   7.662   3.448  10.564 -0.2429  0.5168  0.1983
 8127TIP3    H148576   7.678   3.542  10.555  0.7817  0.3441  0.1418
 8127TIP3    H248577   7.720   3.420  10.634 -1.2382  0.0917  0.8651
 8128TIP3   OH248578   6.029   7.381  12.944  0.1043  0.2797  0.4040
 8128TIP3    H148579   6.036   7.391  13.039 -1.3416 -1.1448  0.7018
 8128TIP3    H248580   5.938   7.404  12.925 -0.3819 -1.9461 -0.2344
 8129TIP3   OH248581   1.589   1.725  11.514 -0.2332 -0.0935 -0.0314
 8129TIP3    H148582   1.579   1.687  11.427 -1.0070  0.1318 -0.0485
 8129TIP3    H248583   1.676   1.696  11.543 -0.8553 -2.0376  0.0425
 8130TIP3   OH248584   7.613   3.898  13.458  0.1863  0.1730 -0.0916
 8130TIP3    H148585   7.634   3.910  13.365 -1.4803 -1.0810 -0.6609
 8130TIP3    H248586   7.554   3.823  13.460 -0.3943  0.6371  1.9140
 8131TIP3   OH248587   3.597   5.691  12.595 -0.2708  0.2425  0.2051
 8131TIP3    H148588   3.550   5.626  12.542 -1.7845  1.8315 -0.5014
 8131TIP3    H248589   3.675   5.645  12.626 -1.3639 -1.9597 -0.1096
 8132TIP3   OH248590   1.734   4.631  12.514  0.0606  1.0229 -0.2463
 8132TIP3    H148591   1.734   4.599  12.604 -1.2179  1.8966  0.0954
 8132TIP3    H248592   1.681   4.568  12.465  1.2913  0.1916 -0.5528
 8133TIP3   OH248593   0.408   2.484  10.747 -0.1233  0.2058  0.2821
 8133TIP3    H148594   0.402   2.545  10.821 -1.6785 -0.8145  1.0611
 8133TIP3    H248595   0.408   2.397  10.788 -0.5993 -0.3723 -0.9032
 8134TIP3   OH248596   7.400   0.123  17.890  0.3284  0.2147 -0.2413
 8134TIP3    H148597   7.331   0.176  17.851  0.0035  0.8998  1.1871
 8134TIP3    H248598   7.481   0.170  17.868  0.2981 -0.1662 -1.2420
 8135TIP3   OH248599   6.383   4.278  11.889 -0.1624  0.2325  0.1878
 8135TIP3    H148600   6.304   4.234  11.921 -0.3469 -0.0439 -0.6135
 8135TIP3    H248601   6.440   4.283  11.966 -0.1983 -1.2905  0.3585
 8136TIP3   OH248602   6.478   5.652  11.006 -0.1374  0.2252  0.3441
 8136TIP3    H148603   6.461   5.561  11.029  2.4183 -0.3534  0.2783
 8136TIP3    H248604   6.511   5.692  11.086  0.7399  0.4959 -0.1349
 8137TIP3   OH248605   5.693   4.918  12.396 -0.3121  0.1582  0.3821
 8137TIP3    H148606   5.718   5.010  12.386 -0.1480  0.2891  1.8356
 8137TIP3    H248607   5.604   4.921  12.431 -0.7458 -0.2632 -0.6490
 8138TIP3   OH248608   6.991   0.096  11.917 -0.2495  0.3344 -0.3299
 8138TIP3    H148609   6.927   0.089  11.987  0.0924 -1.0264 -0.1210
 8138TIP3    H248610   7.035   0.179  11.933 -0.4113  0.2054  0.8769
 8139TIP3   OH248611   7.172   3.403  12.317 -0.0292  0.3153  0.2581
 8139TIP3    H148612   7.213   3.471  12.264  0.9173 -1.5293 -1.5433
 8139TIP3    H248613   7.094   3.444  12.354  0.5175  2.3445 -0.7115
 8140TIP3   OH248614   0.037   5.667  12.173 -0.4258  0.5038 -0.2929
 8140TIP3    H148615  -0.036   5.726  12.196  0.7058  1.6558  0.4916
 8140TIP3    H248616  -0.006   5.584  12.152 -2.0035  1.2760 -0.3183
 8141TIP3   OH248617   6.650   3.630  12.623 -0.6369  0.0771  0.2791
 8141TIP3    H148618   6.665   3.686  12.698 -0.3328  1.7609 -0.9809
 8141TIP3    H248619   6.711   3.558  12.634 -1.2357 -0.1977  2.0779
 8142TIP3   OH248620   6.481   5.826  12.102 -0.6703  0.2086 -0.0192
 8142TIP3    H148621   6.397   5.832  12.147 -1.6844 -3.2927 -1.1424
 8142TIP3    H248622   6.544   5.805  12.171 -0.8985  1.5422  0.6340
 8143TIP3   OH248623   1.211   4.608  11.840  0.0394 -0.3147 -0.5336
 8143TIP3    H148624   1.281   4.667  11.810 -0.0449 -0.2707 -0.6417
 8143TIP3    H248625   1.179   4.649  11.920  1.2449 -1.1779  0.4305
 8144TIP3   OH248626   4.432   7.147  11.952 -0.3247 -0.2014  0.1793
 8144TIP3    H148627   4.489   7.158  12.028  1.4950  0.1058 -1.1722
 8144TIP3    H248628   4.473   7.198  11.883 -1.4557 -1.1596 -1.2660
 8145TIP3   OH248629   1.431   4.689  11.707  0.5980  0.0116  0.2916
 8145TIP3    H148630   1.504   4.672  11.767  0.8547 -0.1516 -0.0632
 8145TIP3    H248631   1.463   4.660  11.621  1.4203  2.9893 -0.5556
 8146TIP3   OH248632   3.770   0.864  11.244  0.3325 -0.0505 -0.0437
 8146TIP3    H148633   3.776   0.880  11.339  1.3409 -2.2699  0.3233
 8146TIP3    H248634   3.828   0.931  11.206  0.0121  0.7956  0.9027
 8147TIP3   OH248635   6.777   1.331  12.218 -0.2333 -0.0231  0.3561
 8147TIP3    H148636   6.732   1.274  12.156 -1.2130  0.6127  0.4558
 8147TIP3    H248637   6.711   1.395  12.244 -0.3884 -1.2917  3.3915
 8148TIP3   OH248638   7.014   6.935  11.895 -0.4963 -0.5162 -0.5050
 8148TIP3    H148639   6.930   6.932  11.849 -0.2211 -0.3540 -1.0282
 8148TIP3    H248640   7.079   6.909  11.829 -0.1814 -1.1288  0.0261
 8149TIP3   OH248641   6.214   5.807  11.280 -0.4080  0.5278 -0.1723
 8149TIP3    H148642   6.270   5.773  11.350  0.4740  2.1297 -0.0557
 8149TIP3    H248643   6.271   5.866  11.230 -0.8140 -1.0370 -2.6800
 8150TIP3   OH248644   2.088   1.262  10.757 -0.3957 -0.0564 -0.0404
 8150TIP3    H148645   2.053   1.174  10.748 -0.1484 -0.5429  2.7579
 8150TIP3    H248646   2.011   1.318  10.767 -0.5445  0.0625 -1.6132
 8151TIP3   OH248647   2.488   2.638  12.689  0.3741  0.6980  0.5483
 8151TIP3    H148648   2.520   2.726  12.669 -0.9030  1.6741  2.4945
 8151TIP3    H248649   2.469   2.640  12.783  3.7176 -2.8095  1.5351
 8152TIP3   OH248650   2.121   5.302  11.755 -0.5255  0.3719  0.9890
 8152TIP3    H148651   2.079   5.352  11.685  0.8524  1.3028  0.7923
 8152TIP3    H248652   2.122   5.212  11.723 -0.8901  0.6131  0.2827
 8153TIP3   OH248653   7.039   4.350  12.422 -0.1859  0.3090  0.2562
 8153TIP3    H148654   7.079   4.379  12.340  0.1691 -0.8627 -0.0008
 8153TIP3    H248655   7.059   4.419  12.485  2.0234 -0.1180  0.0785
 8154TIP3   OH248656   5.776   4.165  13.583  0.2182  0.1096  0.1749
 8154TIP3    H148657   5.721   4.240  13.562 -0.6677 -0.4540  0.4435
 8154TIP3    H248658   5.765   4.105  13.510 -0.0829 -0.3084  0.5563
 8155TIP3   OH248659   3.169   7.546  12.419  0.3115 -0.6265  0.0249
 8155TIP3    H148660   3.160   7.632  12.461  0.4683 -1.6524  2.3214
 8155TIP3    H248661   3.148   7.562  12.327 -0.8486  1.6359  0.6016
 8156TIP3   OH248662   7.495   6.523  11.695 -0.6117 -0.0872  0.1241
 8156TIP3    H148663   7.572   6.482  11.656  0.3215  0.3456  1.4391
 8156TIP3    H248664   7.455   6.453  11.748  0.2131  0.2880  1.2830
 8157TIP3   OH248665   0.010   6.103  11.610 -0.3319  1.0552 -0.1904
 8157TIP3    H148666  -0.004   6.057  11.693 -0.9773  0.3455 -0.6873
 8157TIP3    H248667  -0.031   6.047  11.544 -0.0312  1.7324 -0.9634
 8158TIP3   OH248668   7.364   3.172  10.994 -0.2892  0.1242 -0.7396
 8158TIP3    H148669   7.386   3.225  10.917 -0.0472 -0.0101 -0.7657
 8158TIP3    H248670   7.435   3.108  10.999 -0.1609  0.3022 -0.2512
 8159TIP3   OH248671   6.038   0.951  11.271  0.4463 -0.0065 -0.1372
 8159TIP3    H148672   6.015   0.862  11.243 -2.1191  0.9430 -1.4495
 8159TIP3    H248673   6.033   1.003  11.191  0.1083  1.5966  0.8757
 8160TIP3   OH248674   7.666   2.777  12.991  0.2424  0.1362 -0.8669
 8160TIP3    H148675   7.728   2.708  13.016  0.0005  0.1584 -0.1863
 8160TIP3    H248676   7.633   2.748  12.905 -0.0080 -0.7092 -0.5005
 8161TIP3   OH248677   3.392   6.105  11.179 -0.0469 -0.3330 -0.1980
 8161TIP3    H148678   3.462   6.126  11.241 -1.2593  1.4734  0.6553
 8161TIP3    H248679   3.379   6.011  11.187  0.2673 -0.2329  1.8492
 8162TIP3   OH248680   6.201   2.855  11.569  0.3047  0.0201 -0.0736
 8162TIP3    H148681   6.254   2.904  11.631  0.0390  0.8756 -0.5071
 8162TIP3    H248682   6.233   2.765  11.576  0.7035  0.2217  0.8361
 8163TIP3   OH248683   4.871   6.795  12.468  0.0521 -0.1786  0.2525
 8163TIP3    H148684   4.795   6.841  12.502  0.3139 -0.6237  1.5070
 8163TIP3    H248685   4.939   6.810  12.534  0.9697 -0.0244 -0.7031
 8164TIP3   OH248686   1.411   7.107  10.886 -0.1989  0.4007 -0.2943
 8164TIP3    H148687   1.359   7.138  10.960 -0.5711  0.9972 -0.7910
 8164TIP3    H248688   1.470   7.042  10.923 -0.3486  0.7239  0.5310
 8165TIP3   OH248689   2.747   2.857  11.250 -0.2490  0.3078  0.3319
 8165TIP3    H148690   2.742   2.952  11.260 -0.9325  0.1492  1.6859
 8165TIP3    H248691   2.665   2.833  11.206 -0.5142  0.2551  0.8463
 8166TIP3   OH248692   4.910   4.995  12.114 -0.6716  0.2670 -0.6643
 8166TIP3    H148693   4.979   4.987  12.049 -0.4831  0.2222 -0.4611
 8166TIP3    H248694   4.844   5.052  12.074  0.2746  1.7461 -0.1892
 8167TIP3   OH248695   5.489   2.987  11.471  0.2807 -0.5253  0.2731
 8167TIP3    H148696   5.512   2.960  11.382 -2.1463 -0.4912 -0.4339
 8167TIP3    H248697   5.514   2.913  11.525 -0.7238 -1.7280 -0.8370
 8168TIP3   OH248698   7.585   2.986  11.033  0.4470 -0.2876  0.6046
 8168TIP3    H148699   7.673   3.021  11.047  2.3042 -3.4584 -1.6955
 8168TIP3    H248700   7.574   2.920  11.101  0.7774 -1.3085 -0.2997
 8169TIP3   OH248701   0.473   4.837  11.810 -0.4165 -0.0227 -0.0198
 8169TIP3    H148702   0.511   4.764  11.858  1.0185 -0.3287 -1.5487
 8169TIP3    H248703   0.427   4.797  11.736 -0.5806  0.5699 -0.2496
 8170TIP3   OH248704   4.703   3.434  13.123 -0.1188 -0.5420 -0.1460
 8170TIP3    H148705   4.746   3.450  13.207 -0.8821  2.9250 -0.2590
 8170TIP3    H248706   4.610   3.428  13.145 -0.2562 -0.3012 -0.6575
 8171TIP3   OH248707   4.589   5.191  12.271 -0.6598  0.0509 -0.3439
 8171TIP3    H148708   4.514   5.207  12.327  0.6416 -0.0442  1.5350
 8171TIP3    H248709   4.646   5.267  12.285  1.0213 -1.3541  0.8300
 8172TIP3   OH248710   6.510   5.435  13.267  0.0575 -0.1203  0.0143
 8172TIP3    H148711   6.470   5.521  13.280 -0.4632 -0.5843  1.6568
 8172TIP3    H248712   6.598   5.444  13.304 -0.5867 -0.7475  1.7968
 8173TIP3   OH248713   5.444   6.148  11.817  0.3420 -0.1621  0.2603
 8173TIP3    H148714   5.438   6.231  11.770  1.8632  0.3387  0.8969
 8173TIP3    H248715   5.496   6.091  11.760 -1.5832 -1.0855 -0.6654
 8174TIP3   OH248716   5.117   6.736  11.845  0.3104 -0.2255 -0.1603
 8174TIP3    H148717   5.106   6.699  11.757  1.2949  0.7264 -0.7166
 8174TIP3    H248718   5.059   6.811  11.847  0.2320 -0.2906  0.0346
 8175TIP3   OH248719   0.298   2.586  12.678 -0.1833 -0.1779  0.2614
 8175TIP3    H148720   0.258   2.668  12.650  0.7761  0.2666  0.1788
 8175TIP3    H248721   0.233   2.519  12.655 -0.9722  0.5426  0.3267
 8176TIP3   OH248722   5.744   4.598  12.771  0.0298  0.1661  0.1256
 8176TIP3    H148723   5.690   4.672  12.799  0.0235 -0.1391  0.9533
 8176TIP3    H248724   5.681   4.533  12.739 -0.1312 -0.2737  1.2860
 8177TIP3   OH248725   1.076   2.023  13.267  0.5732 -0.4849  0.3326
 8177TIP3    H148726   0.985   2.039  13.243  0.8188 -1.9059 -1.8002
 8177TIP3    H248727   1.078   1.931  13.294  1.6025 -0.9240 -1.1234
 8178TIP3   OH248728   6.276   0.171  13.229  0.1432  0.2447 -0.4261
 8178TIP3    H148729   6.280   0.092  13.284 -2.6852  0.5721  0.4279
 8178TIP3    H248730   6.356   0.168  13.177  0.9920 -2.2408  0.8394
 8179TIP3   OH248731   6.149   0.579  12.998  0.5132 -0.1945  0.2356
 8179TIP3    H148732   6.231   0.531  12.987  0.3245 -0.1759 -1.5150
 8179TIP3    H248733   6.135   0.580  13.092  1.0624 -2.6773  0.4245
 8180TIP3   OH248734   1.665   1.824  10.448  1.0468  0.4834  0.0621
 8180TIP3    H148735   1.674   1.858  10.537  2.1240  1.2257 -0.3132
 8180TIP3    H248736   1.669   1.902  10.392 -0.5786  0.1232 -0.6015
 8181TIP3   OH248737   7.380   6.263  12.290 -0.1345 -0.1963  0.4594
 8181TIP3    H148738   7.390   6.233  12.380 -2.1185 -1.0035  0.4467
 8181TIP3    H248739   7.371   6.183  12.238 -0.6745  0.2908 -0.2216
 8182TIP3   OH248740   4.848   2.726  10.690 -0.6208  1.2921  0.1753
 8182TIP3    H148741   4.771   2.758  10.643  0.2483 -0.1515 -2.4850
 8182TIP3    H248742   4.818   2.714  10.780 -3.3714  1.2336 -0.6493
 8183TIP3   OH248743   1.032   4.342  12.589 -0.0131 -0.2074  0.7724
 8183TIP3    H148744   1.005   4.431  12.609 -1.2705  0.0108 -1.6312
 8183TIP3    H248745   1.121   4.351  12.554  0.0685  0.0327  1.0420
 8184TIP3   OH248746   6.732   2.636  13.494  0.6243 -0.1894 -0.2821
 8184TIP3    H148747   6.710   2.698  13.564  2.5272 -0.2355  0.4283
 8184TIP3    H248748   6.717   2.685  13.413  0.9506  0.7909  0.2360
 8185TIP3   OH248749   5.515   5.306  12.543  0.1915  0.2366 -0.1582
 8185TIP3    H148750   5.590   5.364  12.541  0.6707 -0.3194  0.6666
 8185TIP3    H248751   5.439   5.364  12.537  0.6510  0.9663  0.7245
 8186TIP3   OH248752   3.945   2.432  12.944 -0.7724  0.4381  0.2033
 8186TIP3    H148753   3.935   2.527  12.951 -1.0848  0.6239 -1.8720
 8186TIP3    H248754   3.909   2.411  12.857  1.7887 -1.1807 -0.5956
 8187TIP3   OH248755   3.094   0.302  11.468  0.2566  0.2063 -0.1702
 8187TIP3    H148756   3.095   0.263  11.381 -0.0366 -0.2609  0.0343
 8187TIP3    H248757   3.023   0.257  11.514 -0.5855  1.4844 -0.1567
 8188TIP3   OH248758   0.744   4.571  11.369 -0.4502 -0.2725  0.3496
 8188TIP3    H148759   0.784   4.655  11.392  0.0782 -0.0722 -1.1493
 8188TIP3    H248760   0.661   4.594  11.327  0.3307 -0.3815 -1.3369
 8189TIP3   OH248761   1.258   0.833  12.336  0.3151 -0.3093  0.0880
 8189TIP3    H148762   1.295   0.922  12.336  0.7942 -0.4274 -2.2907
 8189TIP3    H248763   1.203   0.830  12.414 -0.5518  2.4506 -0.2975
 8190TIP3   OH248764   6.312   2.458  10.572  0.1999 -0.1711  0.6828
 8190TIP3    H148765   6.365   2.384  10.544 -0.0364  0.1259 -0.6273
 8190TIP3    H248766   6.337   2.529  10.512 -0.6036  0.3874  0.9949
 8191TIP3   OH248767   7.626   3.153  12.280 -0.5941  0.2384  0.3159
 8191TIP3    H148768   7.564   3.199  12.336  1.4487 -0.2182  3.1634
 8191TIP3    H248769   7.709   3.199  12.291  0.3727 -1.1380 -0.7300
 8192TIP3   OH248770   6.407   3.287  11.826 -0.6181  0.1551 -0.0834
 8192TIP3    H148771   6.408   3.379  11.799 -2.5195  0.1090 -0.4645
 8192TIP3    H248772   6.342   3.283  11.896  0.3532 -0.7060  0.8146
 8193TIP3   OH248773   2.584   2.391  10.846 -1.0276 -0.3134  0.1850
 8193TIP3    H148774   2.660   2.335  10.828 -0.9165  0.0560 -0.5350
 8193TIP3    H248775   2.601   2.427  10.932 -0.7299 -0.7883  0.3306
 8194TIP3   OH248776   3.638   1.299  11.819  0.6794 -0.0482 -0.2557
 8194TIP3    H148777   3.697   1.375  11.816  0.1853  0.3129 -1.8057
 8194TIP3    H248778   3.695   1.225  11.797  1.0851 -0.0828  0.8782
 8195TIP3   OH248779   5.553   3.662  11.685 -0.2611  0.6688 -0.4325
 8195TIP3    H148780   5.502   3.661  11.604  0.5588  0.3078 -0.9454
 8195TIP3    H248781   5.531   3.746  11.725 -1.2162  0.5506 -0.6687
 8196TIP3   OH248782   1.307   2.342  12.246 -0.4274 -0.2309 -0.7039
 8196TIP3    H148783   1.223   2.333  12.290  0.0769 -3.4214 -0.1479
 8196TIP3    H248784   1.290   2.318  12.155 -0.0240 -1.9198 -0.3765
 8197TIP3   OH248785   3.851   3.568  12.619 -0.3785  0.1737 -0.2986
 8197TIP3    H148786   3.847   3.531  12.707 -0.2268 -1.2268 -0.8525
 8197TIP3    H248787   3.808   3.503  12.563  1.0102  0.2336 -1.4989
 8198TIP3   OH248788   5.118   3.101  11.606 -0.0510  0.4489 -0.3923
 8198TIP3    H148789   5.040   3.055  11.577 -2.1166  3.5855 -0.3068
 8198TIP3    H248790   5.141   3.061  11.689  0.1679 -2.3230 -1.6861
 8199TIP3   OH248791   6.119   0.362  11.212 -0.3266 -0.2015 -0.0433
 8199TIP3    H148792   6.169   0.314  11.147  0.6777  0.9191 -0.1282
 8199TIP3    H248793   6.164   0.346  11.295 -0.6813 -0.3579  0.1234
 8200TIP3   OH248794   5.857   3.615  12.573 -0.5459  0.6007 -0.0181
 8200TIP3    H148795   5.897   3.689  12.618  0.9379  0.4607 -1.0730
 8200TIP3    H248796   5.922   3.586  12.510 -1.7534 -0.5676 -0.7823
 8201TIP3   OH248797   2.457   7.586  12.380  0.0353  0.0151  0.2059
 8201TIP3    H148798   2.381   7.553  12.429 -0.5400  0.6717 -0.2217
 8201TIP3    H248799   2.424   7.663  12.334  0.7932 -0.0833 -0.5247
 8202TIP3   OH248800   5.589   1.566  10.700 -0.0750  0.5141  0.4314
 8202TIP3    H148801   5.546   1.481  10.692 -2.4194  1.6951 -0.2897
 8202TIP3    H248802   5.681   1.544  10.716 -0.5060 -2.1474 -0.1803
 8203TIP3   OH248803   4.483   7.041  11.531 -0.1092 -0.0991 -0.1105
 8203TIP3    H148804   4.414   7.098  11.566  0.8223  1.8232 -1.2512
 8203TIP3    H248805   4.542   7.027  11.605 -0.8396 -0.3915  0.4314
 8204TIP3   OH248806   7.226   3.348  10.491 -0.0831  0.5152  0.2771
 8204TIP3    H148807   7.313   3.313  10.471 -0.5760 -0.4395 -0.3000
 8204TIP3    H248808   7.167   3.275  10.473 -1.0078  1.1619  0.6398
 8205TIP3   OH248809   7.298   0.563  11.644 -0.0135  0.5513 -0.4086
 8205TIP3    H148810   7.277   0.613  11.723  0.1501 -0.4982  0.3152
 8205TIP3    H248811   7.263   0.476  11.661  1.8776 -0.2818 -0.6091
 8206TIP3   OH248812   7.541   1.082  12.904 -0.1225  0.3634  0.4207
 8206TIP3    H148813   7.492   1.123  12.975  0.2063  0.5284  0.5541
 8206TIP3    H248814   7.601   1.150  12.874  1.8163 -0.5775  1.9337
 8207TIP3   OH248815   5.501   2.066  11.340  0.2525 -0.3865  0.3284
 8207TIP3    H148816   5.442   2.000  11.376 -0.0671  0.3067  1.1118
 8207TIP3    H248817   5.446   2.119  11.282  0.3820 -0.4581  0.1373
 8208TIP3   OH248818   4.110   3.132  10.975  0.1833  0.4327  0.3500
 8208TIP3    H148819   4.103   3.226  10.987  2.7477  0.4511  2.8376
 8208TIP3    H248820   4.068   3.094  11.053 -1.7729 -0.6239 -1.1153
 8209TIP3   OH248821   2.838   0.480  11.206 -0.1411 -0.8911  0.1916
 8209TIP3    H148822   2.863   0.505  11.294 -3.2902 -2.2698  1.6359
 8209TIP3    H248823   2.853   0.559  11.153 -0.9488  0.9836  2.5891
 8210TIP3   OH248824   4.278   0.070  10.520  0.0812 -0.2399 -0.3242
 8210TIP3    H148825   4.222   0.065  10.443 -0.1604 -1.5624 -0.0791
 8210TIP3    H248826   4.247   0.148  10.567 -0.5362 -0.0914 -0.9583
 8211TIP3   OH248827   2.118   3.976  12.526  0.3740  0.0098  0.0276
 8211TIP3    H148828   2.148   4.035  12.595 -1.1904 -0.8797  1.5408
 8211TIP3    H248829   2.024   3.992  12.519 -0.1228 -2.3184  0.5506
 8212TIP3   OH248830   5.948   5.139  11.147 -0.0550  0.1015 -0.3413
 8212TIP3    H148831   5.975   5.079  11.077  0.0525 -0.0228 -0.1931
 8212TIP3    H248832   5.916   5.216  11.100  0.4363  0.2009 -0.5257
 8213TIP3   OH248833   0.855   4.241  10.172 -0.2767  0.1969 -0.6808
 8213TIP3    H148834   0.861   4.333  10.197 -2.0861 -0.0008  0.6385
 8213TIP3    H248835   0.794   4.240  10.098 -1.1538 -0.0375  0.0323
 8214TIP3   OH248836   0.191   6.864  12.008  0.0967  0.1324 -0.3227
 8214TIP3    H148837   0.271   6.904  11.974  1.0482  0.6510  2.3261
 8214TIP3    H248838   0.122   6.895  11.949  1.2559  3.1481 -0.2500
 8215TIP3   OH248839   1.531   1.745  10.847  0.1143  0.4492  0.3755
 8215TIP3    H148840   1.450   1.696  10.860  1.4858 -1.8135  0.9054
 8215TIP3    H248841   1.546   1.790  10.930  0.9910 -1.7236  1.4758
 8216TIP3   OH248842   5.679   6.882  11.576  0.4473 -0.3261  0.0420
 8216TIP3    H148843   5.748   6.871  11.641  1.0863 -0.5429 -0.6514
 8216TIP3    H248844   5.701   6.818  11.507 -0.6310 -0.6311 -0.0385
 8217TIP3   OH248845   6.828   5.338  10.645 -0.1537 -0.2507 -0.7215
 8217TIP3    H148846   6.903   5.394  10.666 -1.2599  1.1847 -0.4882
 8217TIP3    H248847   6.856   5.250  10.672  1.4059  0.2553 -0.5711
 8218TIP3   OH248848   7.509   4.728  12.681  0.4805 -0.0080  0.3913
 8218TIP3    H148849   7.497   4.715  12.586 -2.6311 -0.2006  0.7136
 8218TIP3    H248850   7.506   4.639  12.717  0.5400  0.1539  0.7973
 8219TIP3   OH248851   5.002   1.279  10.952  0.1358 -0.0009  0.3188
 8219TIP3    H148852   4.972   1.240  11.034  0.0924 -2.0254 -0.5824
 8219TIP3    H248853   4.933   1.259  10.889  1.0864 -0.3265 -0.6654
 8220TIP3   OH248854   1.164   7.558  11.291  0.2260 -0.5399 -0.8201
 8220TIP3    H148855   1.089   7.565  11.349  0.0576  1.4603 -1.1984
 8220TIP3    H248856   1.211   7.641  11.302  1.5199 -1.1049 -1.7512
 8221TIP3   OH248857   0.932   1.024  12.286 -0.4343  0.2647 -0.2543
 8221TIP3    H148858   0.989   1.093  12.319  0.3133 -1.0344  1.3424
 8221TIP3    H248859   0.845   1.045  12.322 -0.7047  1.5247 -1.5912
 8222TIP3   OH248860   0.857   0.944  10.420 -0.5029 -0.1323  0.3617
 8222TIP3    H148861   0.948   0.962  10.395 -0.7773  2.0434  0.7571
 8222TIP3    H248862   0.816   1.030  10.425 -3.1238 -1.1351 -1.6469
 8223TIP3   OH248863   7.185   4.048  10.772 -0.0573 -0.2543 -0.1832
 8223TIP3    H148864   7.123   4.099  10.720 -0.0915  0.6761  0.7356
 8223TIP3    H248865   7.131   3.988  10.823 -0.2250  0.4957  0.5512
 8224TIP3   OH248866   4.386   2.684  10.800 -0.1259 -0.2212 -0.1386
 8224TIP3    H148867   4.363   2.705  10.709  0.7859 -0.8930 -0.5369
 8224TIP3    H248868   4.331   2.742  10.852 -0.1249  0.7141 -1.1335
 8225TIP3   OH248869   7.197   3.930  13.565  0.3146  0.6061  0.0032
 8225TIP3    H148870   7.214   3.888  13.481 -1.3718  0.0992 -0.1294
 8225TIP3    H248871   7.246   4.012  13.561  0.2972  0.5737 -1.4588
 8226TIP3   OH248872   4.944   7.509  12.010 -0.3411  0.2462 -0.1036
 8226TIP3    H148873   4.966   7.495  12.102 -0.9217 -3.4793 -0.3446
 8226TIP3    H248874   5.022   7.478  11.962 -0.2982  1.5048 -0.8831
 8227TIP3   OH248875   6.578   5.571  13.656 -0.1556  0.2754  0.1040
 8227TIP3    H148876   6.510   5.513  13.688  0.0231 -0.8982 -1.5471
 8227TIP3    H248877   6.576   5.562  13.561  2.8685 -0.5221 -0.0094
 8228TIP3   OH248878   4.389   5.880  11.149 -0.5337  0.2088  0.3561
 8228TIP3    H148879   4.295   5.880  11.163 -0.7481 -3.0235 -0.4248
 8228TIP3    H248880   4.402   5.938  11.073 -2.0758 -0.4444 -0.4372
 8229TIP3   OH248881   3.839   1.487  11.349  0.7287 -0.0389 -0.1868
 8229TIP3    H148882   3.931   1.494  11.325  0.4494  0.5036 -1.1574
 8229TIP3    H248883   3.791   1.501  11.267 -0.3756  4.3895  0.9123
 8230TIP3   OH248884   6.178   3.449  11.359  0.3121 -0.0383  1.0708
 8230TIP3    H148885   6.149   3.541  11.359  0.1207 -0.0592  2.9229
 8230TIP3    H248886   6.106   3.402  11.317  1.1268  0.7936 -1.4553
 8231TIP3   OH248887   6.372   5.301  12.598  0.1039 -0.0070 -0.5146
 8231TIP3    H148888   6.339   5.297  12.509  0.0144  2.4650 -0.6649
 8231TIP3    H248889   6.294   5.293  12.653  0.1716 -1.6427 -0.6106
 8232TIP3   OH248890   7.567   7.461  12.437  0.0590  0.4647 -0.2119
 8232TIP3    H148891   7.624   7.391  12.405  1.3227  0.8930  0.9832
 8232TIP3    H248892   7.500   7.470  12.370  1.3941 -0.0666 -1.6787
 8233TIP3   OH248893   5.608   6.449  11.558 -0.0374  0.3404 -0.2378
 8233TIP3    H148894   5.703   6.459  11.553 -0.1520  1.2054 -0.9131
 8233TIP3    H248895   5.587   6.378  11.498  0.1161  0.6493 -0.6598
 8234TIP3   OH248896   5.668   6.466  10.652  0.6586 -0.2785  1.0417
 8234TIP3    H148897   5.623   6.512  10.582  0.8124 -1.3701  0.1869
 8234TIP3    H248898   5.754   6.508  10.657 -0.5367  2.1860  3.0619
 8235TIP3   OH248899   0.360   4.739  12.767 -0.5594 -0.2355 -0.3030
 8235TIP3    H148900   0.273   4.767  12.796 -0.6759  2.7076 -2.9980
 8235TIP3    H248901   0.411   4.819  12.760  1.8795 -1.6830 -0.5048
 8236TIP3   OH248902   5.020   1.476  10.692  0.0259 -0.3864 -0.0514
 8236TIP3    H148903   5.018   1.414  10.766  1.5315 -0.6621 -0.2241
 8236TIP3    H248904   5.109   1.510  10.691 -0.1731  0.1511 -1.3271
 8237TIP3   OH248905   1.161   0.341  11.733 -0.3137  0.1751  0.1489
 8237TIP3    H148906   1.161   0.417  11.791 -1.1381  0.5366 -0.2940
 8237TIP3    H248907   1.252   0.332  11.704 -0.3834  1.6470 -0.6044
 8238TIP3   OH248908   5.548   4.968  11.981 -0.0331  0.2659 -0.8247
 8238TIP3    H148909   5.578   4.888  12.025 -0.6056 -0.3530 -1.5512
 8238TIP3    H248910   5.511   4.938  11.899 -1.2333  1.1750 -0.6376
 8239TIP3   OH248911   0.379   6.174  11.362  0.0228  0.1947  0.2586
 8239TIP3    H148912   0.389   6.227  11.283 -1.6344 -0.8795 -0.7516
 8239TIP3    H248913   0.468   6.146  11.384  0.6732  1.6912 -0.3645
 8240TIP3   OH248914   0.740   5.058  12.931 -0.2192  0.1424 -0.1552
 8240TIP3    H148915   0.703   5.140  12.899  1.8608  0.6263 -1.5544
 8240TIP3    H248916   0.743   5.069  13.026  2.5508  2.9892 -0.3803
 8241TIP3   OH248917   6.235   5.600  12.615  0.6582  0.4203 -0.2924
 8241TIP3    H148918   6.300   5.618  12.546  0.5906 -1.0644 -0.7863
 8241TIP3    H248919   6.251   5.508  12.638 -1.0275  0.1409 -0.1667
 8242TIP3   OH248920   5.579   7.496  11.189  0.1704 -0.7245  0.1882
 8242TIP3    H148921   5.626   7.560  11.135 -1.5328  0.8855  0.4945
 8242TIP3    H248922   5.598   7.522  11.279 -0.4700 -0.7006  0.3200
 8243TIP3   OH248923   7.565   5.726  11.113 -0.3227  0.3222 -0.2473
 8243TIP3    H148924   7.594   5.635  11.122  0.2463  0.2866 -2.1536
 8243TIP3    H248925   7.480   5.719  11.069 -0.4191  0.7136 -0.1231
 8244TIP3   OH248926   7.063   4.063  11.507  0.4432  0.6075 -0.3321
 8244TIP3    H148927   6.989   4.078  11.566  1.5732  1.1213  1.0121
 8244TIP3    H248928   7.036   3.989  11.452 -1.4322  1.4068 -0.5405
 8245TIP3   OH248929   0.241   1.760  12.025  0.1122  0.9165  0.6977
 8245TIP3    H148930   0.152   1.773  11.992  0.1741  0.3556  0.2762
 8245TIP3    H248931   0.297   1.772  11.948  0.2310 -0.8418  0.4728
 8246TIP3   OH248932   0.809   3.107  10.950 -0.5210 -0.2330 -0.2503
 8246TIP3    H148933   0.800   3.171  11.021 -0.6398  0.3984 -0.8207
 8246TIP3    H248934   0.754   3.034  10.977  0.1204 -0.3872  0.7208
 8247TIP3   OH248935   6.916   3.318  12.542 -0.1901  0.1262 -0.0537
 8247TIP3    H148936   6.933   3.378  12.615 -2.0210  1.6252 -0.7512
 8247TIP3    H248937   6.896   3.376  12.468 -2.2929 -1.2858 -0.7021
 8248TIP3   OH248938   3.321   6.816  12.302 -0.8944  0.1220  0.2845
 8248TIP3    H148939   3.252   6.873  12.269  0.1338  0.9102 -0.6059
 8248TIP3    H248940   3.402   6.863  12.281 -0.1125  0.5445  3.6174
 8249TIP3   OH248941   2.546   4.933  11.715 -0.0421 -0.1355  0.1132
 8249TIP3    H148942   2.494   4.939  11.635 -0.1887  1.8439  0.3064
 8249TIP3    H248943   2.531   4.844  11.748 -4.4804  0.6955  0.9249
 8250TIP3   OH248944   6.778   5.989  13.067 -0.1947 -0.1119  0.2808
 8250TIP3    H148945   6.691   5.973  13.030  0.0615  1.1987 -0.9820
 8250TIP3    H248946   6.781   6.084  13.079  1.6208  0.0432 -1.1465
 8251TIP3   OH248947   5.567   1.190  10.667 -0.0076 -0.0178  0.5328
 8251TIP3    H148948   5.641   1.179  10.607  0.3592  0.4321  0.8871
 8251TIP3    H248949   5.536   1.101  10.684 -0.7260 -0.1066 -1.0497
 8252TIP3   OH248950   0.930   5.775  12.296 -0.3354  0.0510  0.2151
 8252TIP3    H148951   0.998   5.842  12.290  1.1312 -1.0340  3.0442
 8252TIP3    H248952   0.962   5.702  12.243 -0.1340  0.2124  0.1169
 8253TIP3   OH248953   0.766   6.337  11.203  0.7980 -0.1990  0.6513
 8253TIP3    H148954   0.711   6.414  11.191 -1.4098 -1.6129  1.1969
 8253TIP3    H248955   0.847   6.371  11.241 -0.9271  1.6522  2.9808
 8254TIP3   OH248956   5.368   6.425  10.688  0.2446 -0.1234  0.0094
 8254TIP3    H148957   5.306   6.470  10.745 -0.6684 -1.2382 -0.0806
 8254TIP3    H248958   5.443   6.406  10.745 -0.5457 -0.9915  0.7955
 8255TIP3   OH248959   7.677   4.949  11.458  0.1548  0.6048 -0.4437
 8255TIP3    H148960   7.704   4.869  11.502 -0.7402 -0.0155 -1.0026
 8255TIP3    H248961   7.740   4.960  11.387  0.1018  0.2358 -0.5477
 8256TIP3   OH248962   5.881   3.624  10.797  0.2279  0.1316 -1.0645
 8256TIP3    H148963   5.863   3.641  10.889  3.0894  0.0194 -0.4214
 8256TIP3    H248964   5.927   3.540  10.796  0.6444  0.3518 -2.5499
 8257TIP3   OH248965   1.724   5.023  12.775  0.2470 -0.0195  0.5383
 8257TIP3    H148966   1.721   5.047  12.868  3.0661  2.0923  0.2355
 8257TIP3    H248967   1.725   5.106  12.729  1.7399 -0.9214 -1.1899
 8258TIP3   OH248968   0.889   3.374  10.757  0.2698  0.3904 -0.8966
 8258TIP3    H148969   0.878   3.279  10.751  0.2978  0.3761 -0.7161
 8258TIP3    H248970   0.979   3.385  10.788 -0.3384  0.4353  0.9110
 8259TIP3   OH248971   5.722   6.287  10.858 -0.7349  0.2346  0.2478
 8259TIP3    H148972   5.803   6.244  10.831 -0.8740 -0.1966  0.4982
 8259TIP3    H248973   5.697   6.341  10.784  0.3972  1.2768  0.5986
 8260TIP3   OH248974   7.615   1.973  12.242  0.2585 -0.0462  0.6380
 8260TIP3    H148975   7.528   1.954  12.205  0.3501 -0.6446  0.7134
 8260TIP3    H248976   7.598   2.030  12.316  0.0535  1.0373 -0.2167
 8261TIP3   OH248977   0.725   6.081  10.857 -0.4716  0.3918  0.3932
 8261TIP3    H148978   0.751   6.173  10.852  3.9353 -0.6102  0.8874
 8261TIP3    H248979   0.703   6.057  10.766  0.0851  1.5050 -0.0487
 8262TIP3   OH248980   5.492   1.578  12.080  0.1494  0.0837 -0.3657
 8262TIP3    H148981   5.478   1.506  12.142 -0.9655 -0.4729 -1.2136
 8262TIP3    H248982   5.476   1.657  12.131 -1.5946 -0.3917 -0.0983
 8263TIP3   OH248983   1.801   3.410  11.763 -0.2893  0.4794  0.0381
 8263TIP3    H148984   1.810   3.328  11.715  0.4349  0.4497  0.2165
 8263TIP3    H248985   1.729   3.394  11.825 -0.5266  0.1716 -0.3129
 8264TIP3   OH248986   0.199   3.531  13.044  0.0646  0.2081  0.3490
 8264TIP3    H148987   0.282   3.577  13.036 -0.0428  0.2329 -0.8682
 8264TIP3    H248988   0.160   3.565  13.124  2.3396 -1.6887  2.4266
 8265TIP3   OH248989   1.452   6.351  12.031 -0.4349  0.2462 -0.8115
 8265TIP3    H148990   1.381   6.344  12.095 -0.7042  0.4377 -1.0796
 8265TIP3    H248991   1.499   6.430  12.057  0.7224 -0.8015  0.3751
 8266TIP3   OH248992   6.691   2.265  12.593  0.1605 -0.6265 -0.6395
 8266TIP3    H148993   6.606   2.289  12.555 -0.6376 -1.3718  0.5931
 8266TIP3    H248994   6.709   2.335  12.656  1.0988  0.1880 -1.7583
 8267TIP3   OH248995   6.172   4.825  10.904  0.2051 -0.2145  0.5196
 8267TIP3    H148996   6.129   4.758  10.958  1.0159 -1.1308  0.0646
 8267TIP3    H248997   6.109   4.897  10.900 -1.5855 -1.7441 -0.6358
 8268TIP3   OH248998   1.064   6.917  11.398 -0.9005 -0.8569 -0.1302
 8268TIP3    H148999   1.020   6.858  11.459  0.2361 -0.7321  0.8560
 8268TIP3    H249000   1.133   6.864  11.359 -1.8621 -1.0439 -1.6436
 8269TIP3   OH249001   2.618   4.462  13.142  0.3072 -0.3637 -0.2411
 8269TIP3    H149002   2.557   4.500  13.079  0.5000 -0.1555 -0.3034
 8269TIP3    H249003   2.662   4.537  13.181 -0.8661 -0.3956  1.2347
 8270TIP3   OH249004   3.089   0.882  12.240  0.1766 -1.1169  0.5896
 8270TIP3    H149005   3.126   0.828  12.309  0.7065 -1.2755  0.1833
 8270TIP3    H249006   3.033   0.821  12.190  0.0097 -1.0646  0.7107
 8271TIP3   OH249007   6.077   2.464  11.844  0.3367 -0.2657 -0.3192
 8271TIP3    H149008   6.080   2.370  11.822  2.4512 -0.0643 -1.1591
 8271TIP3    H249009   6.030   2.504  11.771 -0.8572 -0.6851  0.1974
 8272TIP3   OH249010   7.675   1.699  12.310 -0.0481  0.0918  0.5100
 8272TIP3    H149011   7.715   1.671  12.392  1.6477  1.2176  0.1313
 8272TIP3    H249012   7.669   1.794  12.318 -0.0775  0.1920 -0.5568
 8273TIP3   OH249013   6.130   3.949  13.327 -0.2975  0.1122 -0.2151
 8273TIP3    H149014   6.135   3.959  13.232  1.3121  1.8250 -0.0144
 8273TIP3    H249015   6.152   4.035  13.361  0.6508 -0.8362  1.7163
 8274TIP3   OH249016   5.674   6.507  12.160 -0.1701  0.1708 -0.0503
 8274TIP3    H149017   5.621   6.575  12.202 -0.0980 -1.8469  3.6692
 8274TIP3    H249018   5.763   6.523  12.191  0.3622  0.0079 -1.4300
 8275TIP3   OH249019   0.025   6.587  10.647  0.3111  0.0769  0.5961
 8275TIP3    H149020   0.069   6.558  10.567 -0.8993  1.1241 -0.4985
 8275TIP3    H249021  -0.013   6.508  10.684 -0.3696 -0.2189 -0.6799
 8276TIP3   OH249022   1.796   4.683  11.560  0.6484 -0.0670  0.6281
 8276TIP3    H149023   1.808   4.756  11.620  1.7085  0.7475 -0.5309
 8276TIP3    H249024   1.728   4.712  11.500  0.6238 -0.2837  0.5506
 8277TIP3   OH249025   3.043   5.934  11.051 -0.3717 -0.1025 -0.0926
 8277TIP3    H149026   3.105   5.865  11.028 -2.2374 -1.2612 -1.9508
 8277TIP3    H249027   3.038   5.931  11.146  1.6585 -0.6034  0.0487
 8278TIP3   OH249028   6.202   2.502  10.857  0.0461 -0.0530 -0.3832
 8278TIP3    H149029   6.183   2.422  10.906 -1.0322  0.4270  0.0122
 8278TIP3    H249030   6.215   2.473  10.767 -1.1454 -0.5890 -0.3890
 8279TIP3   OH249031   2.473   7.072  11.815 -0.0385  0.3502 -0.1407
 8279TIP3    H149032   2.495   7.005  11.749  0.0480  1.3984 -1.2139
 8279TIP3    H249033   2.377   7.067  11.822  0.0729 -0.8153  0.8240
 8280TIP3   OH249034   1.556   5.643  10.725 -0.0637  0.6064 -0.1982
 8280TIP3    H149035   1.493   5.715  10.720 -0.6114  0.2134  0.8893
 8280TIP3    H249036   1.614   5.667  10.797 -0.7553 -0.4394  0.7153
 8281TIP3   OH249037   0.351   3.171  11.231 -0.1392 -0.2216 -0.9545
 8281TIP3    H149038   0.396   3.237  11.285 -0.7444 -0.0011 -0.7139
 8281TIP3    H249039   0.398   3.090  11.250  2.0047  0.4514 -2.8603
 8282TIP3   OH249040   1.734   5.604  12.443 -0.1100  0.3270  0.0478
 8282TIP3    H149041   1.675   5.543  12.400 -1.3779  2.1676 -0.9456
 8282TIP3    H249042   1.685   5.637  12.518  0.7250 -0.1541  0.8296
 8283TIP3   OH249043   6.815   2.688  10.703 -0.0150 -0.3526 -0.0791
 8283TIP3    H149044   6.793   2.737  10.782 -0.1103  1.9333 -1.4484
 8283TIP3    H249045   6.731   2.667  10.663  0.0452 -1.1083  0.1748
 8284TIP3   OH249046   2.808   7.106  11.209 -0.0134  0.1499 -0.2123
 8284TIP3    H149047   2.747   7.037  11.184 -0.8158  1.0067 -0.6547
 8284TIP3    H249048   2.881   7.097  11.148 -0.8357  0.6676 -1.3067
 8285TIP3   OH249049   2.090   5.674  11.633  0.1788  0.4628 -0.4788
 8285TIP3    H149050   2.029   5.608  11.665 -1.1515  1.4076 -0.9260
 8285TIP3    H249051   2.134   5.632  11.559 -0.1611 -0.1472 -0.3419
 8286TIP3   OH249052   2.616   1.145  10.417 -0.0115  0.4354 -0.2909
 8286TIP3    H149053   2.560   1.084  10.465  0.5536 -0.9320 -1.2871
 8286TIP3    H249054   2.706   1.117  10.438  0.2545  0.8160 -0.8803
 8287TIP3   OH249055   1.885   7.653  11.058 -0.4807  0.1278 -0.1925
 8287TIP3    H149056   1.840   7.626  10.978 -1.8917  0.2970  0.5117
 8287TIP3    H249057   1.938   7.578  11.082  0.2952  0.2154 -1.4870
 8288TIP3   OH249058   7.162   2.148  13.008  0.0091 -0.1649  0.6997
 8288TIP3    H149059   7.175   2.071  13.064  2.1883 -0.9623 -0.7817
 8288TIP3    H249060   7.249   2.168  12.973 -1.3217 -0.3624 -3.2338
 8289TIP3   OH249061   4.308   6.164  11.325 -0.5413  0.1973  0.3120
 8289TIP3    H149062   4.380   6.111  11.361  1.0542  0.4400 -2.2230
 8289TIP3    H249063   4.347   6.250  11.310 -2.1783  1.1710  1.3009
 8290TIP3   OH249064   3.633   0.648  11.824 -0.6034 -0.0653  0.5301
 8290TIP3    H149065   3.608   0.618  11.737 -0.9216 -0.7748  0.8524
 8290TIP3    H249066   3.701   0.713  11.809 -1.1201  0.3107 -0.2790
 8291TIP3   OH249067   6.515   7.155  10.884 -0.0082 -0.1831 -0.1793
 8291TIP3    H149068   6.579   7.200  10.939 -0.0953 -0.2178 -0.0465
 8291TIP3    H249069   6.563   7.131  10.805  0.0579  0.0754 -0.2179
 8292TIP3   OH249070   0.464   3.750  12.949 -0.1227  0.2152  0.3075
 8292TIP3    H149071   0.531   3.682  12.952 -1.6302 -1.3077  0.6844
 8292TIP3    H249072   0.489   3.810  13.019  1.4877  0.3471 -0.3289
 8293TIP3   OH249073   2.686   4.827  10.865 -0.4799  0.2633 -0.1109
 8293TIP3    H149074   2.623   4.899  10.857 -0.4991  0.3423  0.6769
 8293TIP3    H249075   2.770   4.870  10.881 -0.6002  0.1112  1.0279
 8294TIP3   OH249076   5.052   0.202  11.074 -0.4447 -0.0897 -0.1718
 8294TIP3    H149077   4.958   0.215  11.085 -0.8028 -2.4600  0.0143
 8294TIP3    H249078   5.059   0.132  11.009  1.2087  0.1949 -0.3389
 8295TIP3   OH249079   0.417   1.262  11.580  0.3698  0.1734 -0.0549
 8295TIP3    H149080   0.433   1.209  11.659  0.5556  1.1736  0.6064
 8295TIP3    H249081   0.504   1.270  11.540  0.1374 -1.0681 -0.8727
 8296TIP3   OH249082   2.230   3.737  12.584  0.3186  0.4429  0.5994
 8296TIP3    H149083   2.165   3.792  12.541  0.5570  0.6835  0.5476
 8296TIP3    H249084   2.187   3.706  12.664  0.3879  1.1794  0.9318
 8297TIP3   OH249085   6.514   2.857  13.440 -0.2443  0.0307 -0.2001
 8297TIP3    H149086   6.596   2.860  13.390 -0.1403  0.0046 -0.0316
 8297TIP3    H249087   6.530   2.915  13.515 -0.3784  0.0221 -0.1653
 8298TIP3   OH249088   2.802   5.450  11.989  0.4394  0.1978 -0.1550
 8298TIP3    H149089   2.740   5.386  12.024  2.1368  0.2255  3.3578
 8298TIP3    H249090   2.752   5.531  11.983 -0.2644 -0.0935  1.3008
 8299TIP3   OH249091   7.207   0.556  11.270  0.2323  0.0930  0.0859
 8299TIP3    H149092   7.187   0.625  11.333  0.9690  1.8760 -1.5430
 8299TIP3    H249093   7.156   0.481  11.299 -2.3059  1.9547  0.7193
 8300TIP3   OH249094   4.873   0.132  12.601 -0.0735  0.0356 -0.4872
 8300TIP3    H149095   4.792   0.087  12.579 -0.7037  1.1248 -0.4845
 8300TIP3    H249096   4.940   0.064  12.599 -1.1364 -1.0878  0.5159
 8301TIP3   OH249097   2.077   4.606  12.534 -0.5577  0.1124 -0.0455
 8301TIP3    H149098   2.086   4.547  12.609 -0.5854  0.3843  0.1768
 8301TIP3    H249099   2.131   4.567  12.466 -1.1181 -0.5325 -0.1302
 8302TIP3   OH249100   3.697   3.909  12.522  0.0600 -0.5291 -0.2023
 8302TIP3    H149101   3.739   3.994  12.511 -0.4270 -0.2537  0.0621
 8302TIP3    H249102   3.753   3.848  12.473 -0.1340  0.0917 -1.2167
 8303TIP3   OH249103   6.690   5.991  13.616  0.0706 -0.0719 -0.3665
 8303TIP3    H149104   6.720   5.923  13.676 -0.5728 -1.5728 -1.6868
 8303TIP3    H249105   6.730   5.968  13.532 -0.8907  0.6601 -1.0408
 8304TIP3   OH249106   0.249   0.909  12.550  0.3746  0.0378 -0.1041
 8304TIP3    H149107   0.231   0.912  12.644  1.2969  0.4984  0.0740
 8304TIP3    H249108   0.226   0.997  12.519  0.3114 -0.0342 -0.2617
 8305TIP3   OH249109   5.611   1.105  11.483  0.1594  0.3628  0.1583
 8305TIP3    H149110   5.646   1.016  11.486  1.2032  0.7170 -0.6662
 8305TIP3    H249111   5.538   1.104  11.545 -0.4440 -1.3131 -0.5069
 8306TIP3   OH249112   0.134   6.009  12.099  0.2177  0.4607  0.1961
 8306TIP3    H149113   0.110   5.918  12.120 -0.6322  0.3759 -1.0793
 8306TIP3    H249114   0.086   6.062  12.163  1.2130  0.0206  1.3673
 8307TIP3   OH249115   1.273   6.744  11.365  0.8309 -0.1170 -0.2588
 8307TIP3    H149116   1.298   6.735  11.457 -0.3610 -1.4302 -0.0174
 8307TIP3    H249117   1.329   6.682  11.319 -1.4282 -2.7241  0.2241
 8308TIP3   OH249118   6.200   6.920  12.816 -0.4519  0.2247 -0.0573
 8308TIP3    H149119   6.166   7.007  12.797 -0.9175  0.2904  0.9917
 8308TIP3    H249120   6.122   6.866  12.829 -0.1658 -0.1254  0.2328
 8309TIP3   OH249121   2.229   3.137  11.141  0.0775 -0.5092 -0.0426
 8309TIP3    H149122   2.181   3.193  11.203 -0.1249  0.5489 -1.1156
 8309TIP3    H249123   2.319   3.170  11.145  0.2183 -0.9061  0.1844
 8310TIP3   OH249124   0.202   4.005  10.215 -0.0564 -0.1853 -0.3026
 8310TIP3    H149125   0.201   4.033  10.124  0.3102 -0.7796 -0.4897
 8310TIP3    H249126   0.134   4.059  10.257 -1.8928 -1.5113 -1.4044
 8311TIP3   OH249127   2.642   1.688  10.687 -0.2567 -0.6939  0.0328
 8311TIP3    H149128   2.710   1.626  10.712 -0.2072 -0.5635  0.2295
 8311TIP3    H249129   2.653   1.699  10.593 -0.6060 -1.3860 -0.0945
 8312TIP3   OH249130   3.608   1.125  11.497 -0.4663  0.1384 -0.5203
 8312TIP3    H149131   3.551   1.179  11.550  0.1144 -0.7438  1.0657
 8312TIP3    H249132   3.589   1.035  11.524  1.0681 -0.2258 -0.5491
 8313TIP3   OH249133   1.951   3.946  12.236 -0.3074 -0.5414  0.0723
 8313TIP3    H149134   2.046   3.959  12.238 -0.3898  0.1002  1.2823
 8313TIP3    H249135   1.935   3.873  12.295 -0.4119 -2.0877 -1.7937
 8314TIP3   OH249136   1.274   1.288  12.527  0.2483  0.0972 -0.3844
 8314TIP3    H149137   1.249   1.241  12.607 -0.3772 -0.7301 -1.0381
 8314TIP3    H249138   1.316   1.368  12.558 -0.2520 -0.0631  0.7752
 8315TIP3   OH249139   3.905   3.756  11.317  0.3424 -0.0469 -0.0526
 8315TIP3    H149140   3.881   3.805  11.238 -2.0400 -1.2676 -0.1759
 8315TIP3    H249141   3.821   3.731  11.356  1.4720 -1.0265  1.9103
 8316TIP3   OH249142   0.657   7.439  12.279  0.0590  0.3086  0.2601
 8316TIP3    H149143   0.616   7.509  12.330 -0.0018  1.3031 -1.0723
 8316TIP3    H249144   0.628   7.358  12.321 -0.8862  1.0582  1.1055
 8317TIP3   OH249145   0.431   6.876  13.192 -0.3484 -0.3639  0.5488
 8317TIP3    H149146   0.482   6.954  13.217 -0.6984 -0.3917  1.3750
 8317TIP3    H249147   0.474   6.804  13.239 -2.9639  0.0169  3.9011
 8318TIP3   OH249148   7.294   4.541  10.754 -0.0313  0.2328  0.3431
 8318TIP3    H149149   7.366   4.483  10.730  0.9391  0.9006  1.5576
 8318TIP3    H249150   7.255   4.566  10.670  1.8829  0.7728 -0.4322
 8319TIP3   OH249151   0.708   1.898  12.003 -0.0539  0.2361 -0.1319
 8319TIP3    H149152   0.661   1.898  11.920  0.0495 -1.3116 -0.2170
 8319TIP3    H249153   0.644   1.932  12.066 -0.0596  1.6294 -0.8526
 8320TIP3   OH249154   7.516   5.208  12.136  0.1479  0.0089 -0.7957
 8320TIP3    H149155   7.467   5.187  12.057 -0.6880 -1.1044 -0.0062
 8320TIP3    H249156   7.556   5.124  12.163 -0.2684  0.1803  0.4145
 8321TIP3   OH249157   5.835   6.478  12.488  0.3448 -0.4985 -0.3803
 8321TIP3    H149158   5.777   6.526  12.546  1.6052 -0.5041  0.9422
 8321TIP3    H249159   5.850   6.539  12.415  0.0330  0.1692  0.0974
 8322TIP3   OH249160   5.622   4.506  11.832  0.4755 -0.2273  0.5168
 8322TIP3    H149161   5.686   4.523  11.763  2.2214 -0.2111  2.0781
 8322TIP3    H249162   5.650   4.423  11.871 -0.8073 -0.5156  0.8755
 8323TIP3   OH249163   1.656   1.000  11.731 -0.3375 -0.2843  0.4174
 8323TIP3    H149164   1.682   0.909  11.745 -1.6152 -0.8588 -0.7709
 8323TIP3    H249165   1.568   0.995  11.693  1.0670  1.2747 -3.4685
 8324TIP3   OH249166   1.816   1.796  12.442  0.5983  0.3827  0.2363
 8324TIP3    H149167   1.822   1.766  12.533  1.5650 -1.4544 -0.3708
 8324TIP3    H249168   1.832   1.717  12.390  0.7278  1.5145 -1.5333
 8325TIP3   OH249169   7.439   1.344  10.859 -0.1325  0.0399  0.0072
 8325TIP3    H149170   7.529   1.370  10.840 -0.1650 -0.3828 -0.8214
 8325TIP3    H249171   7.429   1.357  10.953  0.2624  1.6850 -0.1401
 8326TIP3   OH249172   1.519   6.477  11.417  0.7489  0.6437  0.3210
 8326TIP3    H149173   1.475   6.494  11.334 -0.3665  0.6755  0.8990
 8326TIP3    H249174   1.548   6.386  11.410 -0.8178  0.0920  0.5112
 8327TIP3   OH249175   5.476   3.730  12.201  0.2058 -0.9968  0.2011
 8327TIP3    H149176   5.403   3.701  12.256 -0.1927 -2.0452 -0.8236
 8327TIP3    H249177   5.533   3.654  12.195  1.1473 -0.3371  0.5850
 8328TIP3   OH249178   4.318   2.010  10.577  0.2550 -0.1408  0.0699
 8328TIP3    H149179   4.235   2.035  10.538  0.0073  1.8031  1.6386
 8328TIP3    H249180   4.297   1.937  10.635 -0.2113 -0.2001 -0.1755
 8329TIP3   OH249181   6.955   4.699  12.916 -0.2555 -0.1248  0.0700
 8329TIP3    H149182   7.043   4.734  12.905 -0.0015 -0.5374  0.7349
 8329TIP3    H249183   6.948   4.679  13.009 -0.2152 -2.2463 -0.3190
 8330TIP3   OH249184   4.271   4.098  12.629  0.1658  0.0195  0.3905
 8330TIP3    H149185   4.266   4.008  12.661  0.7406  0.2850  1.2776
 8330TIP3    H249186   4.197   4.143  12.671 -0.9259 -0.3262 -1.0955
 8331TIP3   OH249187   7.647   4.117  10.743 -0.1281 -0.3426 -0.1729
 8331TIP3    H149188   7.633   4.073  10.659  1.8662  2.2778 -2.0390
 8331TIP3    H249189   7.720   4.069  10.783 -1.5095 -2.0110  0.4768
 8332TIP3   OH249190   0.080   4.358  12.223 -0.1104 -0.6259  0.2261
 8332TIP3    H149191   0.075   4.291  12.155  2.1950  0.8137 -1.5397
 8332TIP3    H249192   0.174   4.367  12.240 -0.3047  2.2967  0.1720
 8333TIP3   OH249193   3.482   7.580  11.802 -0.1135 -0.2085  0.0773
 8333TIP3    H149194   3.419   7.621  11.862  0.4637  0.7415  0.0552
 8333TIP3    H249195   3.460   7.487  11.805 -2.0059  0.1617 -0.4991
 8334TIP3   OH249196   0.654   6.870  11.351  0.2545  0.4379  0.2752
 8334TIP3    H149197   0.721   6.805  11.371  0.6555 -0.1266 -2.4642
 8334TIP3    H249198   0.606   6.882  11.433  1.2588 -2.0042  1.3038
 8335TIP3   OH249199   7.438   3.297  11.353  0.1294 -0.0555 -0.1740
 8335TIP3    H149200   7.456   3.366  11.288  0.8553  1.0436  1.1528
 8335TIP3    H249201   7.493   3.224  11.326  1.2848  0.7888 -0.1876
 8336TIP3   OH249202   1.148   6.456  17.663 -0.0075  0.0833  0.0280
 8336TIP3    H149203   1.146   6.453  17.758 -0.0827 -0.0445  0.0221
 8336TIP3    H249204   1.104   6.538  17.641 -1.4292 -0.6411  0.0498
 8337TIP3   OH249205   4.377   1.195  12.874  0.8095 -0.3327 -0.4557
 8337TIP3    H149206   4.411   1.283  12.858 -1.4074  0.1532 -3.2622
 8337TIP3    H249207   4.282   1.206  12.872  0.4776 -2.6584  0.1933
 8338TIP3   OH249208   2.167   1.975  12.253  0.1679  0.4499 -0.0301
 8338TIP3    H149209   2.253   2.012  12.271  0.2613 -0.1759  0.8951
 8338TIP3    H249210   2.152   1.913  12.324 -0.7150 -0.0280 -0.6102
 8339TIP3   OH249211   6.039   3.807  12.623 -0.1396 -0.9017 -0.2865
 8339TIP3    H149212   6.118   3.764  12.592 -0.1117  0.4834 -2.3362
 8339TIP3    H249213   6.063   3.900  12.631 -1.3685 -0.5565 -0.2773
 8340TIP3   OH249214   4.510   0.905  11.708  0.2550 -0.3631 -0.3401
 8340TIP3    H149215   4.572   0.859  11.764  1.7353  0.7307 -1.0068
 8340TIP3    H249216   4.472   0.836  11.653  1.5599 -0.9639 -0.5358
 8341TIP3   OH249217   0.282   4.722  12.242 -0.0596  0.0554  0.2502
 8341TIP3    H149218   0.349   4.681  12.296  0.1590  0.3619  0.2152
 8341TIP3    H249219   0.254   4.798  12.293  1.0038  1.0460 -0.5779
 8342TIP3   OH249220   7.582   3.959  13.149  0.1690  0.1871  0.2257
 8342TIP3    H149221   7.513   3.993  13.205 -0.7571 -1.1516 -0.0475
 8342TIP3    H249222   7.545   3.880  13.110  1.5663 -0.1174 -0.5782
 8343TIP3   OH249223   4.145   4.911  10.533 -0.7541  0.7670 -0.4732
 8343TIP3    H149224   4.214   4.857  10.571 -0.2271  2.8284  1.7228
 8343TIP3    H249225   4.137   4.879  10.443  2.6168 -0.0096 -0.6353
 8344TIP3   OH249226   2.104   1.322  11.454  0.3881 -0.1986 -0.4238
 8344TIP3    H149227   2.170   1.253  11.461 -1.0598 -1.8462 -2.0028
 8344TIP3    H249228   2.124   1.366  11.371 -0.3046 -0.5341 -0.7791
 8345TIP3   OH249229   5.618   3.177  10.549 -0.4964 -0.6170  0.5048
 8345TIP3    H149230   5.579   3.230  10.479  0.0138  2.1141  2.1666
 8345TIP3    H249231   5.549   3.171  10.615  0.1602 -0.2296  1.2282
 8346TIP3   OH249232   6.051   7.028  13.084  0.3605 -0.2602  1.3533
 8346TIP3    H149233   5.966   6.989  13.061  0.8416 -0.6809  0.2383
 8346TIP3    H249234   6.085   6.971  13.153  1.1091 -1.9874 -0.3422
 8347TIP3   OH249235   5.126   2.991  10.785 -0.0624  0.1052 -0.0865
 8347TIP3    H149236   5.171   2.970  10.867 -0.3633  0.0046  0.0538
 8347TIP3    H249237   5.126   2.909  10.736 -0.5637 -0.0352  0.1405
 8348TIP3   OH249238   0.896   1.390  17.422 -0.0392 -0.0340  0.7536
 8348TIP3    H149239   0.909   1.429  17.336  0.4174 -1.4032  0.1623
 8348TIP3    H249240   0.826   1.441  17.462  0.0524  0.9058 -0.2425
 8349TIP3   OH249241   5.402   1.348  10.832 -0.0962  0.4136  0.0513
 8349TIP3    H149242   5.455   1.275  10.801 -0.1524  0.0522  0.7800
 8349TIP3    H249243   5.354   1.313  10.908  0.3195  1.3533  0.7773
 8350TIP3   OH249244   6.638   4.531  11.438  0.0794 -0.3120  0.7197
 8350TIP3    H149245   6.656   4.536  11.531 -2.5308 -0.7327  1.3382
 8350TIP3    H249246   6.542   4.528  11.432  0.0846  1.2721 -2.0630
 8351TIP3   OH249247   0.927   2.399  11.248 -0.2655  0.3457  0.0702
 8351TIP3    H149248   0.895   2.369  11.163 -1.6368  0.5410  0.5034
 8351TIP3    H249249   1.010   2.351  11.260  0.2368  0.7056 -1.5930
 8352TIP3   OH249250   6.188   3.418  10.435  0.4964  0.0923  0.2518
 8352TIP3    H149251   6.275   3.419  10.395  0.4568 -0.2370  0.1504
 8352TIP3    H249252   6.131   3.460  10.371  0.6111  0.4764  0.3968
 8353TIP3   OH249253   5.263   0.028  11.201 -0.5366  0.5934 -0.0540
 8353TIP3    H149254   5.271   0.026  11.297 -3.1902  1.2151  0.2672
 8353TIP3    H249255   5.206   0.103  11.184 -0.6916  0.0588 -2.0822
 8354TIP3   OH249256   3.476   2.543  12.531 -0.0397 -0.3203  0.4164
 8354TIP3    H149257   3.571   2.528  12.530  0.0249  0.0604  0.6880
 8354TIP3    H249258   3.467   2.637  12.550 -0.4641 -0.2940  0.1040
 8355TIP3   OH249259   2.492   6.740  11.388 -0.0073  0.1409  0.0711
 8355TIP3    H149260   2.446   6.671  11.437 -0.4054 -0.4317 -1.0606
 8355TIP3    H249261   2.562   6.694  11.342 -0.6508  0.3706 -1.1764
 8356TIP3   OH249262   7.363   4.120  12.644  0.0930  0.2815  0.5627
 8356TIP3    H149263   7.441   4.163  12.609  0.1294 -0.0669  0.2084
 8356TIP3    H249264   7.344   4.050  12.581 -0.6100  0.4781  0.5497
 8357TIP3   OH249265   7.367   2.177  12.119  0.6327 -0.1003 -0.1770
 8357TIP3    H149266   7.320   2.202  12.199  0.3781 -1.6344  0.1804
 8357TIP3    H249267   7.332   2.091  12.096  0.7577  0.2796 -1.9155
 8358TIP3   OH249268   6.215   1.974  12.603 -0.2659 -0.3775 -0.2876
 8358TIP3    H149269   6.151   2.033  12.642  0.6425  1.6850 -1.7373
 8358TIP3    H249270   6.217   1.999  12.510  1.5933 -1.3447 -0.5484
 8359TIP3   OH249271   3.705   1.274  10.859  0.0393  0.3516  0.0799
 8359TIP3    H149272   3.792   1.237  10.843 -0.6387 -0.6513 -1.5086
 8359TIP3    H249273   3.654   1.201  10.892 -0.9695  0.1133 -1.8585
 8360TIP3   OH249274   6.958   3.014  13.526  0.1058 -0.5680  0.0435
 8360TIP3    H149275   7.030   3.069  13.557  0.1308  0.1419 -1.1884
 8360TIP3    H249276   6.882   3.041  13.577  0.6246 -1.1234  1.1530
 8361TIP3   OH249277   1.184   5.179  10.728 -0.3775  0.5846  0.1671
 8361TIP3    H149278   1.234   5.234  10.789  0.3409 -0.0672  0.1762
 8361TIP3    H249279   1.248   5.120  10.690 -0.8974  0.6856 -0.9124
 8362TIP3   OH249280   5.591   2.657  12.075  0.0548  0.2741  0.0141
 8362TIP3    H149281   5.562   2.591  12.012 -1.7218  0.5466  0.4842
 8362TIP3    H249282   5.651   2.713  12.026  1.9342 -1.8919 -0.2861
 8363TIP3   OH249283   1.625   6.262  11.181  0.0296 -0.4588 -0.0251
 8363TIP3    H149284   1.650   6.170  11.191  0.6913 -0.3389 -0.5464
 8363TIP3    H249285   1.708   6.310  11.178 -0.2625  0.0150 -1.1550
 8364TIP3   OH249286   4.121   3.147  12.054 -0.4356 -0.3510 -0.1657
 8364TIP3    H149287   4.029   3.125  12.070 -1.2169  1.1578 -2.1359
 8364TIP3    H249288   4.118   3.227  12.001  2.0419  0.0921  0.2281
 8365TIP3   OH249289   2.708   0.271  11.326  0.0295  0.4478 -0.0830
 8365TIP3    H149290   2.694   0.210  11.254  3.0963 -1.2454  0.5862
 8365TIP3    H249291   2.749   0.347  11.286 -2.3916  1.5415 -0.6803
 8366TIP3   OH249292   0.771   3.881  11.310  0.5683  0.0786 -0.8295
 8366TIP3    H149293   0.734   3.826  11.241 -1.2367  0.8934 -0.5609
 8366TIP3    H249294   0.732   3.967  11.297  1.0147  0.5257  0.5586
 8367TIP3   OH249295   2.205   4.698  11.682  0.5171 -0.1981 -0.4041
 8367TIP3    H149296   2.280   4.661  11.730 -0.3607 -1.1064  0.3351
 8367TIP3    H249297   2.223   4.792  11.678  1.7530 -0.4136 -0.3570
 8368TIP3   OH249298   4.029   1.366  11.075 -0.1049  0.0492 -0.2623
 8368TIP3    H149299   4.064   1.405  11.155  0.6485  0.4892 -0.7938
 8368TIP3    H249300   3.946   1.411  11.061 -1.8429 -2.1865  1.9439
 8369TIP3   OH249301   2.205   6.890  10.607  0.0466 -0.2886  0.3341
 8369TIP3    H149302   2.193   6.984  10.593 -0.6907 -0.5081 -0.6296
 8369TIP3    H249303   2.217   6.854  10.519 -2.0393 -1.3873  0.4415
 8370TIP3   OH249304   2.903   7.581  11.641 -0.3070 -0.5402 -0.3171
 8370TIP3    H149305   2.815   7.543  11.633 -1.0082  0.8013  0.6281
 8370TIP3    H249306   2.950   7.520  11.698 -1.0400 -0.6142  0.2186
 8371TIP3   OH249307   7.499   5.675  12.913 -0.4048  0.6476  0.7712
 8371TIP3    H149308   7.423   5.620  12.896  0.6736 -0.2716 -1.5784
 8371TIP3    H249309   7.527   5.650  13.001  0.0318 -2.6988 -0.1563
 8372TIP3   OH249310   7.593   0.921  11.423  0.0989 -0.1349  0.4054
 8372TIP3    H149311   7.614   0.997  11.369  1.7066 -0.7066  0.1583
 8372TIP3    H249312   7.678   0.888  11.453 -0.4817 -2.1431  0.0376
 8373TIP3   OH249313   0.693   2.510  11.335  0.4043  0.2639  0.2758
 8373TIP3    H149314   0.641   2.522  11.255 -1.5845 -0.3255  1.4183
 8373TIP3    H249315   0.781   2.490  11.303 -0.1963  0.5871 -1.7517
 8374TIP3   OH249316   5.843   4.185  12.541 -0.4313 -0.4009 -0.0543
 8374TIP3    H149317   5.812   4.109  12.491 -0.5538  0.4604 -1.3345
 8374TIP3    H249318   5.782   4.255  12.519  0.9554  0.6611 -0.6748
 8375TIP3   OH249319   0.787   4.707  13.315  0.1529  0.4878  0.2894
 8375TIP3    H149320   0.799   4.645  13.387 -0.1190 -0.5618 -0.5453
 8375TIP3    H249321   0.738   4.780  13.354  1.0486  0.5004  1.4409
 8376TIP3   OH249322   0.270   4.051  11.770 -0.2784 -0.2200  0.0232
 8376TIP3    H149323   0.321   4.080  11.694 -1.1775  0.7786 -0.2283
 8376TIP3    H249324   0.256   3.958  11.755  0.2200 -0.1948 -0.6476
 8377TIP3   OH249325   1.700   5.769  12.965 -0.4248 -0.7967  0.4708
 8377TIP3    H149326   1.635   5.721  13.016 -0.4981  0.3823  1.5426
 8377TIP3    H249327   1.656   5.851  12.940  0.4492 -0.2238  0.7387
 8378TIP3   OH249328   6.985   7.072  12.551  0.5815  1.1584 -0.1156
 8378TIP3    H149329   6.961   7.008  12.484  2.6328  0.2725 -0.0919
 8378TIP3    H249330   6.914   7.136  12.551 -0.3250  0.2016 -1.8775
 8379TIP3   OH249331   6.778   4.221  10.702 -0.1313  0.3738  0.2067
 8379TIP3    H149332   6.703   4.174  10.736 -0.0390 -0.2985 -0.5001
 8379TIP3    H249333   6.793   4.292  10.765 -0.3020 -0.4960  1.2520
 8380TIP3   OH249334   2.029   4.466  12.754 -0.2790  0.1787  0.0459
 8380TIP3    H149335   2.084   4.413  12.812  0.7508 -0.1904 -1.2186
 8380TIP3    H249336   1.981   4.524  12.813  0.1157 -0.7421  1.3150
 8381TIP3   OH249337   0.577   2.031  12.217 -0.0941 -0.0861 -0.0487
 8381TIP3    H149338   0.618   2.112  12.185 -0.9519  0.8685  1.1436
 8381TIP3    H249339   0.484   2.043  12.199 -0.0172 -1.9540 -2.1495
 8382TIP3   OH249340   5.301   4.697  12.348 -0.3118 -0.0676 -0.0077
 8382TIP3    H149341   5.211   4.704  12.379 -0.2523 -0.7062  0.3314
 8382TIP3    H249342   5.296   4.710  12.254 -1.0341 -2.0740 -0.2985
 8383TIP3   OH249343   7.187   6.107  10.928 -0.2827  0.0504  0.4420
 8383TIP3    H149344   7.207   6.016  10.952  1.5866  0.8261  2.0978
 8383TIP3    H249345   7.127   6.099  10.854 -0.8825 -2.5280  1.0864
 8384TIP3   OH249346   4.484   5.277  11.504 -0.0079  0.7719  0.2950
 8384TIP3    H149347   4.563   5.226  11.523 -0.6504  0.6297  2.9878
 8384TIP3    H249348   4.490   5.296  11.410  1.5883 -1.9565 -0.2631
 8385TIP3   OH249349   0.995   5.266  13.364  0.3197 -0.0581 -0.1214
 8385TIP3    H149350   1.062   5.313  13.414  0.6505 -1.0448  0.3807
 8385TIP3    H249351   1.041   5.191  13.326 -0.2498 -0.1135 -0.7253
 8386TIP3   OH249352   2.355   7.124  10.740  0.0970  0.0848  0.6005
 8386TIP3    H149353   2.396   7.049  10.782 -0.8511 -0.7150  0.1516
 8386TIP3    H249354   2.271   7.134  10.785 -0.3951 -0.0191 -0.2579
 8387TIP3   OH249355   6.598   5.506  11.858  0.1215 -0.1339  0.0635
 8387TIP3    H149356   6.612   5.536  11.768 -0.0372  0.7511  0.3270
 8387TIP3    H249357   6.526   5.443  11.851 -1.0965  1.2343 -0.2072
 8388TIP3   OH249358   6.367   0.705  11.986  1.4004  0.1612  0.2587
 8388TIP3    H149359   6.342   0.792  12.019  1.0840  0.2731 -0.2563
 8388TIP3    H249360   6.310   0.691  11.911 -0.7095 -1.8183  2.0796
 8389TIP3   OH249361   0.437   2.036  12.596  0.3395  0.1665 -0.5885
 8389TIP3    H149362   0.427   2.045  12.691  1.6270  0.1015 -0.4273
 8389TIP3    H249363   0.413   2.121  12.561  1.6261  0.7782 -0.0357
 8390TIP3   OH249364   1.806   2.396  12.432 -0.2182 -0.2428 -0.1766
 8390TIP3    H149365   1.781   2.414  12.522  0.4770 -1.2105  0.2114
 8390TIP3    H249366   1.752   2.321  12.406 -0.8797  0.4234 -0.7880
 8391TIP3   OH249367   6.947   5.104  12.478  0.2269  0.3469  0.3605
 8391TIP3    H149368   6.859   5.074  12.499 -0.4298  0.7974 -1.5133
 8391TIP3    H249369   6.960   5.180  12.534 -0.9959  0.8659 -0.0173
 8392TIP3   OH249370   0.552   6.796  11.102  0.7205 -0.1218  0.1250
 8392TIP3    H149371   0.594   6.837  11.026  1.9059 -1.2679  0.1194
 8392TIP3    H249372   0.607   6.822  11.176  0.9459 -0.9344  0.2482
 8393TIP3   OH249373   3.280   1.628  12.169 -0.3481  0.1069  0.1931
 8393TIP3    H149374   3.288   1.537  12.141  0.4335 -0.0183  0.7902
 8393TIP3    H249375   3.194   1.633  12.210 -1.2153  0.1274 -1.5603
 8394TIP3   OH249376   7.116   7.314  12.690 -0.3332  0.2229 -0.1012
 8394TIP3    H149377   7.068   7.383  12.644  1.9253  1.3993 -0.8728
 8394TIP3    H249378   7.159   7.359  12.762  0.0953 -0.6411  0.2001
 8395TIP3   OH249379   7.447   0.286  11.392 -0.0532  0.4290 -0.4882
 8395TIP3    H149380   7.476   0.249  11.475  1.3425 -1.9388 -1.9055
 8395TIP3    H249381   7.386   0.221  11.357 -1.3710  1.8488 -0.9154
 8396TIP3   OH249382   0.444   5.773  13.000 -0.3033  0.1103 -0.4062
 8396TIP3    H149383   0.427   5.748  13.091  0.9772  0.0822 -0.1626
 8396TIP3    H249384   0.513   5.839  13.006 -1.2266  1.1982 -1.2709
 8397TIP3   OH249385   6.426   3.973  12.111 -0.3585  0.3183 -0.4942
 8397TIP3    H149386   6.344   4.017  12.090 -0.9683  0.6336  2.2305
 8397TIP3    H249387   6.483   4.043  12.143 -0.1538 -0.3507  0.6470
 8398TIP3   OH249388   3.735   2.387  10.748  0.4023 -0.1632 -0.0865
 8398TIP3    H149389   3.644   2.375  10.776  0.1338  0.6389 -0.5730
 8398TIP3    H249390   3.781   2.311  10.782 -0.1370  0.1804  1.5023
 8399TIP3   OH249391   5.031   2.234  13.095 -0.2281 -0.4294  0.0509
 8399TIP3    H149392   4.963   2.177  13.060  0.1949 -1.9112  1.5271
 8399TIP3    H249393   5.110   2.181  13.094  0.7100  0.9088 -0.6190
 8400TIP3   OH249394   4.775   7.585  10.690  0.0730  0.2573  0.2227
 8400TIP3    H149395   4.715   7.656  10.666  0.0230  0.2201  0.2370
 8400TIP3    H249396   4.767   7.522  10.619 -0.5820 -0.1678  0.6590
 8401TIP3   OH249397   3.255   0.168  10.404 -0.6149  0.4918 -0.1510
 8401TIP3    H149398   3.272   0.239  10.342 -0.1620  1.5796  1.1641
 8401TIP3    H249399   3.338   0.157  10.451 -0.6447 -1.0063 -0.4150
 8402TIP3   OH249400   1.786   5.201  12.225 -0.5787  0.0797 -0.3311
 8402TIP3    H149401   1.798   5.280  12.172 -0.6638  1.0337  1.0124
 8402TIP3    H249402   1.696   5.206  12.255 -0.1851  0.1934  0.8708
 8403TIP3   OH249403   7.582   5.457  12.044  0.5189 -0.3390  0.4385
 8403TIP3    H149404   7.574   5.374  12.090  1.4670 -0.4083  0.4922
 8403TIP3    H249405   7.541   5.441  11.958  0.6882 -0.8525  0.4516
 8404TIP3   OH249406   2.391   4.386  11.552 -0.3695 -0.0975 -0.1446
 8404TIP3    H149407   2.418   4.298  11.579  1.7497  0.5996  0.2062
 8404TIP3    H249408   2.364   4.377  11.461 -0.2149 -1.1120 -0.0963
 8405TIP3   OH249409   4.234   4.144  12.110  0.2230 -0.0457 -0.0673
 8405TIP3    H149410   4.181   4.212  12.068  0.1258  0.5704  1.0095
 8405TIP3    H249411   4.266   4.090  12.038 -1.1731  0.0744 -0.8114
 8406TIP3   OH249412   5.066   6.815  12.675 -0.0653 -0.1180 -0.3611
 8406TIP3    H149413   4.987   6.813  12.730  0.0860 -0.3254 -0.1497
 8406TIP3    H249414   5.092   6.724  12.667  0.3168 -0.0255 -0.1905
 8407TIP3   OH249415   1.600   6.639  11.909  0.6952  0.3326 -0.3245
 8407TIP3    H149416   1.607   6.734  11.923 -1.4788  0.6366 -0.9723
 8407TIP3    H249417   1.592   6.629  11.814 -1.2810 -0.2859 -0.1247
 8408TIP3   OH249418   1.823   0.237  11.746  0.6473 -0.1237  0.1276
 8408TIP3    H149419   1.783   0.150  11.749  3.0336 -1.2765  1.9199
 8408TIP3    H249420   1.871   0.239  11.664 -1.5357  0.6363 -1.2303
 8409TIP3   OH249421   0.366   2.555  10.439  0.2490  0.2667  0.4607
 8409TIP3    H149422   0.446   2.508  10.414 -1.0856 -1.3157 -1.0645
 8409TIP3    H249423   0.350   2.528  10.529  0.3924 -0.9335  0.1382
 8410TIP3   OH249424   2.214   5.937  11.963  0.4322  0.2972 -0.1295
 8410TIP3    H149425   2.218   5.844  11.942  2.4567  0.6797 -1.7677
 8410TIP3    H249426   2.281   5.949  12.031  0.9935  0.7286 -0.7520
 8411TIP3   OH249427   0.238   0.143  12.684 -0.7698 -0.1081 -0.1559
 8411TIP3    H149428   0.242   0.073  12.749 -1.8247  0.7300  0.8609
 8411TIP3    H249429   0.322   0.138  12.638 -0.1107 -0.9062  1.0697
 8412TIP3   OH249430   5.115   6.761  11.089 -0.1926 -0.1742  0.3303
 8412TIP3    H149431   5.181   6.780  11.155  0.4050 -0.2815 -0.2238
 8412TIP3    H249432   5.081   6.847  11.063 -0.4786 -0.1368  0.8200
 8413TIP3   OH249433   4.157   5.169  10.694 -0.4373  0.2025 -0.6581
 8413TIP3    H149434   4.149   5.092  10.637 -1.1631  0.1185 -0.4464
 8413TIP3    H249435   4.081   5.165  10.752 -0.5213  1.1212 -0.6877
 8414TIP3   OH249436   0.931   4.080  12.548  0.7516 -0.3189  0.5847
 8414TIP3    H149437   1.020   4.061  12.576  1.6242  3.1017  0.6448
 8414TIP3    H249438   0.918   4.172  12.572 -1.7452  0.1473 -2.0305
 8415TIP3   OH249439   3.260   3.319  11.042 -0.0495 -0.2869 -0.3339
 8415TIP3    H149440   3.190   3.262  11.008 -1.4565  1.3001 -0.2552
 8415TIP3    H249441   3.254   3.398  10.989 -0.1954  0.9899  1.4885
 8416TIP3   OH249442   7.390   2.305  10.730 -0.4508  0.1970  0.2461
 8416TIP3    H149443   7.314   2.251  10.751 -1.7120  0.7497 -2.4743
 8416TIP3    H249444   7.372   2.389  10.772 -0.9907  0.0836  0.2486
 8417TIP3   OH249445   3.587   6.058  11.897 -0.0378  0.1042 -0.2423
 8417TIP3    H149446   3.674   6.020  11.905 -0.5355 -1.1609 -0.6566
 8417TIP3    H249447   3.538   6.025  11.972 -0.6584 -0.6001 -0.9363
 8418TIP3   OH249448   2.121   0.530  11.690 -0.0373 -0.0555 -0.0100
 8418TIP3    H149449   2.206   0.572  11.678 -0.7905  0.9882 -2.4411
 8418TIP3    H249450   2.108   0.478  11.611 -1.8098  0.1586  0.0811
 8419TIP3   OH249451   4.038   4.202  12.733 -0.0304  0.4443  0.0589
 8419TIP3    H149452   4.068   4.276  12.786 -0.6568  0.5939  0.2204
 8419TIP3    H249453   3.942   4.208  12.737 -0.2195 -2.0666  2.5653
 8420TIP3   OH249454   6.436   3.899  13.192  0.0445  0.2975 -0.4346
 8420TIP3    H149455   6.412   3.990  13.209 -1.7600 -0.3556  0.7748
 8420TIP3    H249456   6.359   3.861  13.151  0.4999 -0.9010 -0.2068
 8421TIP3   OH249457   6.008   7.591  10.878 -0.2985  0.1354 -0.0204
 8421TIP3    H149458   6.069   7.521  10.854 -0.0560  0.5130 -0.5424
 8421TIP3    H249459   5.942   7.590  10.809  0.3385  1.1559 -0.6859
 8422TIP3   OH249460   4.508   4.318  12.743  0.0824  0.1520  0.1205
 8422TIP3    H149461   4.464   4.336  12.659 -1.9198  0.3090  1.1370
 8422TIP3    H249462   4.502   4.401  12.791  1.1939  0.0540  0.4594
 8423TIP3   OH249463   7.013   4.395  10.391 -0.0378  0.4060 -0.8872
 8423TIP3    H149464   6.922   4.390  10.363  0.3642 -1.2576 -2.0725
 8423TIP3    H249465   7.058   4.328  10.339  2.3442  2.7572 -2.0764
 8424TIP3   OH249466   5.492   4.337  12.704 -0.5195  0.4370 -0.7986
 8424TIP3    H149467   5.496   4.245  12.729  1.2762  0.5917 -0.4281
 8424TIP3    H249468   5.426   4.375  12.762 -0.5960 -0.4155 -0.3181
 8425TIP3   OH249469   4.973   3.728  12.235  0.4151 -0.0903 -0.1284
 8425TIP3    H149470   4.922   3.665  12.184  0.9169 -0.8247  0.2492
 8425TIP3    H249471   4.909   3.793  12.264  0.0888  0.2592 -1.5354
 8426TIP3   OH249472   6.523   4.231  10.510 -0.0732  0.1308  0.9293
 8426TIP3    H149473   6.559   4.213  10.597 -0.5948  0.8652  1.3120
 8426TIP3    H249474   6.428   4.231  10.522 -0.1530  0.2106  0.3510
 8427TIP3   OH249475   0.676   7.267  10.516  0.0968  0.1341  0.7316
 8427TIP3    H149476   0.669   7.356  10.481 -1.6078 -0.4949 -0.6547
 8427TIP3    H249477   0.593   7.252  10.561 -0.7826 -1.6158 -1.3010
 8428TIP3   OH249478   0.403   2.746  13.248 -0.3361  0.7314  0.1101
 8428TIP3    H149479   0.325   2.721  13.198  0.6671 -0.9011 -0.7476
 8428TIP3    H249480   0.401   2.689  13.325  0.6374 -0.2563 -0.5630
 8429TIP3   OH249481   4.433   2.446  12.047 -0.4781  0.1236 -0.0385
 8429TIP3    H149482   4.443   2.517  12.111  0.4814  2.4543 -2.5601
 8429TIP3    H249483   4.522   2.422  12.023 -0.6442  2.1019 -3.2211
 8430TIP3   OH249484   7.351   3.493  12.779 -0.0902 -0.3798 -0.0436
 8430TIP3    H149485   7.387   3.519  12.864  1.6652  0.2376 -0.9241
 8430TIP3    H249486   7.386   3.405  12.764  0.7923  0.0753 -0.7388
 8431TIP3   OH249487   1.899   3.488  12.773 -0.6308  0.5007  0.1901
 8431TIP3    H149488   1.819   3.446  12.804 -0.2790 -1.4294 -1.2987
 8431TIP3    H249489   1.943   3.421  12.721  1.3768  1.8896 -0.0416
 8432TIP3   OH249490   5.228   4.148  11.552 -0.1932  0.5503 -0.2939
 8432TIP3    H149491   5.140   4.112  11.563  0.1625 -0.4961 -0.7256
 8432TIP3    H249492   5.247   4.191  11.635 -1.7425  2.2406 -0.7491
 8433TIP3   OH249493   3.684   2.624  11.571 -0.5429 -0.5102 -0.5155
 8433TIP3    H149494   3.624   2.589  11.636 -1.1002  0.7058 -0.3402
 8433TIP3    H249495   3.660   2.579  11.490 -1.9298  0.1602 -0.5191
 8434TIP3   OH249496   0.878   0.464  11.912 -0.1031  0.4190 -0.7254
 8434TIP3    H149497   0.834   0.486  11.831 -0.4590 -0.5220 -0.7966
 8434TIP3    H249498   0.929   0.542  11.934 -0.3698  0.8439 -1.5995
 8435TIP3   OH249499   3.972   4.765  11.630  0.1723  0.2563  0.1121
 8435TIP3    H149500   3.933   4.786  11.545  1.4607 -0.5565 -0.7074
 8435TIP3    H249501   4.008   4.848  11.661  0.7668  0.3185 -0.7162
 8436TIP3   OH249502   7.446   7.316  11.855 -0.0942  0.3310 -0.3294
 8436TIP3    H149503   7.488   7.230  11.842 -0.7587 -0.1461  0.6014
 8436TIP3    H249504   7.455   7.333  11.949  1.0794  1.8481 -0.6799
 8437TIP3   OH249505   3.809   2.169  11.283  0.2739  0.6171  0.4067
 8437TIP3    H149506   3.870   2.159  11.356  1.3069  1.7762 -0.2608
 8437TIP3    H249507   3.723   2.166  11.324  0.8057  0.4073  1.5599
 8438TIP3   OH249508   3.985   4.641  12.515 -0.2477  0.4157  0.0612
 8438TIP3    H149509   3.935   4.685  12.583 -0.9643 -0.5625  0.1883
 8438TIP3    H249510   3.919   4.609  12.453  0.0545 -2.0006  0.8665
 8439TIP3   OH249511   5.434   3.281  12.303  0.6744  0.0005  0.0323
 8439TIP3    H149512   5.458   3.337  12.377  1.2982  1.0337 -0.9242
 8439TIP3    H249513   5.423   3.341  12.230  1.2241 -1.1139 -0.9930
 8440TIP3   OH249514   3.089   5.753  11.622  0.1110  0.7847  0.4240
 8440TIP3    H149515   3.099   5.743  11.716  1.3013  3.2270  0.6281
 8440TIP3    H249516   3.162   5.704  11.584 -0.3311 -0.1415  0.7278
 8441TIP3   OH249517   0.317   7.249  12.623  0.6080  0.2483  0.1525
 8441TIP3    H149518   0.248   7.243  12.688  0.3047 -0.2991 -0.2128
 8441TIP3    H249519   0.385   7.189  12.653  1.0274  0.9397  0.6206
 8442TIP3   OH249520   0.272   4.008  12.408  0.0824  0.3730  0.4681
 8442TIP3    H149521   0.302   4.061  12.482  1.2698 -1.4893  1.3808
 8442TIP3    H249522   0.190   4.050  12.381  1.6818  3.6266  0.0853
 8443TIP3   OH249523   4.460   4.089  12.261  0.4116  1.1518 -0.0355
 8443TIP3    H149524   4.368   4.109  12.247  0.2278  0.4795  0.1501
 8443TIP3    H249525   4.505   4.122  12.183  0.1863  2.5803  0.4203
 8444TIP3   OH249526   7.097   6.185  10.640 -0.3756  0.0418  0.1314
 8444TIP3    H149527   7.118   6.102  10.596  0.7589  1.6128 -2.5392
 8444TIP3    H249528   7.004   6.197  10.624 -0.8966 -1.3202  1.7885
 8445TIP3   OH249529   4.661   7.211  12.421 -0.0842  0.6410  0.2646
 8445TIP3    H149530   4.613   7.153  12.480 -0.8324  1.5396  0.5542
 8445TIP3    H249531   4.732   7.246  12.474  0.3684 -0.0041  0.0897
 8446TIP3   OH249532   6.287   2.072  12.332  0.1516 -1.0287  0.2656
 8446TIP3    H149533   6.316   1.981  12.324  0.5623 -0.8387 -0.5755
 8446TIP3    H249534   6.192   2.067  12.323  0.2366 -1.3068 -0.6307
 8447TIP3   OH249535   0.808   1.753  11.489 -0.4799  0.2517  0.1066
 8447TIP3    H149536   0.783   1.675  11.539 -0.6485  0.2945  0.0912
 8447TIP3    H249537   0.750   1.822  11.522 -1.0520  0.1258 -0.6052
 8448TIP3   OH249538   4.129   1.400  10.807  0.5156  0.4111 -0.0083
 8448TIP3    H149539   4.057   1.448  10.766 -0.7386 -1.0603  0.3705
 8448TIP3    H249540   4.086   1.337  10.865  2.1773  0.5240  1.3996
 8449TIP3   OH249541   2.913   0.702  11.696 -0.2623 -0.0984  0.2928
 8449TIP3    H149542   2.855   0.778  11.710 -0.8072 -0.5441  0.4885
 8449TIP3    H249543   2.863   0.628  11.729 -0.3737 -0.7759 -1.3029
 8450TIP3   OH249544   2.521   4.311  12.657  0.7943  0.2173  0.2547
 8450TIP3    H149545   2.516   4.407  12.651  1.0782  0.2841  1.0356
 8450TIP3    H249546   2.608   4.290  12.622  0.5725  0.2043 -0.3025
 8451TIP3   OH249547   5.642   4.160  10.909  0.1769  0.1451  1.0484
 8451TIP3    H149548   5.605   4.115  10.985  0.5503 -0.9770  0.5949
 8451TIP3    H249549   5.712   4.101  10.880  0.6721  1.0358  0.4200
 8452TIP3   OH249550   5.791   2.411  11.213  0.1339 -0.4966 -0.3508
 8452TIP3    H149551   5.863   2.472  11.228 -0.4900 -0.0826  1.1625
 8452TIP3    H249552   5.821   2.329  11.251  0.7309 -1.0050 -1.8505
 8453TIP3   OH249553   1.911   2.849  10.766 -0.1498 -0.6874 -0.1613
 8453TIP3    H149554   1.854   2.822  10.694 -1.5510 -1.1317  1.0865
 8453TIP3    H249555   1.947   2.934  10.737 -0.2672 -1.0993 -1.5879
 8454TIP3   OH249556   2.066   2.138  11.344  0.2041 -0.2547  0.0466
 8454TIP3    H149557   2.022   2.134  11.428  1.0402 -1.6771  0.4467
 8454TIP3    H249558   2.134   2.205  11.356 -0.4701  0.4352  0.0857
 8455TIP3   OH249559   7.284   5.019  12.068  0.4495  0.6745  0.1931
 8455TIP3    H149560   7.200   4.976  12.058 -0.6201  2.7105  0.0093
 8455TIP3    H249561   7.280   5.059  12.155  1.3446  0.5570  0.2994
 8456TIP3   OH249562   6.633   4.220  11.378 -0.5498  0.1931 -0.0761
 8456TIP3    H149563   6.685   4.300  11.391  0.6826 -0.8114  1.6514
 8456TIP3    H249564   6.552   4.235  11.427 -0.1404  0.2610  0.6020
 8457TIP3   OH249565   6.531   4.544  11.756 -0.1562 -0.1304 -0.0288
 8457TIP3    H149566   6.613   4.545  11.806 -0.7449  0.0575  0.9722
 8457TIP3    H249567   6.500   4.453  11.764 -0.9166  0.2113  1.0996
 8458TIP3   OH249568   4.398   4.377  10.955  0.0845  0.0839  0.0982
 8458TIP3    H149569   4.356   4.307  10.906 -0.7186  1.0321 -0.6195
 8458TIP3    H249570   4.357   4.457  10.922  0.3997  0.8413  1.4593
 8459TIP3   OH249571   2.277   5.239  11.144  0.3101  0.1675 -0.8661
 8459TIP3    H149572   2.287   5.305  11.074  0.1848 -0.2174 -1.2506
 8459TIP3    H249573   2.200   5.268  11.193  1.2782  1.2793  0.0493
 8460TIP3   OH249574   3.494   3.578  12.514  0.0424 -0.4168  0.2297
 8460TIP3    H149575   3.492   3.638  12.588 -0.9656 -0.5361  0.3122
 8460TIP3    H249576   3.568   3.519  12.532 -0.3742 -0.6380  1.2975
 8461TIP3   OH249577   5.183   6.468  11.170 -0.4258  0.4232  0.1208
 8461TIP3    H149578   5.215   6.501  11.254  0.9475 -2.1437  0.7129
 8461TIP3    H249579   5.092   6.446  11.185 -0.5763  1.2666  0.4989
 8462TIP3   OH249580   0.157   0.323  13.144  0.4312  0.1711 -0.3950
 8462TIP3    H149581   0.225   0.328  13.077  0.5076 -1.6475 -0.5208
 8462TIP3    H249582   0.188   0.255  13.204 -1.1467 -0.5630 -0.3503
 8463TIP3   OH249583   5.656   5.796  11.966  0.0528 -0.1806  0.3602
 8463TIP3    H149584   5.725   5.861  11.952 -1.2669  0.7634 -2.6733
 8463TIP3    H249585   5.702   5.712  11.959  1.1956  0.4225  0.3198
 8464TIP3   OH249586   3.272   2.323  12.171  0.9005 -0.2453 -0.4799
 8464TIP3    H149587   3.270   2.306  12.077  1.3549  0.6545 -0.6564
 8464TIP3    H249588   3.204   2.265  12.207 -0.4887  0.6670 -1.5603
 8465TIP3   OH249589   7.293   4.706  11.644  0.1582 -0.2404  0.4507
 8465TIP3    H149590   7.357   4.733  11.578 -0.6550 -0.4345 -0.4358
 8465TIP3    H249591   7.230   4.653  11.596 -0.3579 -0.5369  1.4268
 8466TIP3   OH249592   3.874   3.736  12.376 -0.0495 -0.7058  0.0811
 8466TIP3    H149593   3.864   3.648  12.413  1.4077 -1.6627 -1.6532
 8466TIP3    H249594   3.813   3.739  12.302  2.0591 -1.4799 -1.8098
 8467TIP3   OH249595   4.566   2.176  11.730 -0.1565 -0.4536 -0.1728
 8467TIP3    H149596   4.517   2.118  11.788  1.7163 -0.4765  1.5160
 8467TIP3    H249597   4.652   2.185  11.772  0.6178  1.1668 -1.9333
 8468TIP3   OH249598   7.467   2.202  13.212 -0.0966 -0.0723 -0.7519
 8468TIP3    H149599   7.474   2.185  13.118 -0.8273 -0.3643 -0.7612
 8468TIP3    H249600   7.373   2.208  13.229 -0.0658 -1.5355  0.2052
 8469TIP3   OH249601   7.260   2.984  12.595 -0.5034 -0.1296 -0.2787
 8469TIP3    H149602   7.204   2.959  12.521 -0.3967 -1.4082  0.0526
 8469TIP3    H249603   7.258   2.909  12.653 -0.0520  0.6035  0.7196
 8470TIP3   OH249604   6.785   7.575  12.086  0.1197  0.1423  1.1125
 8470TIP3    H149605   6.696   7.600  12.063  0.0287  0.5238  1.8282
 8470TIP3    H249606   6.776   7.499  12.143  0.2486  0.1583  1.1560
 8471TIP3   OH249607   5.306   4.634  12.632  0.0972  0.3445  0.4951
 8471TIP3    H149608   5.368   4.610  12.564  0.5841  0.6100  0.8422
 8471TIP3    H249609   5.288   4.552  12.679  1.8276  0.6183  1.7417
 8472TIP3   OH249610   5.041   6.371  11.988  0.5898 -0.3611 -0.5204
 8472TIP3    H149611   5.075   6.288  11.954  0.0405 -0.1749 -1.5825
 8472TIP3    H249612   5.104   6.437  11.957  0.9012 -0.3563  0.1222
 8473TIP3   OH249613   4.345   0.348  13.469 -0.2825 -0.6361 -0.2185
 8473TIP3    H149614   4.334   0.305  13.384 -0.3284  0.2810 -0.6915
 8473TIP3    H249615   4.271   0.317  13.521 -0.2803 -1.1691 -0.5280
 8474TIP3   OH249616   1.946   2.541  11.672 -0.1895 -0.2703 -0.4281
 8474TIP3    H149617   1.880   2.597  11.714  0.0322 -0.3350  0.0058
 8474TIP3    H249618   2.026   2.593  11.672 -0.2501 -0.1629 -1.0275
 8475TIP3   OH249619   5.221   4.891  12.663 -0.1390 -0.0111  0.1631
 8475TIP3    H149620   5.243   4.798  12.671  2.0046  0.0919 -2.8901
 8475TIP3    H249621   5.262   4.931  12.740  3.2107 -1.0392 -0.9157
 8476TIP3   OH249622   6.142   6.750  12.075  0.3459 -0.4039  0.1714
 8476TIP3    H149623   6.228   6.718  12.046  0.2416  0.7092 -1.5281
 8476TIP3    H249624   6.099   6.778  11.994 -0.9839  0.5909  1.1829
 8477TIP3   OH249625   1.890   6.962  11.636 -0.4083  0.0518  0.1403
 8477TIP3    H149626   1.944   7.009  11.573 -1.0030  1.7805  0.8534
 8477TIP3    H249627   1.807   6.948  11.592 -0.1195 -0.7124 -0.1965
 8478TIP3   OH249628   4.015   6.306  11.053  0.0554 -0.6051 -0.0252
 8478TIP3    H149629   3.971   6.221  11.050  1.0687 -1.1589  0.1313
 8478TIP3    H249630   4.057   6.308  11.139  3.0386 -1.5768 -1.3038
 8479TIP3   OH249631   1.757   4.887  11.746 -0.2712  0.1017 -0.9520
 8479TIP3    H149632   1.754   4.888  11.842  2.5704  1.3749 -0.7684
 8479TIP3    H249633   1.681   4.938  11.719 -1.0962 -0.2272  0.6296
 8480TIP3   OH249634   2.194   2.687  12.164 -0.0119 -0.3429  0.0793
 8480TIP3    H149635   2.120   2.748  12.161 -0.5334 -0.9660 -3.2997
 8480TIP3    H249636   2.160   2.610  12.209 -1.4228 -0.5433 -1.2466
 8481TIP3   OH249637   7.216   4.279  11.537  0.3284  0.0650 -0.8938
 8481TIP3    H149638   7.229   4.330  11.457  0.0350  0.4444 -0.7073
 8481TIP3    H249639   7.156   4.209  11.513 -0.5301  0.7504 -0.7835
 8482TIP3   OH249640   2.146   6.370  11.421 -0.0498  0.0727 -0.0662
 8482TIP3    H149641   2.196   6.365  11.503 -0.2303 -0.5561  0.0150
 8482TIP3    H249642   2.154   6.282  11.384  0.7624  0.5947 -1.1658
 8483TIP3   OH249643   4.616   0.078  12.493 -0.0265  0.3791 -0.1310
 8483TIP3    H149644   4.526   0.081  12.462  0.5919 -2.8295 -2.7171
 8483TIP3    H249645   4.640  -0.014  12.489  2.5784  0.7096  3.2060
 8484TIP3   OH249646   3.202   2.025  11.860 -0.1986 -0.5516  0.0024
 8484TIP3    H149647   3.186   2.039  11.954  0.7230 -3.5188  0.6893
 8484TIP3    H249648   3.283   2.072  11.843  0.2065 -0.8782  0.9661
 8485TIP3   OH249649   5.607   5.964  12.494  0.2606 -0.7943 -0.1138
 8485TIP3    H149650   5.530   5.910  12.480 -0.3654  0.2514 -0.8830
 8485TIP3    H249651   5.594   6.040  12.437  0.7740  0.4980  1.4094
 8486TIP3   OH249652   2.190   5.732  12.303 -0.2924  0.2909 -0.2801
 8486TIP3    H149653   2.118   5.671  12.281  0.1269 -1.0780  1.8406
 8486TIP3    H249654   2.146   5.806  12.345 -0.6224  0.4542 -0.8953
 8487TIP3   OH249655   1.598   3.980  11.072  0.0140 -0.2755  0.0242
 8487TIP3    H149656   1.618   4.056  11.126 -0.9542  0.1527 -0.1956
 8487TIP3    H249657   1.504   3.966  11.083 -0.2142 -0.1553 -1.5566
 8488TIP3   OH249658   5.826   1.489  10.776 -0.0301  0.3883 -0.2220
 8488TIP3    H149659   5.911   1.506  10.735 -0.6662  1.1027 -1.2939
 8488TIP3    H249660   5.847   1.438  10.854  1.3214 -0.1198 -0.8786
 8489TIP3   OH249661   6.644   3.578  10.796 -0.0085 -0.0177  0.2795
 8489TIP3    H149662   6.567   3.524  10.777 -0.5884  1.4512 -1.9746
 8489TIP3    H249663   6.712   3.544  10.738 -0.6039  2.0013 -1.7593
 8490TIP3   OH249664   2.842   1.105  10.684 -0.5008 -0.1713 -0.0981
 8490TIP3    H149665   2.938   1.100  10.689 -0.4310  1.1284  0.1341
 8490TIP3    H249666   2.825   1.193  10.651 -1.6202 -0.4713 -0.3399
 8491TIP3   OH249667   6.178   2.872  10.447  0.2333 -0.0127  0.3262
 8491TIP3    H149668   6.134   2.955  10.428  1.3077  0.1361 -1.9240
 8491TIP3    H249669   6.119   2.825  10.505 -0.4619  2.2571  1.5521
 8492TIP3   OH249670   4.099   4.819  11.050  0.3854  0.3949 -0.2160
 8492TIP3    H149671   4.029   4.812  10.984  0.0717  0.4076  0.1147
 8492TIP3    H249672   4.110   4.729  11.082 -1.8302  0.8449  2.1529
 8493TIP3   OH249673   6.597   0.149  12.310 -0.1555  0.2239 -0.0091
 8493TIP3    H149674   6.529   0.213  12.334 -1.2141 -0.4548 -1.1348
 8493TIP3    H249675   6.675   0.203  12.293 -1.1726  1.3010 -1.4903
 8494TIP3   OH249676   4.442   2.163  12.674 -0.5543 -0.0820 -0.1978
 8494TIP3    H149677   4.454   2.250  12.713  0.1530 -0.2496 -0.0206
 8494TIP3    H249678   4.349   2.143  12.687 -0.1656 -0.6001  2.4362
 8495TIP3   OH249679   7.595   5.227  11.064  0.2148 -0.9191  0.0753
 8495TIP3    H149680   7.648   5.194  11.136  0.6068  0.8671  0.6520
 8495TIP3    H249681   7.646   5.299  11.027 -1.4044  0.3426  0.1491
 8496TIP3   OH249682   6.738   3.588  11.699 -0.0652 -0.3578 -0.2901
 8496TIP3    H149683   6.821   3.632  11.714 -0.1754 -0.6069  1.1854
 8496TIP3    H249684   6.761   3.511  11.646  0.8612 -1.1017  1.1313
 8497TIP3   OH249685   1.841   0.770  11.879 -0.1317 -0.1036 -0.1154
 8497TIP3    H149686   1.840   0.680  11.845  0.8882  0.8396 -2.9305
 8497TIP3    H249687   1.748   0.792  11.890 -0.4359 -1.1100 -0.5191
 8498TIP3   OH249688   2.893   7.601  10.526  0.2786  0.1778  0.0743
 8498TIP3    H149689   2.809   7.565  10.556  0.2691  0.2407  0.1228
 8498TIP3    H249690   2.870   7.685  10.486 -0.0482 -1.0211 -2.4163
 8499TIP3   OH249691   6.226   4.049  12.535 -0.0254  0.1806  0.4618
 8499TIP3    H149692   6.202   3.996  12.460 -0.2005 -0.6454  1.0913
 8499TIP3    H249693   6.181   4.132  12.521  0.3538  0.2242 -0.5971
 8500TIP3   OH249694   3.146   1.203  11.529 -0.3397 -0.1752  0.1366
 8500TIP3    H149695   3.190   1.125  11.495  0.6489  0.3591  0.1484
 8500TIP3    H249696   3.169   1.273  11.467 -0.5615  0.2740  0.5511
 8501TIP3   OH249697   5.242   7.150  11.234  0.0371  0.3140 -0.9577
 8501TIP3    H149698   5.159   7.130  11.278  0.8540 -0.1599  0.4159
 8501TIP3    H249699   5.241   7.245  11.223 -0.3823  0.3880 -0.3317
 8502TIP3   OH249700   2.217   3.487  11.594  0.6781  0.2315  0.4435
 8502TIP3    H149701   2.154   3.519  11.659 -1.0144 -1.2951 -0.3620
 8502TIP3    H249702   2.288   3.451  11.647 -0.5804 -0.8233  1.5080
 8503TIP3   OH249703   1.743   5.620  10.948  0.1578 -0.3915 -0.8522
 8503TIP3    H149704   1.819   5.676  10.931 -0.1308  0.4376  0.4281
 8503TIP3    H249705   1.686   5.673  11.004 -0.5878 -1.6074 -0.4149
 8504TIP3   OH249706   4.088   0.787  10.503 -0.2092  0.6315 -0.0910
 8504TIP3    H149707   4.130   0.751  10.425  1.1822 -2.0198  1.7158
 8504TIP3    H249708   4.142   0.756  10.576 -1.7689  2.4987  1.9903
 8505TIP3   OH249709   1.670   5.311  11.138 -0.4686 -0.0143  0.2776
 8505TIP3    H149710   1.635   5.239  11.085 -0.9880 -0.5629  1.3209
 8505TIP3    H249711   1.751   5.335  11.095 -0.4634 -0.9967 -0.3011
 8506TIP3   OH249712   1.991   2.377  12.688 -0.0995 -0.2223  0.0049
 8506TIP3    H149713   1.995   2.314  12.760  1.3100 -0.7637 -0.5181
 8506TIP3    H249714   1.902   2.413  12.693 -0.3734 -1.0055  1.3563
 8507TIP3   OH249715   6.306   4.906  12.474  0.0972  0.3712  0.0342
 8507TIP3    H149716   6.345   4.918  12.561 -0.4157 -0.4172  0.3842
 8507TIP3    H249717   6.360   4.959  12.416 -0.0009  1.5197  0.9484
 8508TIP3   OH249718   3.003   7.143  11.771  0.1217  0.2942 -0.3218
 8508TIP3    H149719   2.976   7.133  11.680 -0.2955  1.6110 -0.3728
 8508TIP3    H249720   3.029   7.055  11.799 -0.7802 -0.3334 -1.3814
 8509TIP3   OH249721   0.911   3.070  10.701  0.0414  0.1543  0.3676
 8509TIP3    H149722   0.947   2.983  10.686 -0.2069  0.1511 -0.2530
 8509TIP3    H249723   0.849   3.058  10.773 -1.5731 -0.6470 -1.0712
 8510TIP3   OH249724   0.234   4.496  11.507  0.3135 -0.8095 -0.0688
 8510TIP3    H149725   0.163   4.468  11.449 -0.5021  0.5143  0.2525
 8510TIP3    H249726   0.204   4.472  11.595  0.4289 -0.5771  0.0351
 8511TIP3   OH249727   0.502   6.721  10.742  0.0888 -0.0045  0.4126
 8511TIP3    H149728   0.439   6.777  10.696 -0.4067  0.7048  1.8760
 8511TIP3    H249729   0.570   6.782  10.772  0.6331 -0.5189  0.2325
 8512TIP3   OH249730   6.267   3.638  12.578 -0.2709  0.1331  0.2095
 8512TIP3    H149731   6.332   3.605  12.516 -0.4934  0.3768 -0.1615
 8512TIP3    H249732   6.308   3.628  12.664  0.0534 -0.1830  0.0201
 8513TIP3   OH249733   0.528   5.947  12.127 -0.0545  0.1489 -0.1934
 8513TIP3    H149734   0.483   5.887  12.067 -1.1543 -0.3351  1.0625
 8513TIP3    H249735   0.456   5.992  12.172  0.7581  1.0049  0.2643
 8514TIP3   OH249736   2.155   1.533  11.260 -0.0880  0.1065  0.9514
 8514TIP3    H149737   2.191   1.505  11.175  0.9600  1.0201  1.0743
 8514TIP3    H249738   2.229   1.572  11.306 -1.0066  1.1334  1.6280
 8515TIP3   OH249739   2.792   5.998  12.154  0.0378  0.5801 -0.0394
 8515TIP3    H149740   2.769   5.910  12.182  1.8291 -0.1838 -0.8553
 8515TIP3    H249741   2.868   6.022  12.207 -0.7227  1.8736  0.5333
 8516TIP3   OH249742   3.846   7.121  12.704 -0.4229  0.1485  0.1415
 8516TIP3    H149743   3.807   7.061  12.768 -1.1829  0.7356  0.2532
 8516TIP3    H249744   3.774   7.143  12.645 -0.3674  1.5201  0.5492
 8517TIP3   OH249745   6.377   6.862  12.544 -0.4018  0.1913  0.1863
 8517TIP3    H149746   6.357   6.772  12.521  0.1667 -0.1942  1.1665
 8517TIP3    H249747   6.294   6.897  12.578 -0.1566 -0.5351  1.5650
 8518TIP3   OH249748   0.257   5.555  12.734 -0.0554 -0.4005  0.4944
 8518TIP3    H149749   0.208   5.532  12.813 -2.4103  2.2083 -0.0656
 8518TIP3    H249750   0.231   5.645  12.715  0.4866 -0.8858 -3.1760
 8519TIP3   OH249751   2.436   6.888  12.354  0.2166 -0.2578  0.3780
 8519TIP3    H149752   2.513   6.834  12.333  0.4915 -0.1315  1.0327
 8519TIP3    H249753   2.384   6.888  12.274  1.2166  0.1705 -0.2922
 8520TIP3   OH249754   2.413   3.511  13.150 -0.3012 -0.0468  0.1735
 8520TIP3    H149755   2.459   3.427  13.149 -0.9486 -0.4044  0.0722
 8520TIP3    H249756   2.325   3.490  13.119 -0.8071  0.4640  1.2256
 8521TIP3   OH249757   2.285   7.153  12.217 -0.4095 -0.1091 -0.2951
 8521TIP3    H149758   2.323   7.080  12.169 -1.8155 -0.3547 -1.0755
 8521TIP3    H249759   2.212   7.115  12.266 -0.4293  0.5623  0.2176
 8522TIP3   OH249760   7.015   5.717  13.902 -0.5594 -0.2624 -0.2644
 8522TIP3    H149761   6.928   5.710  13.864 -0.7011 -0.2969  0.0689
 8522TIP3    H249762   7.073   5.730  13.827 -0.9781  0.8633 -0.4108
 8523TIP3   OH249763   0.960   3.752  11.627 -0.3414  0.1257  0.4265
 8523TIP3    H149764   1.042   3.795  11.652  0.4650 -1.4091  0.5822
 8523TIP3    H249765   0.943   3.689  11.698 -1.0883 -0.3029 -0.1129
 8524TIP3   OH249766   3.016   6.782  12.861  0.5291  0.0966 -0.1368
 8524TIP3    H149767   3.000   6.754  12.951 -0.5971 -0.1101 -0.3892
 8524TIP3    H249768   2.941   6.837  12.838  1.1610  0.7499 -0.7108
 8525TIP3   OH249769   7.303   4.787  13.097 -0.0028  0.3759 -0.1003
 8525TIP3    H149770   7.379   4.844  13.114 -0.6275  0.6289  2.1178
 8525TIP3    H249771   7.231   4.830  13.143 -1.2580 -0.4600 -1.2323
 8526TIP3   OH249772   3.197   3.556  10.596 -0.3055 -0.0295  0.3819
 8526TIP3    H149773   3.222   3.566  10.688 -1.9930  0.8138  0.7945
 8526TIP3    H249774   3.142   3.633  10.578  0.9979  0.4875 -1.7085
 8527TIP3   OH249775   5.115   5.724  10.500 -0.7041  0.0325 -0.6304
 8527TIP3    H149776   5.079   5.812  10.511  1.2226  0.7907  0.0132
 8527TIP3    H249777   5.209   5.738  10.490  0.0542 -2.1044  2.2904
 8528TIP3   OH249778   7.076   6.012  12.354 -0.0712  0.4877  0.1322
 8528TIP3    H149779   7.123   6.053  12.281 -0.5951  0.5354 -0.1833
 8528TIP3    H249780   7.138   5.948  12.389  0.8338  1.6594  0.7565
 8529TIP3   OH249781   6.815   6.635  12.230  0.0297  0.2585  0.2076
 8529TIP3    H149782   6.830   6.560  12.287 -1.3962  0.6293  1.1465
 8529TIP3    H249783   6.902   6.665  12.205  0.7183  0.0211  2.1323
 8530TIP3   OH249784   4.849   4.014  12.743  1.1043  0.4759  0.1067
 8530TIP3    H149785   4.815   4.063  12.818 -1.0796  0.7347 -0.9580
 8530TIP3    H249786   4.812   4.059  12.667  2.1008 -0.6199 -1.0733
 8531TIP3   OH249787   2.800   6.648  10.932  0.1400 -0.2767 -0.5633
 8531TIP3    H149788   2.811   6.641  10.837 -1.8816 -0.9461 -0.8040
 8531TIP3    H249789   2.888   6.632  10.968  1.4281  2.1505 -2.3445
 8532TIP3   OH249790   1.039   0.943  12.034  0.1378  0.2012 -0.1037
 8532TIP3    H149791   0.991   0.979  12.108 -0.8451 -0.0914 -0.5777
 8532TIP3    H249792   1.076   1.019  11.989  1.5994  0.3249  1.2209
 8533TIP3   OH249793   3.901   3.244  11.878 -0.2519 -0.4185  0.8313
 8533TIP3    H149794   3.868   3.204  11.959  0.3095 -0.9965  0.7783
 8533TIP3    H249795   3.934   3.171  11.827 -1.2500 -0.1389 -0.2460
 8534TIP3   OH249796   6.754   4.317  10.340 -0.1761 -0.1379 -0.0932
 8534TIP3    H149797   6.665   4.336  10.312 -0.0620  1.2122  0.3948
 8534TIP3    H249798   6.746   4.237  10.392 -1.3487  0.7912  1.2162
 8535TIP3   OH249799   5.918   2.357  12.792  0.8099 -0.0052 -0.5077
 8535TIP3    H149800   5.983   2.422  12.821  0.8794 -1.1007  2.1256
 8535TIP3    H249801   5.871   2.399  12.721  2.0970  2.1950 -0.1388
 8536TIP3   OH249802   5.526   2.884  11.225  0.0172 -0.1808  0.0711
 8536TIP3    H149803   5.514   2.790  11.218  1.8873 -0.5309  1.0099
 8536TIP3    H249804   5.605   2.902  11.173  1.1048  0.4619  1.8593
 8537TIP3   OH249805   3.803   6.400  11.348 -0.0009 -0.1963 -0.9346
 8537TIP3    H149806   3.775   6.402  11.257 -0.0847 -2.6168 -1.0241
 8537TIP3    H249807   3.897   6.385  11.345  0.6334  2.9433 -0.5696
 8538TIP3   OH249808   6.237   2.566  12.462 -0.0648  0.4394  0.0041
 8538TIP3    H149809   6.186   2.487  12.443  2.3410 -1.2940  0.1925
 8538TIP3    H249810   6.176   2.638  12.448 -1.6458 -1.2663 -2.9889
 8539TIP3   OH249811   6.385   4.660  12.629  0.4521  0.3602 -0.0372
 8539TIP3    H149812   6.475   4.639  12.608  0.2145 -1.4277  0.5554
 8539TIP3    H249813   6.389   4.698  12.717  0.6657  0.7429 -0.2098
 8540TIP3   OH249814   2.708   2.199  11.114 -0.2256  0.2774 -0.1053
 8540TIP3    H149815   2.706   2.146  11.034  1.2548  0.5614 -0.3470
 8540TIP3    H249816   2.627   2.249  11.110 -0.8429 -0.7161 -0.7248
 8541TIP3   OH249817   2.782   3.814  11.286 -0.4176 -0.2139 -0.9193
 8541TIP3    H149818   2.855   3.802  11.225  2.2206 -0.0850  1.9579
 8541TIP3    H249819   2.743   3.897  11.261  1.4267  0.4858 -1.6538
 8542TIP3   OH249820   0.985   5.492  10.865  0.2609 -0.0157 -0.0082
 8542TIP3    H149821   0.912   5.447  10.821 -1.0930  0.4384  1.6786
 8542TIP3    H249822   0.946   5.571  10.901  1.5233  0.0662  1.2436
 8543TIP3   OH249823   4.060   2.733  10.560 -0.2178  0.2690  1.0135
 8543TIP3    H149824   3.967   2.712  10.566  0.2552 -1.6599  2.3014
 8543TIP3    H249825   4.062   2.829  10.552 -2.3059  0.3138  0.3489
 8544TIP3   OH249826   2.345   3.720  12.184 -0.0619  0.0122 -0.4156
 8544TIP3    H149827   2.346   3.761  12.097  1.1737  0.1949 -0.3254
 8544TIP3    H249828   2.274   3.655  12.178  0.1612 -0.1478 -1.6440
 8545TIP3   OH249829   0.023   2.459  10.368  0.3089  0.3022  0.1494
 8545TIP3    H149830  -0.004   2.442  10.458 -1.4616 -0.1798 -0.4282
 8545TIP3    H249831   0.118   2.458  10.370  0.3065  1.0155  2.1427
 8546TIP3   OH249832   2.041   5.782  12.898  0.6704  0.0946 -0.0493
 8546TIP3    H149833   2.097   5.724  12.951  0.2275 -1.5737 -1.3030
 8546TIP3    H249834   2.027   5.733  12.817  0.7758  2.2807 -1.4505
 8547TIP3   OH249835   1.329   3.670  11.595 -0.3651 -0.3893 -0.3404
 8547TIP3    H149836   1.261   3.621  11.548 -0.4746 -3.0528  2.2868
 8547TIP3    H249837   1.411   3.627  11.570 -0.3132 -1.0575  0.9021
 8548TIP3   OH249838   1.263   6.048  10.726  0.2160 -0.1546  0.3076
 8548TIP3    H149839   1.312   5.966  10.729  0.3049 -0.0789  1.2672
 8548TIP3    H249840   1.326   6.114  10.755 -0.4451 -0.0520  1.5365
 8549TIP3   OH249841   5.750   1.132  12.891  0.4265  1.0398 -0.3040
 8549TIP3    H149842   5.787   1.172  12.970  0.6760  0.1976  0.0160
 8549TIP3    H249843   5.677   1.190  12.867  0.7457  1.6582  0.1656
 8550TIP3   OH249844   6.206   4.967  18.271  0.6798 -0.3783  0.3153
 8550TIP3    H149845   6.235   4.956  18.180  1.0915 -3.3486  0.7364
 8550TIP3    H249846   6.283   4.997  18.318  0.6577  0.4344 -0.1383
 8551TIP3   OH249847   6.118   5.696  11.021 -0.4439  0.1710 -0.1968
 8551TIP3    H149848   6.088   5.621  11.074 -0.3522 -0.5378 -1.1179
 8551TIP3    H249849   6.155   5.757  11.084  0.5787 -1.0927  0.4588
 8552TIP3   OH249850   4.836   3.273  11.463 -0.5760  0.2103  0.1637
 8552TIP3    H149851   4.879   3.226  11.392  1.9373  0.0288  1.6872
 8552TIP3    H249852   4.852   3.366  11.444 -1.7812  0.2944 -0.5706
 8553TIP3   OH249853   5.445   2.777  10.793  0.2290 -0.1488 -0.1070
 8553TIP3    H149854   5.399   2.715  10.850  1.4049 -0.3883  0.6227
 8553TIP3    H249855   5.482   2.723  10.724  2.0409 -0.4782  1.0275
 8554TIP3   OH249856   6.371   6.476  10.873 -0.2120 -0.7060  0.1692
 8554TIP3    H149857   6.415   6.508  10.952 -0.7133 -0.6950  0.4462
 8554TIP3    H249858   6.344   6.387  10.895 -0.5169 -0.6362  0.0698
 8555TIP3   OH249859   3.269   0.020  11.502 -0.3633  0.3844  0.3095
 8555TIP3    H149860   3.281   0.099  11.555 -2.9337 -0.3573  2.1504
 8555TIP3    H249861   3.221   0.050  11.425  0.4316  0.8996 -0.0060
 8556TIP3   OH249862   1.983   0.859  11.292 -0.0805 -0.1331 -0.0988
 8556TIP3    H149863   2.022   0.829  11.210 -0.0678  0.3509 -0.2778
 8556TIP3    H249864   2.052   0.913  11.332  0.2067 -1.0174  0.6199
 8557TIP3   OH249865   3.404   5.837  12.726  0.0956  0.6800  0.4498
 8557TIP3    H149866   3.443   5.864  12.809  0.7274  0.3993  0.2519
 8557TIP3    H249867   3.473   5.786  12.682 -1.0038 -1.2124  0.7840
 8558TIP3   OH249868   1.071   4.839  11.429  0.5628 -0.3768 -0.1582
 8558TIP3    H149869   1.027   4.831  11.514 -0.3022 -0.4393 -0.5922
 8558TIP3    H249870   1.146   4.780  11.435 -0.8061 -2.2580 -0.2351
 8559TIP3   OH249871   4.114   2.952  12.916  0.5130  0.3810  0.1739
 8559TIP3    H149872   4.105   2.890  12.988 -0.0240  1.5611  1.1557
 8559TIP3    H249873   4.091   2.902  12.838  2.6354 -1.3705  0.5682
 8560TIP3   OH249874   3.714   7.637  12.676 -0.4405 -0.1812  0.5703
 8560TIP3    H149875   3.740   7.716  12.723 -0.1238  1.4600 -2.1333
 8560TIP3    H249876   3.624   7.620  12.705 -1.2467  2.3762 -0.1753
 8561TIP3   OH249877   3.548   1.038  12.357 -0.1085 -0.4023 -0.2003
 8561TIP3    H149878   3.502   0.954  12.354 -0.2950 -0.3277  0.3329
 8561TIP3    H249879   3.628   1.024  12.307 -0.7113 -0.5351 -1.1332
 8562TIP3   OH249880   5.983   5.073  18.777  0.7376  0.8552  0.1613
 8562TIP3    H149881   6.040   5.019  18.723  0.6157  0.7374  0.1502
 8562TIP3    H249882   5.962   5.148  18.722  0.3842  0.5957 -0.0578
 8563TIP3   OH249883   2.396   5.916  12.685 -0.3209  0.3132 -0.3824
 8563TIP3    H149884   2.486   5.928  12.654 -0.5256  1.0671 -0.7362
 8563TIP3    H249885   2.375   5.999  12.729 -0.3967 -0.3517  0.8897
 8564TIP3   OH249886   7.673   2.295  10.960  0.0347 -0.2314 -0.5645
 8564TIP3    H149887   7.579   2.304  10.972 -0.2720 -1.9091 -1.4430
 8564TIP3    H249888   7.706   2.385  10.958 -1.8009  0.4698 -2.0262
 8565TIP3   OH249889   7.658   0.675  10.461  0.6954 -0.1518 -0.2756
 8565TIP3    H149890   7.585   0.654  10.402  0.5354 -2.6935  0.7217
 8565TIP3    H249891   7.736   0.669  10.406  0.2874  2.0369 -1.2186
 8566TIP3   OH249892   5.460   4.377  11.052 -0.4090  0.2885  0.6077
 8566TIP3    H149893   5.505   4.298  11.023  1.0795  0.3059  2.6477
 8566TIP3    H249894   5.370   4.348  11.070  0.2741 -1.1505  1.9506
 8567TIP3   OH249895   4.935   2.385  11.172  0.4259  0.3756  0.2892
 8567TIP3    H149896   4.858   2.360  11.222  0.2680 -0.7707 -0.4813
 8567TIP3    H249897   4.987   2.304  11.166  0.8484  0.7051 -0.6496
 8568TIP3   OH249898   3.371   6.076  10.884 -0.6458  0.0500 -0.0118
 8568TIP3    H149899   3.383   6.067  10.978 -0.4882 -0.3421 -0.0651
 8568TIP3    H249900   3.353   5.986  10.854 -0.8684  0.1979 -0.3279
 8569TIP3   OH249901   2.218   0.696  12.447  0.3332  0.6197 -0.4158
 8569TIP3    H149902   2.288   0.755  12.419  1.3209 -0.6023 -0.6017
 8569TIP3    H249903   2.250   0.658  12.529 -0.0625 -0.0112 -0.5441
 8570TIP3   OH249904   5.131   6.965  12.145  0.0198  0.1724 -0.7201
 8570TIP3    H149905   5.225   6.950  12.143  0.0848  0.6141 -1.1861
 8570TIP3    H249906   5.113   6.994  12.234  0.4797  1.0091 -0.8867
 8571TIP3   OH249907   4.351   2.365  11.614  0.2016 -0.0872  0.1523
 8571TIP3    H149908   4.405   2.304  11.664  0.1730 -0.6864 -0.5357
 8571TIP3    H249909   4.264   2.357  11.652  0.1372 -0.6842 -0.1031
 8572TIP3   OH249910   6.498   3.074  13.185 -0.2400  0.1320 -0.0699
 8572TIP3    H149911   6.582   3.029  13.194 -0.1153  0.0990 -1.2311
 8572TIP3    H249912   6.433   3.005  13.194 -0.0553 -0.2953 -1.6743
 8573TIP3   OH249913   5.635   2.039  12.766  0.2345 -0.0334 -0.3096
 8573TIP3    H149914   5.576   2.093  12.817 -1.5173 -1.8386 -0.3117
 8573TIP3    H249915   5.636   1.954  12.811  1.6280 -0.5298 -1.1808
 8574TIP3   OH249916   0.474   0.694  12.725  0.1801  0.5342 -0.6580
 8574TIP3    H149917   0.389   0.662  12.755 -0.1389  0.8729 -1.1819
 8574TIP3    H249918   0.538   0.646  12.777 -0.2182 -1.9708 -2.3365
 8575TIP3   OH249919   0.851   4.506  13.478  1.0374  0.1210  0.3749
 8575TIP3    H149920   0.920   4.477  13.418  1.0124 -0.7511  0.7477
 8575TIP3    H249921   0.820   4.425  13.520 -0.1778  0.5111  0.2599
 8576TIP3   OH249922   3.497   2.063  10.831  0.3291 -0.3818 -0.3127
 8576TIP3    H149923   3.485   2.025  10.918 -0.2992  0.3524 -0.0639
 8576TIP3    H249924   3.590   2.054  10.813  0.5016 -0.3446  0.5358
 8577TIP3   OH249925   5.628   1.797  10.823  0.7017 -0.0503  0.6051
 8577TIP3    H149926   5.619   1.728  10.758 -0.8892  0.5387  0.1580
 8577TIP3    H249927   5.541   1.806  10.861  1.2206  0.7432  1.6687
 8578TIP3   OH249928   3.313   1.382  12.031 -0.1550 -0.0800 -0.3286
 8578TIP3    H149929   3.281   1.400  11.943  1.9830 -2.2047 -1.6546
 8578TIP3    H249930   3.260   1.307  12.061 -0.0276 -0.1694 -0.3271
 8579TIP3   OH249931   0.345   1.904  10.855 -0.6177  0.0902 -0.1432
 8579TIP3    H149932   0.282   1.918  10.926 -0.8571 -0.4296 -0.2494
 8579TIP3    H249933   0.317   1.823  10.813  0.7872 -0.7678  0.5140
 8580TIP3   OH249934   4.416   5.051  10.785  0.2878  0.0653  0.7327
 8580TIP3    H149935   4.341   5.094  10.745 -0.7454 -1.9376  0.3574
 8580TIP3    H249936   4.393   5.044  10.878 -1.1817 -2.6123  0.2775
 8581TIP3   OH249937   0.772   1.140  10.938  0.1223 -0.7537 -0.3986
 8581TIP3    H149938   0.853   1.089  10.948  0.5691 -0.4217 -2.0184
 8581TIP3    H249939   0.727   1.099  10.864  0.8309  1.5569 -2.2255
 8582TIP3   OH249940   6.280   7.136  13.122  0.1469 -0.1209 -0.1175
 8582TIP3    H149941   6.193   7.101  13.104 -0.5169  0.9089  0.9666
 8582TIP3    H249942   6.265   7.206  13.186  1.4711  1.6689 -1.6512
 8583TIP3   OH249943   5.880   3.637  11.956 -0.0489  0.2040 -0.3445
 8583TIP3    H149944   5.952   3.613  11.899  0.1703  1.5595 -0.6665
 8583TIP3    H249945   5.817   3.565  11.946  1.0469 -0.7863 -0.3739
 8584TIP3   OH249946   5.376   5.795  10.439 -0.6408 -0.1191 -0.1518
 8584TIP3    H149947   5.423   5.870  10.401 -1.3459  0.0311 -0.7551
 8584TIP3    H249948   5.382   5.809  10.533 -0.2156  0.3543 -0.2401
 8585TIP3   OH249949   0.715   4.684  12.678  0.0343  0.0170 -0.0261
 8585TIP3    H149950   0.789   4.673  12.738 -0.4906 -0.5462  0.5293
 8585TIP3    H249951   0.752   4.730  12.603  0.2436  3.0500  1.7390
 8586TIP3   OH249952   4.820   6.165  11.046  0.4265  0.2652  0.0437
 8586TIP3    H149953   4.871   6.196  10.972  0.1609 -1.8650 -1.1309
 8586TIP3    H249954   4.734   6.207  11.035 -0.0178 -0.9603 -1.6489
 8587TIP3   OH249955   4.658   4.068  11.387 -0.1982 -0.9865 -0.8242
 8587TIP3    H149956   4.682   4.142  11.443  0.6439 -1.4261 -0.5907
 8587TIP3    H249957   4.605   4.107  11.317 -0.8639 -0.3623  0.0103
 8588TIP3   OH249958   6.843   1.605  11.275 -0.2405  0.3489 -0.0774
 8588TIP3    H149959   6.753   1.612  11.243  0.3297  1.1946 -1.5708
 8588TIP3    H249960   6.847   1.518  11.314 -1.3527 -0.2183 -1.1381
 8589TIP3   OH249961   7.270   4.894  12.513  0.0698  0.3669  0.1953
 8589TIP3    H149962   7.325   4.823  12.481 -1.6644 -0.0470 -2.1356
 8589TIP3    H249963   7.311   4.974  12.480  0.8448  0.2976  0.9748
 8590TIP3   OH249964   1.526   2.316  12.389  0.4414  0.2810 -0.6598
 8590TIP3    H149965   1.442   2.329  12.346 -1.6339  1.4541  3.2605
 8590TIP3    H249966   1.525   2.225  12.417 -0.0727  0.5758  0.3221
 8591TIP3   OH249967   4.364   6.852  12.743 -0.4492 -0.3469 -0.0485
 8591TIP3    H149968   4.301   6.812  12.683  1.8090 -0.8620 -2.2570
 8591TIP3    H249969   4.435   6.789  12.749  0.8116  1.0742  0.6669
 8592TIP3   OH249970   5.232   6.825  12.432  0.0695 -0.1576 -0.4789
 8592TIP3    H149971   5.178   6.826  12.511 -0.4713 -1.0039 -0.8172
 8592TIP3    H249972   5.291   6.899  12.442  0.3090 -0.5058  0.9261
 8593TIP3   OH249973   2.783   2.731  12.432  0.4704  0.2199 -0.2330
 8593TIP3    H149974   2.707   2.700  12.383  0.6470  0.6154 -0.7709
 8593TIP3    H249975   2.745   2.776  12.507  0.2178 -2.7448  1.5609
 8594TIP3   OH249976   7.625   4.148  12.342 -0.0220 -0.5579  0.3090
 8594TIP3    H149977   7.646   4.139  12.435 -0.3273 -0.3103  0.4043
 8594TIP3    H249978   7.684   4.216  12.311 -0.2638 -0.2837  0.4406
 8595TIP3   OH249979   1.188   3.886  11.676  0.6916 -0.7886 -0.0886
 8595TIP3    H149980   1.225   3.961  11.630  0.3519 -0.0170  0.8529
 8595TIP3    H249981   1.247   3.813  11.655  1.2453 -0.1768 -0.7054
 8596TIP3   OH249982   6.789   3.456  12.051  0.2581 -0.2327  0.4115
 8596TIP3    H149983   6.724   3.526  12.059 -0.5994 -0.8637 -0.8057
 8596TIP3    H249984   6.834   3.456  12.136 -0.1822  1.3258  0.6849
 8597TIP3   OH249985   7.212   1.005  11.593 -0.2690  0.3056  0.0883
 8597TIP3    H149986   7.257   0.930  11.555  2.1610  0.3780  2.4638
 8597TIP3    H249987   7.193   0.977  11.683  0.0634  2.2390  0.8010
 8598TIP3   OH249988   1.995   3.258  12.601 -0.2159  0.2850 -0.9498
 8598TIP3    H149989   1.927   3.192  12.614  0.2696  0.0182  0.3741
 8598TIP3    H249990   2.075   3.217  12.635  0.3476  1.0865 -1.2783
 8599TIP3   OH249991   5.259   2.870  10.535  0.3645 -0.0179  0.2606
 8599TIP3    H149992   5.185   2.810  10.548  0.1791 -0.4048 -2.0857
 8599TIP3    H249993   5.336   2.813  10.536  0.2348 -0.2793 -1.3933
 8600TIP3   OH249994   5.034   0.551  10.671 -0.6103  0.1406 -0.0212
 8600TIP3    H149995   5.059   0.472  10.623  0.4393  1.6031 -2.0509
 8600TIP3    H249996   5.017   0.521  10.760 -0.1758 -2.3424 -0.7006
 8601TIP3   OH249997   7.044   1.199  11.025 -0.7000  0.6391  0.0711
 8601TIP3    H149998   7.087   1.259  11.086  0.0426  1.9527 -1.6557
 8601TIP3    H249999   6.992   1.255  10.968  0.0399 -0.3303 -1.6200
 8602TIP3   OH250000   0.555   2.387  11.548 -0.0918  0.2775  0.2294
 8602TIP3    H150001   0.597   2.439  11.479 -0.5534  0.8511  0.3744
 8602TIP3    H250002   0.594   2.300  11.539  2.7991  1.2492  1.7076
 8603TIP3   OH250003   2.357   3.934  12.366  0.6282 -0.7397  0.4766
 8603TIP3    H150004   2.292   3.919  12.435  0.6562  1.0423  0.9490
 8603TIP3    H250005   2.354   3.856  12.312 -0.3298 -1.6286  1.7629
 8604TIP3   OH250006   0.333   1.305  10.962 -0.5555 -0.4586 -0.3412
 8604TIP3    H150007   0.383   1.387  10.961  0.2125 -0.9162 -0.3572
 8604TIP3    H250008   0.382   1.248  11.022 -0.1731 -1.4522 -1.5572
 8605TIP3   OH250009   4.011   3.539  11.060 -0.4409 -0.1540 -0.0607
 8605TIP3    H150010   4.047   3.519  10.973  0.4831  0.5681  0.1357
 8605TIP3    H250011   4.012   3.635  11.065 -1.5791 -0.1469  0.3127
 8606TIP3   OH250012   0.838   6.342  10.773  0.1666 -0.0418  0.3112
 8606TIP3    H150013   0.869   6.340  10.682  0.8706 -0.1681  0.5443
 8606TIP3    H250014   0.824   6.435  10.792 -0.5349 -0.0639 -0.1088
 8607TIP3   OH250015   4.907   1.866  10.604 -0.4834 -0.2686 -0.3000
 8607TIP3    H150016   4.988   1.855  10.654  0.0430  0.0802 -1.0489
 8607TIP3    H250017   4.888   1.778  10.571 -0.3034 -0.3173 -0.2766
 8608TIP3   OH250018   3.815   3.831  12.921 -0.4503  0.2045 -0.0642
 8608TIP3    H150019   3.782   3.912  12.883  0.2565  0.7945  0.5695
 8608TIP3    H250020   3.738   3.774  12.925 -0.3571 -0.3741 -3.5391
 8609TIP3   OH250021   0.081   0.922  10.906 -0.4024 -0.0203  0.3234
 8609TIP3    H150022   0.083   0.865  10.982 -0.3292 -0.0629  0.2882
 8609TIP3    H250023  -0.012   0.946  10.897 -0.4094 -0.0056  0.4318
 8610TIP3   OH250024   1.986   2.888  13.190 -0.6596  0.0023  0.0787
 8610TIP3    H150025   1.962   2.795  13.195 -0.6358 -0.0578 -0.7407
 8610TIP3    H250026   2.063   2.890  13.133 -1.3424  0.6223 -0.8677
 8611TIP3   OH250027   1.902   6.747  13.315 -0.1373 -0.9244 -0.0244
 8611TIP3    H150028   1.854   6.734  13.234 -1.4688 -1.0413  0.7551
 8611TIP3    H250029   1.834   6.760  13.382  0.9402  0.3036  0.8814
 8612TIP3   OH250030   3.038   3.502  11.644 -0.7357 -0.0375 -0.4880
 8612TIP3    H150031   3.118   3.475  11.599  0.0793  0.2121  0.7501
 8612TIP3    H250032   3.024   3.592  11.615  1.1490  1.0002  1.4417
 8613TIP3   OH250033   6.455   3.944  12.391  1.1823 -0.3731 -0.0746
 8613TIP3    H150034   6.383   3.999  12.423  0.6267 -1.0049 -0.2137
 8613TIP3    H250035   6.433   3.928  12.299  0.8115 -1.6295  0.2112
 8614TIP3   OH250036   2.354   1.822  12.923  0.6134  0.2703 -0.0530
 8614TIP3    H150037   2.259   1.826  12.930  0.5872 -0.7706  0.3601
 8614TIP3    H250038   2.381   1.759  12.990  1.9033  2.9050  2.0589
 8615TIP3   OH250039   6.381   0.698  11.103 -0.0177  0.2828  0.0786
 8615TIP3    H150040   6.437   0.625  11.077  0.4622  0.7719 -0.2925
 8615TIP3    H250041   6.442   0.766  11.132 -0.3690  1.0853 -0.9900
 8616TIP3   OH250042   7.208   5.675  13.191 -0.3336 -0.0602  0.0857
 8616TIP3    H150043   7.231   5.749  13.134  1.3716  0.2901  1.1251
 8616TIP3    H250044   7.225   5.708  13.279 -3.0511 -0.5416  0.8557
 8617TIP3   OH250045   7.255   6.671  11.587 -0.6432 -0.4665 -1.0686
 8617TIP3    H150046   7.333   6.619  11.607  0.4513  0.5380 -2.4947
 8617TIP3    H250047   7.275   6.714  11.504 -3.1368 -0.9486 -2.0210
 8618TIP3   OH250048   1.959   4.026  13.140  0.1760 -0.6818 -0.4314
 8618TIP3    H150049   1.927   3.954  13.086  0.4896 -0.9072 -0.3234
 8618TIP3    H250050   1.880   4.067  13.175 -0.0412 -0.3250 -1.3233
 8619TIP3   OH250051   0.962   1.954  10.937 -0.3836 -0.1346 -1.2834
 8619TIP3    H150052   0.954   2.027  10.876  0.6216 -0.5105 -1.8884
 8619TIP3    H250053   1.051   1.960  10.970 -1.4391  1.1952  1.6476
 8620TIP3   OH250054   7.445   1.870  10.758 -0.4221 -0.3123  0.8968
 8620TIP3    H150055   7.474   1.943  10.703 -0.4877 -0.2395  0.9592
 8620TIP3    H250056   7.494   1.794  10.725 -2.5929 -0.9098 -1.2140
 8621TIP3   OH250057   1.708   7.009  12.300 -0.5073 -0.2691 -0.0564
 8621TIP3    H150058   1.673   6.920  12.299  1.3408 -1.0530 -1.3940
 8621TIP3    H250059   1.778   7.007  12.366 -0.8939  0.4045  0.3910
 8622TIP3   OH250060   3.730   7.262  11.861 -0.1962  0.2147 -0.1625
 8622TIP3    H150061   3.734   7.313  11.941 -0.5314  0.6837 -0.4405
 8622TIP3    H250062   3.821   7.257  11.831  0.3729 -2.2985  1.6649
 8623TIP3   OH250063   0.181   6.901  13.095 -0.4722  0.3032  0.2072
 8623TIP3    H150064   0.132   6.983  13.091  1.7792  1.6958 -0.6697
 8623TIP3    H250065   0.262   6.924  13.141  0.6804 -1.1365 -0.9982
 8624TIP3   OH250066   4.233   7.375  11.974 -0.3396  0.6051 -0.4985
 8624TIP3    H150067   4.225   7.309  12.042 -3.5892  1.2545 -0.0832
 8624TIP3    H250068   4.305   7.345  11.919  2.3724  0.0098  3.0421
 8625TIP3   OH250069   0.570   4.654  11.959 -0.4424  0.5513  0.1552
 8625TIP3    H150070   0.583   4.565  11.993 -1.4445 -0.6109 -2.2815
 8625TIP3    H250071   0.563   4.708  12.038  1.7346 -1.2345  1.7229
 8626TIP3   OH250072   4.179   2.084  12.738 -0.0269  0.5069 -0.2096
 8626TIP3    H150073   4.155   2.093  12.830  2.3834 -1.7102  0.7517
 8626TIP3    H250074   4.146   1.997  12.714 -0.7315  1.1040 -1.5387
 8627TIP3   OH250075   5.331   0.793  11.444  0.3529  0.3949 -0.3221
 8627TIP3    H150076   5.321   0.716  11.501 -0.6737 -0.8221 -2.0562
 8627TIP3    H250077   5.378   0.761  11.368  0.5295  1.6754 -0.7701
 8628TIP3   OH250078   5.174   6.950  11.532 -0.2576 -0.3539 -0.6190
 8628TIP3    H150079   5.197   6.875  11.476  0.8134  0.4301 -1.2632
 8628TIP3    H250080   5.245   6.952  11.597 -0.8411 -0.5089  0.0329
 8629TIP3   OH250081   5.681   6.917  12.050 -0.1592 -0.3609 -0.6117
 8629TIP3    H150082   5.740   6.964  11.991 -1.7949  2.0705 -0.4637
 8629TIP3    H250083   5.627   6.863  11.992 -0.9896  1.1442 -1.3120
 8630TIP3   OH250084   5.063   5.522  10.967  0.4276  0.0349 -0.4817
 8630TIP3    H150085   5.004   5.449  10.988  0.6676 -0.2136 -0.6663
 8630TIP3    H250086   5.021   5.598  11.007  0.7837 -0.4030  0.7589
 8631TIP3   OH250087   5.987   3.917  11.286  0.1754 -0.0456 -0.2252
 8631TIP3    H150088   5.960   3.920  11.378 -1.6467  1.3134 -0.7320
 8631TIP3    H250089   6.039   3.837  11.278 -0.2113 -0.5476  1.8351
 8632TIP3   OH250090   5.236   0.420  11.895 -0.4938 -0.1787 -0.0148
 8632TIP3    H150091   5.173   0.465  11.839 -0.5743  0.4334  0.5452
 8632TIP3    H250092   5.198   0.425  11.983  1.7303  3.1106  0.9675
 8633TIP3   OH250093   5.980   4.445  10.840  0.1033 -0.0397 -0.4582
 8633TIP3    H150094   5.936   4.484  10.764  0.3177  1.7446  0.2802
 8633TIP3    H250095   6.047   4.388  10.802 -1.3531 -1.0898 -1.5883
 8634TIP3   OH250096   6.482   3.178  12.912  0.6242  0.1260  0.3740
 8634TIP3    H150097   6.465   3.253  12.969 -1.8363 -0.3731  0.3999
 8634TIP3    H250098   6.498   3.105  12.971 -0.7822 -0.1480  0.4376
 8635TIP3   OH250099   0.831   4.028  10.536  0.3185  0.6065 -0.2155
 8635TIP3    H150100   0.855   4.023  10.444  1.1493  0.7248 -0.0087
 8635TIP3    H250101   0.858   3.944  10.573 -0.4586  0.3627 -0.1752
 8636TIP3   OH250102   4.430   0.209  11.483  0.1412 -0.0404 -0.1000
 8636TIP3    H150103   4.461   0.297  11.504  1.3397 -0.6209  0.6609
 8636TIP3    H250104   4.345   0.223  11.441  0.1064  1.4478  0.4064
 8637TIP3   OH250105   5.202   2.611  11.318  0.4126 -0.2872 -0.2593
 8637TIP3    H150106   5.124   2.564  11.287  1.1829 -1.2562 -0.8243
 8637TIP3    H250107   5.172   2.700  11.333 -0.4746 -0.2474 -1.9696
 8638TIP3   OH250108   6.603   3.578  11.173  0.0516  0.0979  0.8673
 8638TIP3    H150109   6.529   3.519  11.158  0.4974 -0.2710  0.0877
 8638TIP3    H250110   6.587   3.614  11.260 -0.9215 -0.1606  0.8093
 8639TIP3   OH250111   4.121   6.656  11.341 -0.4218  0.1559  0.2116
 8639TIP3    H150112   4.039   6.680  11.384 -1.3338 -0.4319 -1.1272
 8639TIP3    H250113   4.101   6.661  11.247  1.2026  0.4210 -0.1504
 8640TIP3   OH250114   5.594   0.522  11.333  0.4920  0.4067 -0.2779
 8640TIP3    H150115   5.652   0.519  11.256 -0.9308 -1.5178 -1.3874
 8640TIP3    H250116   5.651   0.503  11.407  1.3261 -1.7446 -1.3637
 8641TIP3   OH250117   3.741   3.915  11.647 -0.1771  0.1947 -0.3808
 8641TIP3    H150118   3.685   3.978  11.693  0.5115  1.0081 -0.6327
 8641TIP3    H250119   3.699   3.905  11.561 -2.0134 -2.0674  0.6756
 8642TIP3   OH250120   0.170   2.186  11.931  0.3014  0.3726 -0.6029
 8642TIP3    H150121   0.199   2.254  11.870  1.2695 -0.0167 -0.6027
 8642TIP3    H250122   0.127   2.121  11.875 -0.2068  0.7619 -0.6646
 8643TIP3   OH250123   0.007   4.631  12.247  0.1183 -0.6993  0.0261
 8643TIP3    H150124   0.023   4.542  12.215  1.9357  0.1494 -1.6418
 8643TIP3    H250125   0.083   4.681  12.217 -1.7712  1.8564 -0.8372
 8644TIP3   OH250126   7.551   5.882  12.293 -0.5429 -0.0985 -0.2749
 8644TIP3    H150127   7.478   5.883  12.230 -0.6895  3.6643 -0.2630
 8644TIP3    H250128   7.519   5.933  12.367  1.1846 -0.7303  0.9638
 8645TIP3   OH250129   1.666   0.692  11.657  0.2949  0.0501  0.2664
 8645TIP3    H150130   1.621   0.682  11.741 -1.5026 -0.8922 -0.7718
 8645TIP3    H250131   1.733   0.624  11.658 -0.6937 -0.9431  0.3362
 8646TIP3   OH250132   7.358   3.012  11.949 -0.4709  0.2218  0.6344
 8646TIP3    H150133   7.414   3.076  11.906  0.1687 -1.1166 -0.5635
 8646TIP3    H250134   7.270   3.050  11.943 -0.2907  0.4303 -1.2025
 8647TIP3   OH250135   1.829   3.043  13.029  0.5193 -0.3317  0.4002
 8647TIP3    H150136   1.847   3.012  12.940 -1.3364 -2.8001  0.7651
 8647TIP3    H250137   1.887   2.991  13.084  0.6034  0.1196  0.7356
 8648TIP3   OH250138   7.042   5.156  11.491  0.2711  0.7986  0.5796
 8648TIP3    H150139   7.093   5.082  11.524  1.4045  1.0171 -0.5958
 8648TIP3    H250140   7.105   5.229  11.489 -0.4244  1.3976  0.2598
 8649TIP3   OH250141   5.705   5.988  10.902  0.0992 -0.1111 -0.0483
 8649TIP3    H150142   5.719   5.967  10.809  2.3836 -2.2929  0.6646
 8649TIP3    H250143   5.753   6.070  10.915  1.4502 -0.8071 -0.4355
 8650TIP3   OH250144   7.211   2.697  13.643 -0.1101 -0.0747 -0.5729
 8650TIP3    H150145   7.235   2.787  13.665 -0.8009  0.1251 -0.6175
 8650TIP3    H250146   7.128   2.683  13.688  1.2004 -1.5655  1.6187
 8651TIP3   OH250147   1.600   4.362  12.476 -0.5589 -0.2055 -0.0970
 8651TIP3    H150148   1.607   4.369  12.381  0.8342 -1.1435 -0.0870
 8651TIP3    H250149   1.620   4.270  12.495  2.9165  0.6946  1.3528
 8652TIP3   OH250150   7.470   3.854  11.679  0.0409  0.0344  0.3182
 8652TIP3    H150151   7.396   3.914  11.673 -1.4876 -1.7653  0.4936
 8652TIP3    H250152   7.433   3.768  11.665  1.6042 -1.2428  3.0791
 8653TIP3   OH250153   4.265   6.189  10.732 -0.1217 -0.5369  0.2845
 8653TIP3    H150154   4.213   6.267  10.713  1.1147  0.5019  1.0781
 8653TIP3    H250155   4.202   6.125  10.766 -1.5244 -0.6790 -2.3519
 8654TIP3   OH250156   0.218   5.755  11.500  0.1339 -0.0890  0.4391
 8654TIP3    H150157   0.289   5.807  11.536 -0.9185  2.5685 -1.0467
 8654TIP3    H250158   0.199   5.794  11.414 -3.8879  0.2190  1.2456
 8655TIP3   OH250159   1.363   1.267  12.142 -0.2387 -0.0244  0.1907
 8655TIP3    H150160   1.398   1.353  12.165 -0.4914  0.2593 -0.4682
 8655TIP3    H250161   1.282   1.286  12.095  0.6930 -0.5476 -1.7144
 8656TIP3   OH250162   2.874   6.506  12.633 -0.3377  0.0709 -0.1973
 8656TIP3    H150163   2.821   6.463  12.565  0.5615 -1.3154 -0.0702
 8656TIP3    H250164   2.812   6.525  12.703 -1.0623  0.4529 -0.9242
 8657TIP3   OH250165   0.152   6.012  11.388 -0.3072  0.1812  0.0657
 8657TIP3    H150166   0.233   6.064  11.386 -0.2928  0.1512 -1.5621
 8657TIP3    H250167   0.102   6.048  11.461  0.7006  0.9410  0.4066
 8658TIP3   OH250168   0.236   7.519  11.395  0.3823  0.2228  0.3425
 8658TIP3    H150169   0.240   7.575  11.472  0.4897  0.3444  0.2498
 8658TIP3    H250170   0.256   7.577  11.322  0.4384  0.0757  0.2393
 8659TIP3   OH250171   4.170   6.772  12.580  0.0700 -0.7193  0.5570
 8659TIP3    H150172   4.093   6.823  12.606  1.4656  0.6782  2.1165
 8659TIP3    H250173   4.169   6.776  12.484 -0.6615  1.0598  0.5994
 8660TIP3   OH250174   1.193   2.059  10.607  0.2032 -0.3612 -0.4139
 8660TIP3    H150175   1.230   1.974  10.627  1.0067 -0.0621 -0.6117
 8660TIP3    H250176   1.212   2.073  10.514  0.6356  0.3021 -0.2360
 8661TIP3   OH250177   5.480   5.499  10.478 -0.0902  0.3446  0.0148
 8661TIP3    H150178   5.497   5.422  10.424 -0.3959  1.1856 -1.3358
 8661TIP3    H250179   5.478   5.571  10.415  0.4684  1.4963  1.2824
 8662TIP3   OH250180   4.449   1.790  12.039  0.5576 -0.7739 -0.5373
 8662TIP3    H150181   4.443   1.805  12.133 -0.3684 -2.3287 -0.3256
 8662TIP3    H250182   4.439   1.696  12.028 -2.4830 -0.4070 -2.3779
 8663TIP3   OH250183   2.585   2.712  10.856 -0.0199 -0.0482 -0.4735
 8663TIP3    H150184   2.618   2.654  10.788  2.1450 -1.0283  1.2775
 8663TIP3    H250185   2.561   2.654  10.928 -1.4493  1.0062 -0.0507
 8664TIP3   OH250186   7.663   6.689  12.637  0.1175 -0.1232  0.0120
 8664TIP3    H150187   7.650   6.608  12.687 -2.2724  0.2744  0.1253
 8664TIP3    H250188   7.731   6.736  12.686 -1.0515 -0.4432  2.0714
 8665TIP3   OH250189   1.656   7.011  10.638 -0.2875 -0.4026  0.1760
 8665TIP3    H150190   1.585   6.948  10.639  0.4477 -1.2573  1.0466
 8665TIP3    H250191   1.664   7.039  10.730 -0.5787  0.9371 -0.1855
 8666TIP3   OH250192   0.661   5.757  12.728  0.0045  0.4491 -0.1732
 8666TIP3    H150193   0.600   5.683  12.737 -1.0990  1.3181 -0.1995
 8666TIP3    H250194   0.722   5.729  12.660  0.0409 -0.7090  0.3064
 8667TIP3   OH250195   1.935   1.117  13.043  0.6218  0.4287  0.4553
 8667TIP3    H150196   1.846   1.090  13.020  0.9450 -0.6418  0.4040
 8667TIP3    H250197   1.950   1.196  12.991  1.7546 -2.4803 -4.2915
 8668TIP3   OH250198   0.681   1.146  12.288  0.5271  0.2839 -0.5975
 8668TIP3    H150199   0.596   1.110  12.264  0.8282  0.1836 -1.5295
 8668TIP3    H250200   0.692   1.222  12.232  0.4226  1.1630  0.5371
 8669TIP3   OH250201   0.546   1.166  11.109 -0.1687 -0.2034  0.7836
 8669TIP3    H150202   0.624   1.124  11.073  1.2179  1.0407  2.1808
 8669TIP3    H250203   0.562   1.260  11.100 -1.5176  0.0804  1.0792
 8670TIP3   OH250204   6.882   4.447  10.868  0.3575  0.3571  0.5765
 8670TIP3    H150205   6.968   4.447  10.911  0.0393 -0.5869  1.2606
 8670TIP3    H250206   6.820   4.464  10.939 -0.2516 -2.1621  0.7438
 8671TIP3   OH250207   0.957   6.365  10.535  0.3410 -0.0496  0.6063
 8671TIP3    H150208   0.911   6.437  10.492 -0.4185 -0.6760  0.3298
 8671TIP3    H250209   1.041   6.401  10.560  0.6546  0.4522 -1.0502
 8672TIP3   OH250210   6.224   0.555  12.349 -0.1460 -0.5424 -0.3882
 8672TIP3    H150211   6.308   0.512  12.360  1.2230  1.7828 -0.9403
 8672TIP3    H250212   6.177   0.501  12.285  0.7468 -2.0896  0.2280
 8673TIP3   OH250213   3.961   2.679  11.652 -0.1150  0.4890 -0.4304
 8673TIP3    H150214   3.873   2.648  11.630 -0.3069  0.8302 -0.1505
 8673TIP3    H250215   3.962   2.770  11.625  0.0131  0.6018 -0.0564
 8674TIP3   OH250216   5.016   2.451  11.525  0.1407  0.4165 -0.9186
 8674TIP3    H150217   4.941   2.507  11.547  0.7544  1.4261 -1.3308
 8674TIP3    H250218   5.072   2.506  11.471  1.0441 -0.4261 -0.8694
 8675TIP3   OH250219   1.277   1.115  11.056  0.8447  0.2705  0.1054
 8675TIP3    H150220   1.268   1.190  11.114 -1.2488 -1.1224  1.7666
 8675TIP3    H250221   1.203   1.058  11.079  3.1079 -2.9811 -0.0381
 8676TIP3   OH250222   1.699   5.175  11.875  0.0451 -0.6057 -0.3064
 8676TIP3    H150223   1.741   5.104  11.923 -2.4518 -2.6017 -0.8435
 8676TIP3    H250224   1.625   5.201  11.930 -1.2260 -1.0267 -1.7399
 8677TIP3   OH250225   3.340   4.196  10.933  0.3779 -0.5240 -0.3272
 8677TIP3    H150226   3.271   4.160  10.878 -1.4042  0.7821  0.9117
 8677TIP3    H250227   3.328   4.291  10.926 -0.3077 -0.2917  2.6313
 8678TIP3   OH250228   3.387   4.003  12.047  0.4171  0.4209 -0.1943
 8678TIP3    H150229   3.373   3.921  12.000  0.5319  0.3018 -0.0227
 8678TIP3    H250230   3.316   4.060  12.018 -0.2299 -0.0608  0.4094
 8679TIP3   OH250231   2.350   0.198  12.088 -0.1891  0.3252 -0.1425
 8679TIP3    H150232   2.412   0.125  12.094  0.2922  0.7870  0.5812
 8679TIP3    H250233   2.390   0.268  12.139 -1.7587  0.3263  1.1672
 8680TIP3   OH250234   4.511   4.932  11.348  1.0170  0.1801  0.2883
 8680TIP3    H150235   4.606   4.936  11.362  1.0568  1.9666 -0.3046
 8680TIP3    H250236   4.501   4.916  11.254  0.7000 -0.7163  0.4572
 8681TIP3   OH250237   6.322   5.081  10.751  0.6381 -0.2234 -0.3197
 8681TIP3    H150238   6.412   5.080  10.718  0.7631 -3.3401 -0.2025
 8681TIP3    H250239   6.318   5.005  10.811 -2.0584 -0.1829 -0.3350
 8682TIP3   OH250240   1.180   4.600  10.792 -0.3691 -0.1588 -0.5733
 8682TIP3    H150241   1.138   4.684  10.813 -1.3182 -0.9190  0.7274
 8682TIP3    H250242   1.202   4.563  10.878  0.2407 -1.1396 -1.1435
 8683TIP3   OH250243   4.583   1.141  10.929 -0.1199  0.0829  0.0869
 8683TIP3    H150244   4.517   1.153  10.861 -1.3402  1.1128  1.3986
 8683TIP3    H250245   4.641   1.216  10.921 -0.0296 -0.0032 -0.0678
 8684TIP3   OH250246   4.917   4.333  12.751  0.2290  0.1950  0.1997
 8684TIP3    H150247   4.886   4.279  12.678  0.5089 -0.7308  0.7461
 8684TIP3    H250248   4.862   4.306  12.826  2.4533 -1.7207  1.2745
 8685TIP3   OH250249   0.526   0.311  12.741 -0.2041  0.5296 -0.2666
 8685TIP3    H150250   0.621   0.312  12.752 -0.0799  1.6941 -1.2191
 8685TIP3    H250251   0.511   0.255  12.664 -0.4970 -1.4924  1.1828
 8686TIP3   OH250252   0.824   4.541  12.153 -0.6407 -0.2929  0.4991
 8686TIP3    H150253   0.737   4.531  12.191 -0.2584 -1.6878  1.0907
 8686TIP3    H250254   0.847   4.452  12.124 -0.3009  0.4500 -1.6391
 8687TIP3   OH250255   2.152   7.167  10.920  0.3502  0.4382 -0.0190
 8687TIP3    H150256   2.119   7.081  10.947  1.2484  0.2424  0.4886
 8687TIP3    H250257   2.120   7.227  10.987  0.7216  0.3038  0.2822
 8688TIP3   OH250258   7.068   0.490  10.905 -0.0974  0.1972  0.3713
 8688TIP3    H150259   7.020   0.411  10.881 -1.8072  1.4735 -0.6920
 8688TIP3    H250260   7.119   0.511  10.827 -0.4515  0.6988  0.2732
 8689TIP3   OH250261   2.644   4.556  11.480 -0.0517 -0.6966  0.4526
 8689TIP3    H150262   2.590   4.634  11.463  1.9065  0.6976  0.2500
 8689TIP3    H250263   2.581   4.487  11.500 -1.9256  0.6290 -0.5784
 8690TIP3   OH250264   2.345   5.444  12.004 -0.4982  0.3590 -0.0815
 8690TIP3    H150265   2.387   5.400  12.077 -2.3968 -0.7730  0.4067
 8690TIP3    H250266   2.335   5.535  12.033  0.0071  0.2296  0.5090
 8691TIP3   OH250267   7.301   2.350  11.901  0.2163 -0.2632 -0.7512
 8691TIP3    H150268   7.334   2.270  11.943 -1.0265 -1.0447 -1.2160
 8691TIP3    H250269   7.278   2.408  11.973 -0.1434 -0.8684 -0.3729
 8692TIP3   OH250270   3.373   5.056  11.796  0.3969 -0.3852  0.2348
 8692TIP3    H150271   3.467   5.070  11.789  0.8178 -3.1565 -1.1693
 8692TIP3    H250272   3.359   5.026  11.886  0.4937  1.7781  1.0335
 8693TIP3   OH250273   1.218   5.222  12.329 -0.0390 -0.1525  0.1601
 8693TIP3    H150274   1.147   5.182  12.381  1.4650 -0.1853  2.3351
 8693TIP3    H250275   1.237   5.304  12.374 -0.1330  0.9229 -1.6933
 8694TIP3   OH250276   3.090   7.163  10.658  0.4001 -0.0068 -0.6759
 8694TIP3    H150277   3.176   7.148  10.620  1.6083 -0.2871  1.9441
 8694TIP3    H250278   3.048   7.077  10.659  1.3944 -0.5055  0.8923
 8695TIP3   OH250279   0.353   0.034  11.146  0.2762 -0.1850 -0.5287
 8695TIP3    H150280   0.339  -0.041  11.088 -0.9400  0.3553 -0.9689
 8695TIP3    H250281   0.444   0.060  11.130  0.1011 -0.3140 -1.8867
 8696TIP3   OH250282   0.637   0.791  10.873 -0.2794  0.2629  0.8469
 8696TIP3    H150283   0.631   0.822  10.964  0.9237  1.1133  0.6707
 8696TIP3    H250284   0.640   0.872  10.821 -0.5252 -0.2128  0.0790
 8697TIP3   OH250285   4.422   2.323  10.358  0.0707  0.4123 -0.1485
 8697TIP3    H150286   4.378   2.381  10.296  1.5779  0.4502 -1.2456
 8697TIP3    H250287   4.362   2.317  10.432 -1.7220  0.5172 -1.5163
 8698TIP3   OH250288   0.601   3.466  11.013  0.4356 -0.1894  0.0909
 8698TIP3    H150289   0.582   3.429  10.927  0.3147 -3.5382  1.4212
 8698TIP3    H250290   0.515   3.491  11.048  0.4828  1.1473 -0.6878
 8699TIP3   OH250291   0.995   5.499  11.576 -0.3525  0.1258 -0.9242
 8699TIP3    H150292   1.038   5.473  11.657  0.4088  0.9353 -1.0537
 8699TIP3    H250293   0.902   5.503  11.598 -0.3602 -1.3396 -0.5581
 8700TIP3   OH250294   6.598   3.841  13.485 -0.3874 -0.1268 -0.9589
 8700TIP3    H150295   6.625   3.917  13.536 -1.1535  0.4736 -1.4337
 8700TIP3    H250296   6.680   3.797  13.463  0.0517  0.4546 -0.5296
 8701TIP3   OH250297   1.577   6.875  11.006  0.1088  0.4199  0.1335
 8701TIP3    H150298   1.517   6.807  10.975  0.1625 -0.0633  1.0448
 8701TIP3    H250299   1.550   6.892  11.096  1.8261 -0.3868  0.8516
 8702TIP3   OH250300   6.689   6.261  13.463 -0.7720  0.6430 -0.5177
 8702TIP3    H150301   6.742   6.334  13.495  1.5758 -0.4957 -1.5307
 8702TIP3    H250302   6.662   6.214  13.542 -0.5725  1.4566  0.0448
 8703TIP3   OH250303   4.302   1.876  11.572  0.0145 -0.3040  0.2068
 8703TIP3    H150304   4.356   1.941  11.528 -0.3494  0.6655  1.1573
 8703TIP3    H250305   4.322   1.888  11.665 -3.0614  1.2499  0.7710
 8704TIP3   OH250306   6.117   3.941  12.301  0.1111 -0.0200  0.3404
 8704TIP3    H150307   6.063   3.862  12.290 -1.0496  0.8428 -0.3833
 8704TIP3    H250308   6.122   3.979  12.213  0.3097  0.9378  0.7544
 8705TIP3   OH250309   5.917   5.918  12.001 -0.0185  0.2212  0.3533
 8705TIP3    H150310   5.893   6.011  12.000  1.2288  0.5935  1.4371
 8705TIP3    H250311   5.979   5.909  11.928  3.4344  1.3850  2.8524
 8706TIP3   OH250312   5.069   0.482  12.511  0.2395 -0.0124 -0.1598
 8706TIP3    H150313   5.084   0.456  12.602 -0.2130  1.2910  0.3200
 8706TIP3    H250314   5.132   0.431  12.460  0.9225 -0.3128  0.9536
 8707TIP3   OH250315   2.452   7.130  11.042 -0.1401  0.6524  0.0021
 8707TIP3    H150316   2.456   7.223  11.064  4.2322  0.4015  1.2132
 8707TIP3    H250317   2.449   7.085  11.127 -0.1245 -0.3048 -0.4857
 8708TIP3   OH250318   7.419   5.448  11.110  0.1190  0.4410 -0.2809
 8708TIP3    H150319   7.421   5.510  11.183  1.2495  2.9185 -2.2649
 8708TIP3    H250320   7.490   5.387  11.128 -0.8443 -0.1983  1.5940
 8709TIP3   OH250321   4.904   3.149  11.986 -0.0964  0.5033  0.6917
 8709TIP3    H150322   4.870   3.131  11.898 -0.6534 -0.0626  1.0191
 8709TIP3    H250323   4.876   3.239  12.004  0.0540  0.6363  0.2744
 8710TIP3   OH250324   4.674   2.704  10.929  0.3349  0.2803  0.0521
 8710TIP3    H150325   4.700   2.796  10.938 -0.7681  0.6251 -0.1272
 8710TIP3    H250326   4.579   2.707  10.918  0.4131 -0.7947 -1.1935
 8711TIP3   OH250327   0.332   5.704  10.897 -0.0842 -0.7803 -0.2111
 8711TIP3    H150328   0.345   5.775  10.959  1.6146 -0.1761 -1.1770
 8711TIP3    H250329   0.414   5.654  10.900 -0.1149 -0.9583 -1.6619
 8712TIP3   OH250330   2.510   2.612  11.391  0.1976 -0.4844  0.1354
 8712TIP3    H150331   2.464   2.694  11.372  0.4567  0.7602  3.9769
 8712TIP3    H250332   2.446   2.544  11.372 -0.7973  0.7352 -1.0965
 8713TIP3   OH250333   0.596   2.424  12.782  0.0352 -0.0679 -0.1765
 8713TIP3    H150334   0.575   2.452  12.693 -0.6803  1.7513  0.5071
 8713TIP3    H250335   0.514   2.437  12.831  0.8495  0.5472  1.0711
 8714TIP3   OH250336   3.142   1.059  10.727  0.5166  0.0739 -0.0140
 8714TIP3    H150337   3.186   1.098  10.803 -0.3565 -0.9375  1.0475
 8714TIP3    H250338   3.213   1.016  10.678  0.6925 -2.5168  2.2647
 8715TIP3   OH250339   4.022   3.090  10.699 -0.1415 -0.0473 -0.0159
 8715TIP3    H150340   4.097   3.150  10.699  0.1572 -0.4047 -0.6836
 8715TIP3    H250341   4.021   3.053  10.788  1.2965 -1.0128 -0.3557
 8716TIP3   OH250342   1.679   5.759  12.681  0.5644 -0.6909 -0.0459
 8716TIP3    H150343   1.746   5.821  12.652 -1.5316  2.1253  0.6893
 8716TIP3    H250344   1.685   5.760  12.777 -0.6978 -0.1119  0.0503
 8717TIP3   OH250345   1.863   2.649  11.143 -0.2775 -0.3237 -0.1866
 8717TIP3    H150346   1.929   2.674  11.079  0.7369 -1.3438  0.4258
 8717TIP3    H250347   1.825   2.568  11.108 -0.2245 -0.4894  0.1318
 8718TIP3   OH250348   4.825   3.264  12.554 -0.0854  0.0206  0.2135
 8718TIP3    H150349   4.731   3.258  12.540 -0.0033  0.5539 -0.6123
 8718TIP3    H250350   4.844   3.357  12.553  0.4346 -0.0819  0.4762
 8719TIP3   OH250351   2.241   7.343  12.000 -0.2361 -0.1620  0.4696
 8719TIP3    H150352   2.157   7.389  12.008 -1.0097 -1.5003  0.4240
 8719TIP3    H250353   2.241   7.282  12.074  1.0947  0.3983  0.9589
 8720TIP3   OH250354   7.013   1.413  10.462  0.4521  0.1573 -0.2197
 8720TIP3    H150355   6.958   1.393  10.538  1.0181  1.2068  0.4843
 8720TIP3    H250356   7.056   1.330  10.441 -1.0044 -0.5737 -0.4936
 8721TIP3   OH250357   6.192   5.957  11.813 -0.0162 -0.2888 -0.0282
 8721TIP3    H150358   6.150   5.885  11.767 -1.9849  0.5905  0.2638
 8721TIP3    H250359   6.284   5.932  11.820  0.1346 -1.0570 -3.2225
 8722TIP3   OH250360   0.490   4.742  13.571 -0.0016  0.3048 -0.2208
 8722TIP3    H150361   0.423   4.684  13.607 -0.6637  0.3332 -1.3454
 8722TIP3    H250362   0.444   4.792  13.503  1.1635  0.2853 -1.0624
 8723TIP3   OH250363   1.056   4.491  13.284  0.0326 -0.1067 -0.5001
 8723TIP3    H150364   1.066   4.584  13.266  0.5523 -0.3140 -1.3515
 8723TIP3    H250365   1.057   4.450  13.197 -0.4335 -0.8802 -0.1474
 8724TIP3   OH250366   5.196   7.545  10.823  0.0086  0.4321 -0.3014
 8724TIP3    H150367   5.269   7.606  10.831  0.2099  0.2745 -0.8984
 8724TIP3    H250368   5.235   7.459  10.839  0.2083  0.2207 -1.7839
 8725TIP3   OH250369   6.750   6.657  12.789 -0.0959  0.3541  0.2530
 8725TIP3    H150370   6.701   6.691  12.864  0.9454  0.4645  0.9115
 8725TIP3    H250371   6.683   6.629  12.727 -0.9930  1.9842  0.4195
 8726TIP3   OH250372   6.370   5.103  11.582 -0.3505 -1.1330 -0.3012
 8726TIP3    H150373   6.410   5.079  11.499  0.1098 -0.6165 -0.2295
 8726TIP3    H250374   6.293   5.046  11.588 -0.8108 -0.6557 -1.4244
 8727TIP3   OH250375   7.147   0.810  12.098  0.1972  0.4935  0.6574
 8727TIP3    H150376   7.156   0.718  12.125  1.5467  0.9803  2.0303
 8727TIP3    H250377   7.147   0.859  12.180 -2.4256  1.6451  0.0715
 8728TIP3   OH250378   5.367   0.266  10.931  0.2155  0.1891 -0.1511
 8728TIP3    H150379   5.310   0.335  10.965  0.1757 -0.4751  1.1973
 8728TIP3    H250380   5.404   0.224  11.009  0.7028 -0.9320 -0.9496
 8729TIP3   OH250381   2.433   6.287  12.487  0.2352 -0.0374  0.2823
 8729TIP3    H150382   2.474   6.361  12.441 -0.0378 -0.8732 -1.3620
 8729TIP3    H250383   2.423   6.318  12.577 -0.3471  2.1258 -0.4693
 8730TIP3   OH250384   7.325   1.943  13.169  0.1533 -0.0499 -0.1637
 8730TIP3    H150385   7.413   1.965  13.199 -0.5966  1.0270  1.3244
 8730TIP3    H250386   7.302   1.864  13.218 -0.3120  0.5749  0.6289
 8731TIP3   OH250387   2.945   4.665  12.785 -0.2836 -0.5459  0.2690
 8731TIP3    H150388   3.029   4.706  12.801 -0.3120  0.1663 -1.2645
 8731TIP3    H250389   2.933   4.605  12.859  1.2172 -0.1316  0.8788
 8732TIP3   OH250390   0.464   0.254  10.920 -0.2217  0.0700 -0.4869
 8732TIP3    H150391   0.412   0.334  10.925  0.7854  0.7039  0.1177
 8732TIP3    H250392   0.470   0.223  11.010 -0.3101 -0.5116 -0.6715
 8733TIP3   OH250393   0.250   0.246  11.864 -0.0891  0.3333  0.2937
 8733TIP3    H150394   0.313   0.237  11.792 -1.7259 -2.4736 -0.9257
 8733TIP3    H250395   0.293   0.202  11.938 -0.6559 -1.9400 -0.6438
 8734TIP3   OH250396   4.305   2.295  10.602  0.3589  0.0308 -0.7447
 8734TIP3    H150397   4.323   2.201  10.596  0.3859 -0.0221  0.0077
 8734TIP3    H250398   4.210   2.301  10.598  0.3540 -0.0356 -0.7318
 8735TIP3   OH250399   0.714   1.413  10.618  0.0443 -0.4708 -0.3992
 8735TIP3    H150400   0.700   1.400  10.712  2.1030 -0.8496 -0.1135
 8735TIP3    H250401   0.700   1.507  10.606  0.4568 -0.2863  0.4295
 8736TIP3   OH250402   3.293   0.779  11.099 -0.3357 -0.5214 -0.6737
 8736TIP3    H150403   3.379   0.745  11.122  0.4154  2.6033  1.8914
 8736TIP3    H250404   3.293   0.784  11.004  3.0257  0.8501 -0.7316
 8737TIP3   OH250405   4.480   0.017  11.670  0.8123  0.4759  0.1189
 8737TIP3    H150406   4.461   0.085  11.604  0.8256  0.1968 -0.1748
 8737TIP3    H250407   4.544  -0.040  11.628 -0.5608 -0.7797 -0.3447
 8738TIP3   OH250408   0.608   5.271  12.183 -1.1187 -0.6080 -0.6374
 8738TIP3    H150409   0.616   5.185  12.225 -1.1834  0.1302  0.9640
 8738TIP3    H250410   0.520   5.300  12.205 -1.5130 -0.5879 -2.1345
 8739TIP3   OH250411   5.828   5.636  11.664 -0.2190  0.2477 -0.2555
 8739TIP3    H150412   5.866   5.594  11.587  0.4917 -3.1248  1.7264
 8739TIP3    H250413   5.739   5.600  11.669 -0.8021  1.6172 -0.2508
 8740TIP3   OH250414   5.746   3.799  11.015  0.0228  0.3299 -0.2637
 8740TIP3    H150415   5.733   3.875  11.071 -1.0335  0.2251 -0.3584
 8740TIP3    H250416   5.672   3.742  11.035 -0.1980  0.1522 -1.5510
 8741TIP3   OH250417   2.074   6.590  10.902  0.0635 -0.2339 -0.8286
 8741TIP3    H150418   2.097   6.678  10.930 -1.6431  0.0989 -0.3536
 8741TIP3    H250419   2.062   6.598  10.807  1.2734 -0.2925 -0.9975
 8742TIP3   OH250420   0.162   6.470  11.196 -0.2330  0.5324 -0.1184
 8742TIP3    H150421   0.159   6.374  11.199 -0.9383  0.5572  0.3323
 8742TIP3    H250422   0.127   6.493  11.110 -0.5572  0.3989 -0.0228
 8743TIP3   OH250423   3.173   0.122  12.480 -0.4044 -0.1477 -0.2306
 8743TIP3    H150424   3.167   0.145  12.572 -0.9976  0.8529 -0.4950
 8743TIP3    H250425   3.265   0.133  12.458 -0.6178  2.0212 -0.3016
 8744TIP3   OH250426   3.136   0.582  11.220 -0.2560  0.4281  0.0043
 8744TIP3    H150427   3.190   0.655  11.189  3.3386 -1.0160  2.1550
 8744TIP3    H250428   3.088   0.618  11.294 -1.8924  1.5762 -1.5268
 8745TIP3   OH250429   4.103   3.952  12.412  0.4243  0.3707  0.3174
 8745TIP3    H150430   4.040   3.880  12.409  1.8332 -0.8555 -0.9602
 8745TIP3    H250431   4.146   3.943  12.497 -0.1709  0.3842  0.6229
 8746TIP3   OH250432   0.455   4.996  12.744  0.2869 -0.0315 -0.2862
 8746TIP3    H150433   0.550   5.002  12.740  0.2027  1.8236 -0.3574
 8746TIP3    H250434   0.424   5.057  12.677 -0.9549  0.6657  0.8724
 8747TIP3   OH250435   6.170   2.388  11.309  0.2878  0.5888  0.2952
 8747TIP3    H150436   6.211   2.325  11.251 -0.8286 -0.6727  0.8178
 8747TIP3    H250437   6.221   2.383  11.390 -1.1076 -1.3827  1.1391
 8748TIP3   OH250438   5.871   6.541  11.264  0.3915  0.6699  0.5420
 8748TIP3    H150439   5.885   6.458  11.219  0.6336  1.3884 -0.7588
 8748TIP3    H250440   5.880   6.607  11.196  0.5076  1.7913  1.6056
 8749TIP3   OH250441   5.925   5.039  10.409 -0.5629  0.1701 -1.0001
 8749TIP3    H150442   5.942   5.010  10.319  0.3126  1.2469 -1.2044
 8749TIP3    H250443   6.011   5.042  10.450 -0.7262  1.5417 -0.7200
 8750TIP3   OH250444   1.201   4.211  12.062  0.0958  0.3817  0.6068
 8750TIP3    H150445   1.208   4.119  12.034 -0.0291  0.4458  0.3609
 8750TIP3    H250446   1.234   4.211  12.151  2.2714  0.4970 -0.1541
 8751TIP3   OH250447   5.045   5.090  11.898  0.1844  0.5213 -0.3311
 8751TIP3    H150448   5.034   5.118  11.807 -0.6589  1.0515 -0.0766
 8751TIP3    H250449   5.092   5.162  11.940  0.3136  0.4037 -0.2712
 8752TIP3   OH250450   0.197   0.807  10.621  0.6502  0.3988 -0.0562
 8752TIP3    H150451   0.103   0.818  10.640  0.0907  1.0507 -2.7843
 8752TIP3    H250452   0.200   0.739  10.553  2.2245  0.0735  0.2975
 8753TIP3   OH250453   2.526   0.344  12.861  0.5662  0.1200  0.1182
 8753TIP3    H150454   2.464   0.345  12.789  2.2686  1.1596 -1.4113
 8753TIP3    H250455   2.546   0.251  12.874 -1.4556 -0.2655  0.8549
 8754TIP3   OH250456   1.154   7.459  11.644  0.5513 -0.3503  0.5641
 8754TIP3    H150457   1.203   7.405  11.583  2.1318  1.3157  0.2729
 8754TIP3    H250458   1.074   7.482  11.597  1.7118  0.8502 -0.9096
 8755TIP3   OH250459   6.681   0.481  10.392  0.2234  0.0876  0.1752
 8755TIP3    H150460   6.679   0.467  10.487  1.4166  0.5366  0.2841
 8755TIP3    H250461   6.589   0.473  10.365  0.0610 -1.9743  1.0702
 8756TIP3   OH250462   4.795   5.044  10.982  0.6432  0.1785  0.3942
 8756TIP3    H150463   4.733   4.998  10.925  0.6968  0.2180  0.3037
 8756TIP3    H250464   4.753   5.129  10.998  0.1975 -0.1782  1.1593
 8757TIP3   OH250465   4.531   0.167  12.210 -0.0711 -0.4914  0.0633
 8757TIP3    H150466   4.615   0.122  12.221  0.4632  0.6766  1.0322
 8757TIP3    H250467   4.472   0.100  12.174  1.2178 -1.3776 -0.4598
 8758TIP3   OH250468   2.013   0.231  11.555  0.9189 -1.0784  0.1197
 8758TIP3    H150469   2.072   0.159  11.530  0.2119 -1.5765 -0.1344
 8758TIP3    H250470   2.046   0.307  11.506  0.5111 -1.6774 -1.1155
 8759TIP3   OH250471   7.354   4.695  10.521  0.0379  0.1632  0.2543
 8759TIP3    H150472   7.352   4.749  10.600 -0.0401  1.2970 -0.5063
 8759TIP3    H250473   7.412   4.741  10.461 -0.0150 -0.6071 -0.4147
 8760TIP3   OH250474   3.433   2.796  11.635 -0.1020 -0.3968 -0.2141
 8760TIP3    H150475   3.395   2.837  11.556 -1.1238  0.9052  0.8933
 8760TIP3    H250476   3.527   2.802  11.622 -0.2475 -0.7919 -1.6207
 8761TIP3   OH250477   0.763   2.762  12.080  0.4030  0.4379 -0.5277
 8761TIP3    H150478   0.794   2.681  12.039 -0.7448 -0.9319  1.1808
 8761TIP3    H250479   0.799   2.759  12.169 -0.9220  1.0144  0.0527
 8762TIP3   OH250480   2.428   4.145  10.484  0.1631 -0.4342  0.5512
 8762TIP3    H150481   2.491   4.161  10.555 -0.0668 -1.8726  1.1129
 8762TIP3    H250482   2.394   4.057  10.501  0.1391 -0.8475 -1.3832
 8763TIP3   OH250483   2.433   3.423  11.747  0.1049  0.0722 -0.3613
 8763TIP3    H150484   2.432   3.407  11.841  0.1732 -1.6288 -0.6153
 8763TIP3    H250485   2.523   3.452  11.729  0.7639 -1.7102 -0.1737
 8764TIP3   OH250486   1.718   1.495  18.684  0.2341  0.9153  0.4959
 8764TIP3    H150487   1.747   1.571  18.735  2.3050 -0.4897  1.5525
 8764TIP3    H250488   1.796   1.440  18.677 -0.2140  0.5074 -3.3394
 8765TIP3   OH250489   4.324   7.285  12.239 -0.0344 -0.4708 -0.4356
 8765TIP3    H150490   4.343   7.192  12.246 -0.7753 -0.6509 -0.7508
 8765TIP3    H250491   4.337   7.319  12.328  1.9933 -0.5060 -0.6542
 8766TIP3   OH250492   2.953   5.490  11.286  0.4032 -0.2881  0.2221
 8766TIP3    H150493   3.021   5.451  11.340 -0.2289 -0.4213  0.9353
 8766TIP3    H250494   2.892   5.530  11.348 -0.8686 -1.3106 -0.3169
 8767TIP3   OH250495   5.445   7.336  12.585 -0.0439 -0.5153 -0.2197
 8767TIP3    H150496   5.422   7.418  12.629 -0.8591 -0.8502 -0.0152
 8767TIP3    H250497   5.426   7.268  12.650  0.5877 -0.8808 -0.4028
 8768TIP3   OH250498   3.490   5.494  12.290  0.3646 -0.2339  0.6697
 8768TIP3    H150499   3.463   5.585  12.282 -0.4962 -0.5567 -0.2743
 8768TIP3    H250500   3.462   5.468  12.378 -0.3197  0.1215  0.5614
 8769TIP3   OH250501   4.399   2.176  12.006 -0.4498 -0.1245  0.0332
 8769TIP3    H150502   4.415   2.266  11.977  0.4758  0.0772  1.0643
 8769TIP3    H250503   4.463   2.163  12.077 -0.1118 -1.8180 -0.5397
 8770TIP3   OH250504   5.697   0.166  10.736  0.3388  0.1001 -0.0202
 8770TIP3    H150505   5.725   0.229  10.803  0.5880  0.5386 -0.5269
 8770TIP3    H250506   5.773   0.109  10.725  0.7280  0.7406 -0.7522
 8771TIP3   OH250507   7.055   2.559  11.972  0.1790  0.1860  0.1277
 8771TIP3    H150508   7.019   2.607  12.046 -0.7468 -0.2309 -0.0356
 8771TIP3    H250509   7.121   2.617  11.935 -0.8387  1.2833 -0.0003
 8772TIP3   OH250510   2.818   0.679  12.999  0.6787 -0.2235 -0.3479
 8772TIP3    H150511   2.886   0.642  13.056  1.1362 -1.4047 -1.6112
 8772TIP3    H250512   2.830   0.774  13.007  0.6434 -0.3247  1.5916
 8773TIP3   OH250513   0.587   4.114  12.138 -0.7775  0.0872  0.5701
 8773TIP3    H150514   0.587   4.032  12.087  2.4821  1.7699 -2.6227
 8773TIP3    H250515   0.616   4.088  12.225 -0.3434 -2.2667 -0.1956
 8774TIP3   OH250516   3.561   7.351  11.614  0.0960  0.8610  0.0111
 8774TIP3    H150517   3.612   7.352  11.695 -1.1143 -0.1301  0.8198
 8774TIP3    H250518   3.611   7.295  11.555  0.1708  0.2446  0.6476
 8775TIP3   OH250519   2.595   5.890  11.551 -0.3031  0.0309  0.2706
 8775TIP3    H150520   2.667   5.865  11.610 -1.4676 -1.4663  1.1149
 8775TIP3    H250521   2.516   5.863  11.596 -1.2961 -0.4797 -1.6674
 8776TIP3   OH250522   2.934   4.540  17.734  0.4313  0.3027 -0.0766
 8776TIP3    H150523   2.956   4.483  17.807  0.5968  0.5810  0.0917
 8776TIP3    H250524   2.848   4.510  17.705  0.9487 -0.7004 -0.6422
 8777TIP3   OH250525   0.551   1.524  11.501 -0.3418  0.2553  0.3925
 8777TIP3    H150526   0.466   1.487  11.477 -0.1879  0.5901 -0.7580
 8777TIP3    H250527   0.559   1.602  11.446 -0.0939  1.2780  1.8467
 8778TIP3   OH250528   6.617   1.217  10.521  0.5836  0.3150 -0.2322
 8778TIP3    H150529   6.553   1.151  10.498  0.4858  0.1573  0.4519
 8778TIP3    H250530   6.572   1.300  10.511  0.7640  0.2949 -1.2731
 8779TIP3   OH250531   5.754   3.341  11.917  0.1307  0.3845  0.3098
 8779TIP3    H150532   5.808   3.293  11.979 -1.7004 -0.4657  1.3256
 8779TIP3    H250533   5.770   3.300  11.833  2.7293  1.6126  0.1272
 8780TIP3   OH250534   1.218   4.552  12.830  0.4200 -0.1665 -0.2365
 8780TIP3    H150535   1.254   4.469  12.863  1.2749  0.4179  0.3709
 8780TIP3    H250536   1.173   4.590  12.906  0.4211  0.1252 -0.3803
 8781TIP3   OH250537   4.222   3.831  10.838 -0.1344 -0.1611 -0.4959
 8781TIP3    H150538   4.245   3.739  10.825  0.3763  0.0942 -1.4794
 8781TIP3    H250539   4.137   3.840  10.795 -2.1888 -1.0635  2.9816
 8782TIP3   OH250540   6.557   5.649  10.743 -0.0054  0.8829  0.2290
 8782TIP3    H150541   6.567   5.554  10.739  0.2404  0.8777  0.8499
 8782TIP3    H250542   6.533   5.667  10.834 -1.2833  1.3115 -0.1839
 8783TIP3   OH250543   2.786   4.290  12.992 -0.4422 -0.3381  0.5957
 8783TIP3    H150544   2.716   4.339  13.035 -1.5431 -1.8586  0.6015
 8783TIP3    H250545   2.866   4.338  13.014 -1.0923 -0.3711  3.3209
 8784TIP3   OH250546   2.293   5.813  10.720 -0.0149 -0.2712 -0.3829
 8784TIP3    H150547   2.377   5.813  10.766 -0.1856  0.1159 -0.0581
 8784TIP3    H250548   2.260   5.723  10.730 -0.4555  0.0113  1.0368
 8785TIP3   OH250549   6.819   6.949  11.162  0.4462 -0.2518 -0.3409
 8785TIP3    H150550   6.882   6.931  11.092 -0.2857 -1.1968 -0.7677
 8785TIP3    H250551   6.809   6.865  11.207  1.5403  0.5197  1.4469
 8786TIP3   OH250552   5.408   3.532  11.206 -0.2900 -0.3102  0.4395
 8786TIP3    H150553   5.434   3.598  11.143  0.4364 -0.1968  0.8508
 8786TIP3    H250554   5.338   3.573  11.257 -1.4120 -0.6642 -0.7543
 8787TIP3   OH250555   2.047   1.437  10.414 -0.3083 -0.3611 -0.1010
 8787TIP3    H150556   1.972   1.411  10.360 -1.5119  0.7281  0.9768
 8787TIP3    H250557   2.100   1.358  10.421 -0.4605 -0.7261 -2.2711
 8788TIP3   OH250558   4.211   0.621  10.679  0.9168 -0.4707 -0.2373
 8788TIP3    H150559   4.231   0.527  10.678  1.4767 -0.3533 -0.6922
 8788TIP3    H250560   4.278   0.659  10.736  1.6342 -0.1602 -1.2453
 8789TIP3   OH250561   6.587   4.095  13.377  0.1576 -0.5551  0.0553
 8789TIP3    H150562   6.621   4.009  13.354  2.7396  0.2972  0.3175
 8789TIP3    H250563   6.514   4.109  13.316  0.8394 -2.1778 -1.2032
 8790TIP3   OH250564   4.108   4.413  12.893  0.6324  0.3591 -0.2608
 8790TIP3    H150565   4.024   4.443  12.928 -0.0675  0.4849 -1.9565
 8790TIP3    H250566   4.171   4.481  12.918 -0.3258  1.7067 -1.3771
 8791TIP3   OH250567   5.768   5.754  12.514 -0.2075 -0.1063  0.0163
 8791TIP3    H150568   5.710   5.830  12.511  0.4269  0.3750 -0.1191
 8791TIP3    H250569   5.799   5.743  12.424  0.0035 -0.2865  0.1092
 8792TIP3   OH250570   5.866   1.262  11.702 -0.1413  0.3653 -0.0073
 8792TIP3    H150571   5.833   1.351  11.691  0.6160  0.4962 -1.5139
 8792TIP3    H250572   5.900   1.238  11.615 -1.2254 -1.7517  0.0678
 8793TIP3   OH250573   3.299   4.830  11.375  0.1155  0.6709  0.3550
 8793TIP3    H150574   3.380   4.849  11.326 -0.1635  0.7731 -0.0690
 8793TIP3    H250575   3.291   4.735  11.372  0.1132  0.6752  0.2268
 8794TIP3   OH250576   2.950   7.583  11.350 -0.1232 -0.2425  0.3064
 8794TIP3    H150577   2.953   7.597  11.445 -0.8246  0.0206  0.2947
 8794TIP3    H250578   2.862   7.548  11.334 -0.6720  1.4108 -0.4660
 8795TIP3   OH250579   0.673   6.213  13.814  0.3422  0.2932 -0.2185
 8795TIP3    H150580   0.722   6.141  13.775 -1.8979 -1.3054 -0.2361
 8795TIP3    H250581   0.679   6.284  13.750  0.8053 -0.6051 -1.1883
 8796TIP3   OH250582   2.855   5.751  12.237 -0.3462 -0.7492  0.5207
 8796TIP3    H150583   2.909   5.710  12.169  0.5146 -1.0185  1.3319
 8796TIP3    H250584   2.817   5.677  12.284 -1.1795 -0.5621  0.1572
 8797TIP3   OH250585   3.831   7.449  10.890 -0.3951 -0.5060 -0.8693
 8797TIP3    H150586   3.889   7.512  10.848  0.6644  0.0838  1.3038
 8797TIP3    H250587   3.744   7.489  10.886  0.4726  2.0627  1.8941
 8798TIP3   OH250588   1.866   5.510  11.618 -0.0580  0.0785  0.3699
 8798TIP3    H150589   1.858   5.519  11.523  0.8306 -1.5394  0.1167
 8798TIP3    H250590   1.782   5.473  11.646  0.4895 -1.6068 -0.1187
 8799TIP3   OH250591   3.809   5.019  11.168  0.4279  0.4680 -0.1064
 8799TIP3    H150592   3.784   4.946  11.225 -0.2570  1.6249  1.1134
 8799TIP3    H250593   3.905   5.020  11.172  0.3977  0.3421  0.7696
 8800TIP3   OH250594   7.142   6.586  10.964  0.2141 -0.6524 -0.4115
 8800TIP3    H150595   7.163   6.541  10.882  0.1898 -2.3129  0.4601
 8800TIP3    H250596   7.092   6.663  10.936  0.7150 -0.8613 -1.9914
 8801TIP3   OH250597   3.213   0.331  12.062  0.7676  0.4507 -0.1015
 8801TIP3    H150598   3.204   0.426  12.053 -1.2191  0.1554 -2.1841
 8801TIP3    H250599   3.151   0.307  12.130  1.0503  0.5883  0.2099
 8802TIP3   OH250600   6.440   2.270  11.768  0.1196  0.1085  0.5760
 8802TIP3    H150601   6.469   2.226  11.847 -1.0788  1.8734  2.0776
 8802TIP3    H250602   6.439   2.363  11.791  1.3838  0.8782 -2.0669
 8803TIP3   OH250603   4.515   1.335  11.697 -0.7311  0.4526 -0.3956
 8803TIP3    H150604   4.465   1.370  11.771 -0.1057  0.3481  0.0917
 8803TIP3    H250605   4.565   1.410  11.665 -0.5160  0.3500 -0.3010
 8804TIP3   OH250606   3.987   0.168  11.143  0.1143 -0.0187 -0.2410
 8804TIP3    H150607   3.894   0.173  11.163  0.6290  0.3923  2.5679
 8804TIP3    H250608   4.014   0.081  11.176  0.8135  0.1115 -0.4442
 8805TIP3   OH250609   3.182   5.904  11.883 -0.3025 -0.1938  0.7665
 8805TIP3    H150610   3.182   5.999  11.873  2.6014 -0.3441 -1.9672
 8805TIP3    H250611   3.239   5.888  11.959 -0.2350  0.2240  0.8077
 8806TIP3   OH250612   7.371   6.502  10.524  0.8302 -0.4356 -0.4487
 8806TIP3    H150613   7.404   6.592  10.526 -0.0906 -0.0865 -0.2215
 8806TIP3    H250614   7.447   6.448  10.543  0.8203  0.4837  2.8945
 8807TIP3   OH250615   1.402   6.051  10.990 -0.1234  0.0311  0.1034
 8807TIP3    H150616   1.426   6.134  10.949  0.8731 -0.5558 -0.5380
 8807TIP3    H250617   1.309   6.061  11.011 -1.0074  0.0258 -3.2051
 8808TIP3   OH250618   5.417   7.416  11.720 -0.7498  0.2118 -0.2334
 8808TIP3    H150619   5.414   7.426  11.625  0.2321  4.5210 -0.0496
 8808TIP3    H250620   5.509   7.431  11.743 -1.0494 -0.2993  1.4071
 8809TIP3   OH250621   1.642   7.011  13.087 -0.2132 -0.1596  0.3713
 8809TIP3    H150622   1.633   7.106  13.094  0.1392 -0.1674  0.9544
 8809TIP3    H250623   1.602   6.978  13.168 -2.1366 -0.6254 -0.6976
 8810TIP3   OH250624   2.341   4.305  12.899 -0.0596 -0.6514 -0.3711
 8810TIP3    H150625   2.348   4.294  12.994 -1.5409  0.6811 -0.0767
 8810TIP3    H250626   2.382   4.389  12.881 -0.8016 -0.3610 -0.7468
 8811TIP3   OH250627   7.220   2.765  11.908  0.4459 -0.0546  0.2821
 8811TIP3    H150628   7.299   2.790  11.955  0.0081  0.3246  0.8363
 8811TIP3    H250629   7.228   2.809  11.823  0.2144  1.0827  0.8302
 8812TIP3   OH250630   5.559   7.254  11.065 -0.4608 -0.5126 -0.2369
 8812TIP3    H150631   5.592   7.337  11.100  1.7979 -0.7440 -1.6358
 8812TIP3    H250632   5.596   7.187  11.123 -0.9804 -0.6472 -0.0515
 8813TIP3   OH250633   0.559   2.284  11.834  0.2298  0.3798 -0.2270
 8813TIP3    H150634   0.598   2.206  11.793 -1.0724 -0.6265  0.3509
 8813TIP3    H250635   0.623   2.354  11.819  1.5942 -0.8669 -0.4788
 8814TIP3   OH250636   3.323   6.322  12.157  0.7781  0.5656  0.6641
 8814TIP3    H150637   3.255   6.352  12.218  1.2464 -1.6336  2.4137
 8814TIP3    H250638   3.372   6.401  12.135 -1.6179  2.0375  0.2042
 8815TIP3   OH250639   2.439   7.011  11.313  0.6870  0.7062  0.3282
 8815TIP3    H150640   2.431   7.058  11.395  1.9509  0.3774  0.6652
 8815TIP3    H250641   2.434   6.918  11.338 -0.8576  0.6115 -0.2150
 8816TIP3   OH250642   0.909   5.747  13.117 -0.4291 -0.0075  0.8437
 8816TIP3    H150643   0.851   5.672  13.103 -0.0392 -0.0182 -1.0555
 8816TIP3    H250644   0.902   5.797  13.035  1.3233  0.6200  1.0500
 8817TIP3   OH250645   3.926   5.186  12.676 -0.0895 -0.2985 -0.1186
 8817TIP3    H150646   3.895   5.269  12.641 -2.2121 -1.0646 -0.1732
 8817TIP3    H250647   3.927   5.199  12.771 -1.0650 -0.4032 -0.0866
 8818TIP3   OH250648   6.527   0.705  10.797 -0.1461 -0.4759 -0.1548
 8818TIP3    H150649   6.573   0.667  10.872 -1.1568  0.1265  0.8065
 8818TIP3    H250650   6.455   0.645  10.779 -0.7457  0.0963  0.2829
 8819TIP3   OH250651   0.527   3.336  10.525  0.2626 -0.5681 -0.1062
 8819TIP3    H150652   0.611   3.367  10.493  0.5115 -1.9536 -0.8759
 8819TIP3    H250653   0.465   3.355  10.454  0.1182 -0.4540  0.0478
 8820TIP3   OH250654   1.642   7.530  10.547 -0.2970 -0.2795  0.2625
 8820TIP3    H150655   1.710   7.519  10.613 -1.0709  1.6427  1.4800
 8820TIP3    H250656   1.565   7.559  10.596 -1.2775 -0.0083 -1.3452
 8821TIP3   OH250657   5.310   7.006  11.014  0.1678  0.8997 -0.3229
 8821TIP3    H150658   5.302   7.070  11.085  0.9936  0.1488  0.4785
 8821TIP3    H250659   5.377   6.945  11.044 -1.1431 -0.8092 -0.6799
 8822TIP3   OH250660   4.240   5.652  12.522 -0.4869  0.2859 -0.7866
 8822TIP3    H150661   4.301   5.640  12.595 -0.9993  0.6161 -0.2994
 8822TIP3    H250662   4.172   5.710  12.556 -2.5842 -2.1969 -0.3737
 8823TIP3   OH250663   6.765   4.910  12.838 -0.7087 -0.1914  0.0913
 8823TIP3    H150664   6.682   4.897  12.884 -1.5193 -1.4237 -1.6213
 8823TIP3    H250665   6.822   4.840  12.871 -0.8345 -0.2251  0.2352
 8824TIP3   OH250666   4.057   1.054  11.545  0.1228 -0.0608  0.1796
 8824TIP3    H150667   4.001   1.123  11.510 -1.1904 -0.5541  1.1854
 8824TIP3    H250668   4.098   1.014  11.469 -2.3446 -0.8801 -0.8157
 8825TIP3   OH250669   1.416   7.420  12.990 -0.5456  0.0945 -0.0304
 8825TIP3    H150670   1.410   7.515  12.983  0.2597  0.3328  1.7896
 8825TIP3    H250671   1.325   7.390  12.983 -0.9191  1.0949  0.2879
 8826TIP3   OH250672   6.221   4.213  10.519 -0.1179 -0.1688 -0.5518
 8826TIP3    H150673   6.144   4.205  10.575 -0.8907 -0.0323 -1.5713
 8826TIP3    H250674   6.221   4.133  10.466  1.1545 -0.7537  0.2883
 8827TIP3   OH250675   0.298   4.966  12.378  0.7439 -0.8057 -0.0945
 8827TIP3    H150676   0.249   5.024  12.320  0.0907 -1.5762 -0.3380
 8827TIP3    H250677   0.267   4.988  12.466  1.8240  0.4493 -0.0110
 8828TIP3   OH250678   3.385   6.050  12.173  0.5636 -0.0839  0.2185
 8828TIP3    H150679   3.353   6.022  12.259  2.6229 -1.6202  0.5530
 8828TIP3    H250680   3.370   6.144  12.171 -0.7963 -0.2223  1.6720
 8829TIP3   OH250681   5.801   2.396  12.012  0.2899  0.1087 -0.7584
 8829TIP3    H150682   5.746   2.422  11.938  0.3708  0.2446 -0.7706
 8829TIP3    H250683   5.848   2.319  11.981 -1.4370 -1.3144 -0.0657
 8830TIP3   OH250684   6.869   3.416  13.545 -0.0443 -0.0773 -0.2107
 8830TIP3    H150685   6.792   3.361  13.532  0.3048 -0.7172  0.3920
 8830TIP3    H250686   6.861   3.450  13.634 -1.2053  2.3786 -1.1714
 8831TIP3   OH250687   6.887   3.581  11.172 -0.1058  0.1868  0.4892
 8831TIP3    H150688   6.794   3.578  11.152  0.1905 -0.0542 -0.9339
 8831TIP3    H250689   6.928   3.523  11.108  1.1873  1.5776 -0.0225
 8832TIP3   OH250690   6.622   7.090  11.546 -0.3538 -0.3198  0.0714
 8832TIP3    H150691   6.584   7.172  11.579  0.5252  0.4235 -0.7236
 8832TIP3    H250692   6.670   7.115  11.468 -0.0743 -1.6104 -0.1960
 8833TIP3   OH250693   6.075   5.737  12.426 -0.6056  0.2251 -0.3344
 8833TIP3    H150694   6.027   5.664  12.386 -0.8593  0.5100 -0.5616
 8833TIP3    H250695   6.119   5.698  12.502 -0.8044 -0.1463 -0.4046
 8834TIP3   OH250696   5.507   0.889  12.678 -0.1916  0.5130 -0.2853
 8834TIP3    H150697   5.600   0.906  12.695 -0.2560  1.0123 -0.4234
 8834TIP3    H250698   5.461   0.956  12.727 -0.5248 -0.3144  0.5636
 8835TIP3   OH250699   0.995   2.219  10.807  0.3976  0.0951 -0.3511
 8835TIP3    H150700   1.077   2.196  10.763  1.4113  1.0271  0.9661
 8835TIP3    H250701   1.006   2.311  10.832 -0.5608 -0.0976  0.8880
 8836TIP3   OH250702   4.293   0.224  13.215 -0.1269 -0.3138 -0.0801
 8836TIP3    H150703   4.353   0.257  13.148  0.8485  1.7270  1.6610
 8836TIP3    H250704   4.272   0.135  13.186  1.0424  0.1002 -2.5198
 8837TIP3   OH250705   5.455   7.042  11.375  0.1136  0.2284 -0.0573
 8837TIP3    H150706   5.433   7.062  11.466 -2.8930 -1.0331 -0.3908
 8837TIP3    H250707   5.391   7.091  11.324 -0.8187 -2.0786 -1.2633
 8838TIP3   OH250708   7.178   5.975  11.504  0.1137  0.0844  0.0418
 8838TIP3    H150709   7.175   6.065  11.535 -0.1488  0.7546 -1.8093
 8838TIP3    H250710   7.271   5.957  11.489  0.1599  0.0597  0.3478
 8839TIP3   OH250711   1.813   2.327  13.041  0.4092  0.3230 -1.1110
 8839TIP3    H150712   1.796   2.322  13.135  0.5392  1.3161 -1.0254
 8839TIP3    H250713   1.752   2.393  13.009  1.1528  0.8184 -1.5256
 8840TIP3   OH250714   3.438   7.021  11.589 -0.1697  0.0778  0.7821
 8840TIP3    H150715   3.501   7.004  11.519 -0.2287  0.6486  0.5897
 8840TIP3    H250716   3.492   7.049  11.663 -0.1411 -0.1392  0.8448
 8841TIP3   OH250717   2.414   1.349  10.489  0.2938  0.0258 -0.1564
 8841TIP3    H150718   2.330   1.338  10.444 -0.1569 -2.3762  1.0736
 8841TIP3    H250719   2.463   1.269  10.469  1.9718  0.9951 -0.1440
 8842TIP3   OH250720   7.347   0.692  11.928 -0.2688  0.0258 -0.2599
 8842TIP3    H150721   7.419   0.720  11.871  0.6911 -0.1636  0.8043
 8842TIP3    H250722   7.383   0.699  12.017 -1.7631  0.4365  0.3360
 8843TIP3   OH250723   4.556   6.181  12.669  0.0297 -0.3940 -0.0852
 8843TIP3    H150724   4.634   6.198  12.723 -1.0399  0.0882  1.3607
 8843TIP3    H250725   4.516   6.104  12.708 -0.9801  0.2019  0.0751
 8844TIP3   OH250726   3.932   0.244  12.685  0.0931  0.3858  0.2254
 8844TIP3    H150727   3.905   0.324  12.640  2.1766 -0.1198 -2.1338
 8844TIP3    H250728   3.859   0.225  12.745 -2.2428  1.9092 -1.9142
 8845TIP3   OH250729   6.036   0.973  12.167 -0.6859  0.5049  0.3183
 8845TIP3    H150730   6.084   0.928  12.236 -0.3144  0.8666  0.2982
 8845TIP3    H250731   6.095   1.042  12.137 -0.4845 -0.1991 -0.9800
 8846TIP3   OH250732   6.428   2.923  10.224  0.1957  0.6094  0.6460
 8846TIP3    H150733   6.425   2.985  10.151  0.5847 -1.5539 -1.3451
 8846TIP3    H250734   6.341   2.927  10.263 -0.6918  0.4228 -1.2239
 8847TIP3   OH250735   1.705   2.777  10.564  0.4592  0.0943 -0.2852
 8847TIP3    H150736   1.660   2.798  10.482 -0.2404  0.6208  0.2331
 8847TIP3    H250737   1.718   2.682  10.559  2.2833  0.3431 -1.9315
 8848TIP3   OH250738   4.413   0.824  12.933  0.0669  0.3640 -0.1251
 8848TIP3    H150739   4.320   0.839  12.913  0.2665 -0.6076 -2.0108
 8848TIP3    H250740   4.413   0.744  12.985 -0.1475  0.1711 -0.4138
 8849TIP3   OH250741   1.021   5.538  12.183 -0.0362  0.1202 -0.6581
 8849TIP3    H150742   1.091   5.476  12.164  0.6175 -0.2018  2.3449
 8849TIP3    H250743   0.948   5.484  12.214 -1.3876  0.5258 -2.9107
 8850TIP3   OH250744   3.371   5.390  11.519 -0.1427 -0.2768 -0.0968
 8850TIP3    H150745   3.364   5.485  11.511 -1.4350 -0.3785 -0.2422
 8850TIP3    H250746   3.461   5.376  11.549  0.6682  0.8721 -1.7928
 8851TIP3   OH250747   3.113   6.764  12.579 -0.0818 -0.1042 -0.0522
 8851TIP3    H150748   3.203   6.731  12.577 -0.8300 -2.2342 -0.3479
 8851TIP3    H250749   3.091   6.768  12.672  0.2105  0.1383  0.0079
 8852TIP3   OH250750   5.202   7.406  12.084 -0.2276  0.1897 -0.2970
 8852TIP3    H150751   5.273   7.404  12.148  0.5292  0.5315 -1.1013
 8852TIP3    H250752   5.244   7.431  12.002 -1.5706  2.3936 -0.4033
 8853TIP3   OH250753   6.128   3.594  10.952  0.1864 -0.0494 -0.1383
 8853TIP3    H150754   6.105   3.518  11.006 -1.7345  0.2128 -0.4969
 8853TIP3    H250755   6.165   3.557  10.872  0.1397 -0.5679  0.0764
 8854TIP3   OH250756   3.109   2.777  11.684 -0.2819  0.6222  0.1795
 8854TIP3    H150757   3.180   2.840  11.668  0.1638  0.6545  1.9881
 8854TIP3    H250758   3.039   2.829  11.724 -0.0504  0.0664  1.3608
 8855TIP3   OH250759   1.584   5.891  11.380 -0.6656 -0.2090  0.1238
 8855TIP3    H150760   1.600   5.814  11.435 -0.0359 -1.4348 -1.6935
 8855TIP3    H250761   1.670   5.918  11.349 -1.1030 -0.3244 -1.2579
 8856TIP3   OH250762   0.479   6.125  12.898 -0.0445  0.5795 -0.5032
 8856TIP3    H150763   0.548   6.157  12.955 -0.4776  0.6109  0.0189
 8856TIP3    H250764   0.415   6.196  12.895 -0.4673  0.2173 -0.2620
 8857TIP3   OH250765   2.985   4.547  11.401 -0.0021 -0.4378 -0.5173
 8857TIP3    H150766   3.006   4.596  11.480 -0.1412  0.2199 -0.8750
 8857TIP3    H250767   3.067   4.506  11.375  0.2871  0.1860 -0.6045
 8858TIP3   OH250768   0.244   1.633  11.257  0.5579 -0.4208  0.2871
 8858TIP3    H150769   0.252   1.540  11.237 -1.1332 -1.2003  2.7252
 8858TIP3    H250770   0.167   1.661  11.209  0.9481 -0.3130 -0.2849
 8859TIP3   OH250771   2.871   5.731  11.459 -0.1691 -0.1400  0.1693
 8859TIP3    H150772   2.897   5.789  11.387 -1.0182  2.8442  2.0387
 8859TIP3    H250773   2.940   5.742  11.524 -1.9335  1.5157  1.8933
 8860TIP3   OH250774   3.239   1.417  11.392 -0.5970 -0.1531 -0.3651
 8860TIP3    H150775   3.219   1.493  11.447  0.5159 -1.3316  1.7816
 8860TIP3    H250776   3.309   1.447  11.334 -1.4682  0.9868 -0.8476
 8861TIP3   OH250777   3.790   2.524  10.531 -0.5305 -0.1640  0.1675
 8861TIP3    H150778   3.742   2.602  10.560  1.1115  0.6124  0.9222
 8861TIP3    H250779   3.786   2.465  10.606  0.5761  0.3514  0.6605
 8862TIP3   OH250780   5.694   1.135  11.011  0.4921  0.7368 -0.2207
 8862TIP3    H150781   5.683   1.210  11.069  0.6170 -0.4731  1.4525
 8862TIP3    H250782   5.639   1.067  11.049  0.6836 -0.1491 -1.4609
 8863TIP3   OH250783   6.840   1.664  11.987 -0.4562  0.6347 -0.3267
 8863TIP3    H150784   6.805   1.739  12.035  0.8802  1.5117 -0.6577
 8863TIP3    H250785   6.763   1.617  11.956 -1.3342  0.7252  1.6037
 8864TIP3   OH250786   7.569   4.367  11.750 -0.0445 -0.0834 -0.4110
 8864TIP3    H150787   7.528   4.356  11.836  0.3831 -1.3304 -0.3404
 8864TIP3    H250788   7.651   4.413  11.768 -0.1014 -0.0683 -0.1915
 8865TIP3   OH250789   1.859   4.678  13.195  0.3867 -0.5332  0.0628
 8865TIP3    H150790   1.829   4.593  13.226  0.9484 -0.9851 -0.5939
 8865TIP3    H250791   1.892   4.661  13.107  0.7317  0.3142  0.0167
 8866TIP3   OH250792   1.711   0.572  13.049 -0.0624  0.3156 -0.3677
 8866TIP3    H150793   1.632   0.571  13.102  1.5337  0.1138  2.1758
 8866TIP3    H250794   1.756   0.653  13.073  0.3611  0.6140 -2.0444
 8867TIP3   OH250795   4.799   7.042  12.163  0.1716 -0.0322 -0.0317
 8867TIP3    H150796   4.865   7.084  12.109  0.0104 -3.2141 -2.9976
 8867TIP3    H250797   4.719   7.092  12.147  0.4612 -0.0523 -1.6868
 8868TIP3   OH250798   4.299   7.196  11.657  0.3701 -0.7024 -0.0775
 8868TIP3    H150799   4.242   7.268  11.683  2.0752  0.7531 -0.1888
 8868TIP3    H250800   4.245   7.118  11.669 -0.6539  0.3081  2.7054
 8869TIP3   OH250801   5.339   4.041  10.814 -0.1831  0.4403  0.0909
 8869TIP3    H150802   5.388   4.063  10.735 -1.8328  1.1488 -0.7789
 8869TIP3    H250803   5.399   4.061  10.886  1.3491 -0.2125 -0.9564
 8870TIP3   OH250804   5.227   3.819  11.014 -0.2042 -0.3664 -0.6682
 8870TIP3    H150805   5.248   3.882  11.083 -0.8414  1.0572 -1.7120
 8870TIP3    H250806   5.196   3.873  10.941 -1.1550 -1.9261 -1.4830
 8871TIP3   OH250807   2.465   2.033  11.901  0.1403 -0.4383  0.4821
 8871TIP3    H150808   2.495   2.120  11.876  0.4582 -0.1274  1.8827
 8871TIP3    H250809   2.514   1.974  11.844  2.3777  0.1344  1.7039
 8872TIP3   OH250810   0.809   4.262  11.815 -0.5076 -0.5385  0.0959
 8872TIP3    H150811   0.892   4.308  11.824 -0.1163 -1.2468  0.1808
 8872TIP3    H250812   0.806   4.203  11.890 -0.3042 -1.7236 -0.7991
 8873TIP3   OH250813   3.030   1.111  10.329  0.3759 -0.3215  0.5723
 8873TIP3    H150814   2.986   1.168  10.267  0.2484  0.8215  1.6776
 8873TIP3    H250815   3.087   1.169  10.379  1.7622 -1.4909  0.4024
 8874TIP3   OH250816   5.782   0.325  10.958  0.0401 -0.0265 -0.0088
 8874TIP3    H150817   5.805   0.412  10.989  0.0230  0.1191 -0.3993
 8874TIP3    H250818   5.747   0.280  11.035  0.3557  0.2013  0.2708
 8875TIP3   OH250819   6.798   0.844  11.097 -0.1425 -0.0393  0.1943
 8875TIP3    H150820   6.889   0.847  11.068 -0.3859 -1.8987 -0.9303
 8875TIP3    H250821   6.797   0.780  11.169 -0.5503  0.0025  0.2323
 8876TIP3   OH250822   4.499   5.354  11.248  0.0454 -0.5181  0.2634
 8876TIP3    H150823   4.433   5.347  11.180  0.4784  0.5860 -0.2931
 8876TIP3    H250824   4.503   5.448  11.269  0.1926 -0.7897  1.5348
 8877TIP3   OH250825   3.517   0.159  10.506 -0.2787 -0.4589 -0.0177
 8877TIP3    H150826   3.557   0.241  10.478 -1.2924 -0.0540 -0.3045
 8877TIP3    H250827   3.548   0.147  10.596 -0.0996  0.2158  0.0117
 8878TIP3   OH250828   0.453   0.521  11.975 -0.0419 -0.5959  0.0735
 8878TIP3    H150829   0.438   0.609  12.008 -1.2570 -1.0485  0.8067
 8878TIP3    H250830   0.399   0.515  11.896  1.1003 -0.2601 -0.7639
 8879TIP3   OH250831   3.073   2.266  12.620  0.3589 -0.1635  0.0488
 8879TIP3    H150832   3.115   2.351  12.630 -1.2663  0.8783 -1.3462
 8879TIP3    H250833   3.083   2.245  12.527 -1.7662 -0.0282 -0.2718
 8880TIP3   OH250834   0.780   3.133  12.583 -0.3493 -0.0159 -0.1377
 8880TIP3    H150835   0.709   3.179  12.539 -0.5017 -1.5161 -1.5739
 8880TIP3    H250836   0.848   3.124  12.516  1.7270  2.2746  1.4635
 8881TIP3   OH250837   1.859   3.196  11.626  0.1997 -0.6392  0.3528
 8881TIP3    H150838   1.954   3.193  11.617  0.0978 -1.6485 -0.5728
 8881TIP3    H250839   1.829   3.110  11.597 -1.1755  0.5310 -2.1227
 8882TIP3   OH250840   2.633   0.189  11.610  0.2703 -0.3424 -0.0970
 8882TIP3    H150841   2.648   0.197  11.516  0.1889  0.0416 -0.0787
 8882TIP3    H250842   2.704   0.133  11.641  0.4011 -0.3222 -0.3576
 8883TIP3   OH250843   2.630   6.589  11.889 -0.2226  0.0293 -0.5592
 8883TIP3    H150844   2.594   6.505  11.918 -0.0760 -0.4367 -1.6613
 8883TIP3    H250845   2.574   6.655  11.931 -1.3434 -0.6442 -0.9371
 8884TIP3   OH250846   5.349   5.613  10.918  0.4445 -0.4583 -0.6388
 8884TIP3    H150847   5.266   5.572  10.943 -0.2080  0.5934 -0.9826
 8884TIP3    H250848   5.383   5.557  10.849 -0.3003 -0.5805 -0.9247
 8885TIP3   OH250849   2.551   2.498  11.094  0.1877  0.1964  0.0855
 8885TIP3    H150850   2.493   2.424  11.110 -0.1917  0.4834  0.0620
 8885TIP3    H250851   2.507   2.572  11.135  0.3341  0.4979 -0.2894
 8886TIP3   OH250852   6.704   2.980  11.219 -0.5682  0.5015  0.1550
 8886TIP3    H150853   6.621   3.026  11.230 -0.9742  0.0009 -0.7273
 8886TIP3    H250854   6.746   2.984  11.305 -1.6160  0.5500  0.6733
 8887TIP3   OH250855   1.151   4.690  13.087  0.6430 -0.2204  0.3845
 8887TIP3    H150856   1.072   4.742  13.103  0.5097 -0.6723  1.2560
 8887TIP3    H250857   1.219   4.755  13.071  0.5115  0.2488  1.5943
 8888TIP3   OH250858   2.801   6.922  11.745  0.1708 -0.0263 -0.8143
 8888TIP3    H150859   2.801   6.861  11.819  0.6659  0.2053 -0.6219
 8888TIP3    H250860   2.714   6.911  11.706  0.0864 -0.5182 -0.5053
 8889TIP3   OH250861   6.912   3.222  13.020 -0.2817  0.2657  0.3879
 8889TIP3    H150862   6.829   3.209  13.067  0.4805  0.3696  1.8310
 8889TIP3    H250863   6.886   3.237  12.929 -1.7398 -1.6296  0.4263
 8890TIP3   OH250864   2.712   6.852  11.096 -0.7003 -0.3584  0.3522
 8890TIP3    H150865   2.744   6.766  11.067  3.2368  0.9042  0.3708
 8890TIP3    H250866   2.685   6.896  11.015 -0.7653 -0.8855  0.0823
 8891TIP3   OH250867   7.455   7.187  13.275 -0.7774 -0.3777  0.1523
 8891TIP3    H150868   7.416   7.226  13.353 -2.0514 -1.8216  0.2720
 8891TIP3    H250869   7.408   7.226  13.201  0.0954  0.6193  0.0969
 8892TIP3   OH250870   6.741   6.179  10.798 -0.1094  0.4761 -0.8360
 8892TIP3    H150871   6.756   6.112  10.731 -3.1592 -1.5687  0.3280
 8892TIP3    H250872   6.726   6.260  10.748  2.6391  0.1936 -2.3167
 8893TIP3   OH250873   4.431   0.225  10.893  0.2497 -0.6611  0.0925
 8893TIP3    H150874   4.373   0.151  10.911 -1.2456  0.4312 -0.0762
 8893TIP3    H250875   4.420   0.283  10.968 -0.5399  0.5543 -0.9130
 8894TIP3   OH250876   3.883   0.547  10.553 -0.4936  0.1245  0.0589
 8894TIP3    H150877   3.965   0.507  10.582  0.0875  1.7351  0.7292
 8894TIP3    H250878   3.901   0.641  10.552 -2.0102  0.4341 -0.8352
 8895TIP3   OH250879   6.556   6.126  11.015 -0.4653  0.6885 -0.5703
 8895TIP3    H150880   6.624   6.142  10.949  3.6553  0.6047  3.1926
 8895TIP3    H250881   6.578   6.186  11.086 -1.5849 -2.4311  2.6710
 8896TIP3   OH250882   1.314   5.027  12.140  0.3290 -0.4765 -0.7020
 8896TIP3    H150883   1.312   5.083  12.217 -2.1816  0.5059 -1.3796
 8896TIP3    H250884   1.306   4.938  12.174  1.5096 -0.2402  0.2433
 8897TIP3   OH250885   4.299   5.677  11.680 -0.3023  0.3396  0.1428
 8897TIP3    H150886   4.314   5.712  11.592 -2.1253  0.6584 -0.0801
 8897TIP3    H250887   4.280   5.584  11.665 -3.3417  0.9052 -0.1894
 8898TIP3   OH250888   4.368   3.416  11.599 -0.5972  0.0381 -0.2461
 8898TIP3    H150889   4.437   3.477  11.625 -0.6284  0.2476 -0.6558
 8898TIP3    H250890   4.290   3.470  11.590 -1.4631 -0.5428  2.6776
 8899TIP3   OH250891   5.312   4.284  11.766  0.7240  0.2283  0.0229
 8899TIP3    H150892   5.281   4.374  11.779 -0.8371 -0.2086 -0.5418
 8899TIP3    H250893   5.367   4.267  11.842 -1.1558  0.7288  1.5595
 8900TIP3   OH250894   2.570   6.020  11.063 -0.3041  0.8028  0.5134
 8900TIP3    H150895   2.651   6.012  11.013 -0.7737 -0.7014 -0.0395
 8900TIP3    H250896   2.599   6.028  11.154  0.5005  2.2544  0.1643
 8901TIP3   OH250897   0.097   5.418  11.772  0.6615 -0.0101 -0.6036
 8901TIP3    H150898   0.005   5.398  11.790  0.6532 -0.5928 -1.2394
 8901TIP3    H250899   0.133   5.335  11.740  1.2628  0.3620 -0.9019
 8902TIP3   OH250900   3.714   0.267  11.863 -0.1329 -0.0620 -0.0178
 8902TIP3    H150901   3.681   0.217  11.788 -0.6609  1.1454 -0.6235
 8902TIP3    H250902   3.761   0.203  11.916 -0.6631 -1.1631 -0.8334
 8903TIP3   OH250903   4.296   1.975  11.196 -0.2458 -0.1394  0.5201
 8903TIP3    H150904   4.365   1.977  11.130 -0.2976 -0.2139  0.4639
 8903TIP3    H250905   4.221   1.934  11.152 -0.4909  0.3875  0.4238
 8904TIP3   OH250906   7.037   3.846  11.371 -0.2819  0.0442 -0.4924
 8904TIP3    H150907   7.092   3.778  11.331 -0.2033 -2.0630  2.8521
 8904TIP3    H250908   6.961   3.799  11.405 -0.6075  1.7216  1.2816
 8905TIP3   OH250909   4.945   4.240  11.451 -0.1586 -0.0713  0.1742
 8905TIP3    H150910   4.947   4.334  11.435  1.7359 -0.2336 -0.8641
 8905TIP3    H250911   4.928   4.201  11.365 -0.9008 -0.6730  0.5899
 8906TIP3   OH250912   7.152   3.179  13.620 -0.2264 -0.1905  0.1760
 8906TIP3    H150913   7.242   3.151  13.600  0.3102 -1.2083  3.4862
 8906TIP3    H250914   7.160   3.271  13.645 -0.2331 -0.0787 -0.2296
 8907TIP3   OH250915   1.336   4.707  11.022 -0.0604 -0.4721 -0.0228
 8907TIP3    H150916   1.285   4.643  11.071 -1.0784  0.1822 -0.1962
 8907TIP3    H250917   1.283   4.787  11.025  1.0835  0.3084  0.0159
 8908TIP3   OH250918   5.886   1.408  12.127  0.5678 -0.2918 -0.2620
 8908TIP3    H150919   5.968   1.415  12.078  2.3680  0.8237  2.6569
 8908TIP3    H250920   5.869   1.314  12.134  1.2346 -0.5129 -1.3801
 8909TIP3   OH250921   0.586   1.751  11.096  0.3257  0.1662 -0.2673
 8909TIP3    H150922   0.552   1.740  11.185  1.4143 -0.8207  0.0553
 8909TIP3    H250923   0.583   1.846  11.081  0.8973  0.4413  1.1611
 8910TIP3   OH250924   2.223   0.229  11.124  0.1143 -0.8282  0.2494
 8910TIP3    H150925   2.281   0.304  11.116 -0.3426 -0.3173  1.4108
 8910TIP3    H250926   2.171   0.230  11.044  0.9071 -0.6104 -0.2744
 8911TIP3   OH250927   7.344   1.765  10.478 -0.2478 -0.0828  0.2540
 8911TIP3    H150928   7.271   1.793  10.423  0.0216 -0.3870 -0.2627
 8911TIP3    H250929   7.308   1.693  10.531 -0.6481  0.5414  0.8495
 8912TIP3   OH250930   6.951   2.773  12.704  0.0913  0.0063  0.7759
 8912TIP3    H150931   6.955   2.865  12.679  0.0896 -0.2991 -0.4092
 8912TIP3    H250932   6.906   2.730  12.631 -0.4640 -0.8408  1.5899
 8913TIP3   OH250933   4.549   3.813  12.414 -0.0375  0.2033 -0.2696
 8913TIP3    H150934   4.550   3.742  12.478 -1.2666 -1.7500 -2.2710
 8913TIP3    H250935   4.531   3.892  12.466  2.3178 -0.7016  2.1535
 8914TIP3   OH250936   5.613   7.642  11.422 -0.6784  0.2109  0.0437
 8914TIP3    H150937   5.648   7.728  11.445 -0.4366 -0.2446  1.4470
 8914TIP3    H250938   5.638   7.585  11.494 -0.4399 -1.1671 -1.0730
 8915TIP3   OH250939   6.659   4.526  12.025  0.7293  0.0517  0.7387
 8915TIP3    H150940   6.582   4.583  12.029  0.6574  0.2148 -1.6363
 8915TIP3    H250941   6.623   4.438  12.031  0.5771  0.1630  1.6490
 8916TIP3   OH250942   6.281   6.190  13.018 -0.3483  0.1787  0.4593
 8916TIP3    H150943   6.353   6.235  12.974 -2.0500  2.2010 -0.3925
 8916TIP3    H250944   6.289   6.099  12.989  1.1777  0.5776 -0.4975
 8917TIP3   OH250945   5.452   6.418  12.991  0.2041  0.0970 -0.5287
 8917TIP3    H150946   5.437   6.408  13.085  1.1743 -0.0074 -0.3728
 8917TIP3    H250947   5.365   6.431  12.954 -0.2455 -0.4298  0.3130
 8918TIP3   OH250948   5.535   4.799  10.549 -0.1227 -1.0663 -0.2679
 8918TIP3    H150949   5.618   4.809  10.501  0.4054 -0.5942  0.7036
 8918TIP3    H250950   5.539   4.710  10.585  0.7561 -0.4729  1.1768
 8919TIP3   OH250951   3.549   3.185  11.685  0.0509 -0.0421 -0.6672
 8919TIP3    H150952   3.597   3.105  11.704  0.5857  0.5690  0.6848
 8919TIP3    H250953   3.563   3.200  11.592 -1.1998 -2.2302 -1.2905
 8920TIP3   OH250954   1.402   5.829  12.546 -0.5845  0.6693  0.7398
 8920TIP3    H150955   1.463   5.788  12.607 -0.5011 -1.4437 -0.6277
 8920TIP3    H250956   1.457   5.852  12.470 -1.1676  0.4359  0.2422
 8921TIP3   OH250957   6.329   0.048  11.857 -0.2933  0.7582 -0.1079
 8921TIP3    H150958   6.256   0.063  11.917 -0.3110  0.1237  0.0330
 8921TIP3    H250959   6.350  -0.044  11.867  1.4792  1.2408  0.9366
 8922TIP3   OH250960   3.317   2.285  11.895 -0.4956 -0.2612 -0.3155
 8922TIP3    H150961   3.222   2.288  11.903 -0.4685  2.2261 -0.1651
 8922TIP3    H250962   3.341   2.373  11.866  2.1227  0.7963  4.1522
 8923TIP3   OH250963   7.379   6.335  10.983 -0.1646  0.2604 -0.8073
 8923TIP3    H150964   7.393   6.303  11.072 -3.2940  0.7733 -0.0035
 8923TIP3    H250965   7.302   6.287  10.952 -0.9989  2.2527 -2.0166
 8924TIP3   OH250966   2.065   0.968  12.467  0.3862 -0.2948  0.5402
 8924TIP3    H150967   2.065   0.941  12.558  2.2264  0.0332  0.6708
 8924TIP3    H250968   2.157   0.980  12.445 -0.0978  1.1801 -0.9068
 8925TIP3   OH250969   6.934   0.558  13.013 -0.5113  0.0172  0.3276
 8925TIP3    H150970   6.992   0.525  13.081 -0.7627 -1.9078 -0.3315
 8925TIP3    H250971   6.885   0.629  13.055  0.4463 -0.0781  1.6624
 8926TIP3   OH250972   7.124   1.131  11.985  0.2316 -0.1784  0.1993
 8926TIP3    H150973   7.158   1.218  11.963 -0.8140  0.0458 -0.6065
 8926TIP3    H250974   7.128   1.127  12.081  1.0189  0.4526  0.1950
 8927TIP3   OH250975   2.333   2.667  11.148  0.1319  0.1760  0.1297
 8927TIP3    H150976   2.254   2.689  11.196  1.2826  2.9386  0.9101
 8927TIP3    H250977   2.336   2.730  11.076  1.5919  0.1192  0.1116
 8928TIP3   OH250978   7.666   7.103  13.136 -0.1342 -0.1736 -0.5401
 8928TIP3    H150979   7.638   7.144  13.054 -0.9328 -1.3478 -0.8808
 8928TIP3    H250980   7.600   7.130  13.200 -0.1121 -0.1400 -0.5308
 8929TIP3   OH250981   3.877   0.174  10.442 -0.6445  0.2792  0.0026
 8929TIP3    H150982   3.795   0.124  10.446 -0.0609 -0.6833  0.0581
 8929TIP3    H250983   3.879   0.224  10.524 -1.1848  0.3345 -0.0132
 8930TIP3   OH250984   5.007   0.056  10.811  0.4084 -0.2495 -0.3924
 8930TIP3    H150985   5.075  -0.010  10.822  0.2504 -0.2420  0.7127
 8930TIP3    H250986   4.930   0.007  10.782  0.3426 -0.5257  0.2470
 8931TIP3   OH250987   2.377   0.429  12.287 -0.1239 -0.0107  0.5502
 8931TIP3    H150988   2.439   0.496  12.257  0.0546  0.5310  2.0708
 8931TIP3    H250989   2.291   0.465  12.264  0.0283  0.0473  0.0372
 8932TIP3   OH250990   0.326   1.955  12.871 -0.4514 -0.0789 -0.3678
 8932TIP3    H150991   0.328   2.015  12.945 -0.8689 -0.7015  0.1580
 8932TIP3    H250992   0.355   1.871  12.907  0.0830 -0.2149 -1.0840
 8933TIP3   OH250993   6.639   2.236  11.239  0.2719 -0.3831 -0.3373
 8933TIP3    H150994   6.654   2.239  11.334  0.2116  0.9374 -0.3489
 8933TIP3    H250995   6.714   2.188  11.205  2.6053  2.7012  0.0095
 8934TIP3   OH250996   7.233   2.368  11.633 -0.8815  0.1524 -0.1036
 8934TIP3    H150997   7.247   2.452  11.591 -0.3571 -1.2613 -2.9784
 8934TIP3    H250998   7.242   2.386  11.727  0.6706  2.9964 -0.7019
 8935TIP3   OH250999   3.035   2.791  11.123 -0.5350  1.0016 -0.1993
 8935TIP3    H151000   2.966   2.808  11.187 -0.6495 -1.2233  0.3660
 8935TIP3    H251001   2.990   2.794  11.038 -1.8490 -2.0640  0.2383
 8936TIP3   OH251002   0.149   7.555  10.844  0.0417 -0.3371  0.9775
 8936TIP3    H151003   0.231   7.536  10.890 -1.1059 -0.1414  3.2158
 8936TIP3    H251004   0.149   7.494  10.770  1.8111 -0.9245  1.4176
 8937TIP3   OH251005   4.321   5.004  11.043  0.2379 -0.4813 -0.1382
 8937TIP3    H151006   4.387   4.936  11.058  0.2827 -0.3292  0.3624
 8937TIP3    H251007   4.238   4.956  11.036  0.3958 -0.6717 -0.7605
 8938TIP3   OH251008   5.420   7.365  12.941  0.1491  0.5298 -0.2230
 8938TIP3    H151009   5.448   7.410  13.021  1.7865 -1.5885  0.5089
 8938TIP3    H251010   5.421   7.433  12.873 -0.7423  2.2665  1.4085
 8939TIP3   OH251011   1.546   2.133  12.812  0.2423 -0.1819  0.1447
 8939TIP3    H151012   1.552   2.185  12.892 -1.5946 -2.1891  1.7042
 8939TIP3    H251013   1.636   2.129  12.780  1.2382 -0.0668  2.6570
 8940TIP3   OH251014   3.941   4.281  11.207 -0.2821 -0.0123  1.0042
 8940TIP3    H151015   3.948   4.344  11.135 -0.2799 -0.5096  0.5617
 8940TIP3    H251016   3.939   4.335  11.286 -2.3674  0.6897  0.5497
 8941TIP3   OH251017   4.173   0.649  11.235 -0.1694 -0.3439  0.2857
 8941TIP3    H151018   4.154   0.681  11.323  1.0291  0.6094  0.2247
 8941TIP3    H251019   4.229   0.717  11.196 -1.5736 -0.1971 -1.6141
 8942TIP3   OH251020   3.040   5.193  10.985 -0.3151  0.4215  0.2394
 8942TIP3    H151021   3.128   5.191  11.024  1.0539  1.0431 -2.5167
 8942TIP3    H251022   3.018   5.286  10.981  0.1535  0.5011 -1.4633
 8943TIP3   OH251023   2.674   3.793  12.267 -0.1321  0.0885  0.5952
 8943TIP3    H151024   2.685   3.821  12.358  1.3540 -1.0276  0.7900
 8943TIP3    H251025   2.700   3.869  12.215  0.9006  0.1135  1.1187
 8944TIP3   OH251026   0.099   6.771  12.875  0.4508  0.2147  1.1579
 8944TIP3    H151027   0.114   6.812  12.961 -3.0696 -0.5183  2.3113
 8944TIP3    H251028   0.119   6.679  12.889 -1.4097 -0.1542  1.7009
 8945TIP3   OH251029   4.771   2.161  11.915 -0.9213  0.5271 -0.2621
 8945TIP3    H151030   4.793   2.103  11.987  1.0294  0.7410 -0.6368
 8945TIP3    H251031   4.761   2.247  11.955  2.2826  1.0704 -0.4323
 8946TIP3   OH251032   1.854   1.307  10.259  0.2993  0.0843 -0.5645
 8946TIP3    H151033   1.860   1.292  10.164  0.0263  0.7751 -0.6941
 8946TIP3    H251034   1.775   1.360  10.270  1.8775  2.5339 -0.2651
 8947TIP3   OH251035   5.995   0.544  13.273  0.4840  0.1405 -0.0339
 8947TIP3    H151036   5.949   0.471  13.316  0.5353 -1.2527 -2.1565
 8947TIP3    H251037   5.925   0.593  13.230  0.6720 -0.4506 -1.0738
 8948TIP3   OH251038   3.430   5.669  11.793  0.3405  0.0750  0.0634
 8948TIP3    H151039   3.415   5.734  11.725 -0.1762  0.8645  0.9030
 8948TIP3    H251040   3.369   5.693  11.863  0.1154 -1.3476  0.3749
 8949TIP3   OH251041   0.280   0.507  11.775 -0.2011 -0.0561 -0.2022
 8949TIP3    H151042   0.222   0.443  11.816 -0.0952  0.4349  0.7498
 8949TIP3    H251043   0.293   0.475  11.686  0.2961 -1.6534  0.4120
 8950TIP3   OH251044   5.960   7.550  11.515 -1.0821 -0.2787  0.4139
 8950TIP3    H151045   5.950   7.473  11.458  0.1399 -0.2094  0.0735
 8950TIP3    H251046   5.991   7.514  11.598  0.7433 -0.0809 -0.1382
 8951TIP3   OH251047   5.393   5.432  11.457  0.3072  0.1408 -0.1717
 8951TIP3    H151048   5.315   5.386  11.488  0.6087 -1.0254 -1.0933
 8951TIP3    H251049   5.460   5.411  11.522  0.2079  0.0477 -0.0990
 8952TIP3   OH251050   0.027   1.360  12.878  0.5674  0.5536  0.6236
 8952TIP3    H151051   0.069   1.275  12.870  0.4478  0.6743 -1.9690
 8952TIP3    H251052  -0.051   1.354  12.823 -0.0684  2.0029  1.2984
 8953TIP3   OH251053   4.676   1.593  12.361 -0.2263  0.2642 -0.0991
 8953TIP3    H151054   4.639   1.532  12.424 -0.2257  0.7960  0.4238
 8953TIP3    H251055   4.600   1.633  12.319 -0.2323  0.2821 -0.0723
 8954TIP3   OH251056   6.436   2.750  12.171  0.2337 -0.9991 -0.2168
 8954TIP3    H151057   6.346   2.764  12.200 -0.0343 -2.5723 -0.2111
 8954TIP3    H251058   6.467   2.837  12.148 -1.5041 -0.5037 -0.8509
 8955TIP3   OH251059   6.775   2.020  11.776  0.2342 -0.5550  0.7528
 8955TIP3    H151060   6.762   2.110  11.747 -1.2084 -0.4002  1.7239
 8955TIP3    H251061   6.753   1.966  11.700  2.0810 -0.0979 -0.1396
 8956TIP3   OH251062   7.047   2.290  12.067 -0.4183 -0.2173 -0.4807
 8956TIP3    H151063   7.092   2.242  11.997  0.2575 -1.0598  0.5044
 8956TIP3    H251064   7.056   2.382  12.042 -0.6524 -0.5115 -1.7634
 8957TIP3   OH251065   3.133   5.051  11.378  0.0709  0.2096  0.2599
 8957TIP3    H151066   3.186   4.972  11.383  0.6599  0.5238 -0.8228
 8957TIP3    H251067   3.061   5.029  11.320 -0.2824  0.1926  0.6929
 8958TIP3   OH251068   6.873   5.155  11.760  0.1306  0.0649 -0.1840
 8958TIP3    H151069   6.786   5.160  11.722  1.0072 -0.3287 -2.4383
 8958TIP3    H251070   6.932   5.147  11.684  2.1203  0.2356  1.2463
 8959TIP3   OH251071   4.890   1.407  11.801  0.1653  0.3297  0.2039
 8959TIP3    H151072   4.972   1.382  11.759 -0.0210  1.3145 -0.7949
 8959TIP3    H251073   4.845   1.460  11.736 -1.3484 -0.3323  0.6743
 8960TIP3   OH251074   2.535   0.621  10.688 -0.1812 -0.0844  0.0640
 8960TIP3    H151075   2.597   0.595  10.755  0.6360 -1.1704 -1.0724
 8960TIP3    H251076   2.556   0.713  10.671  1.3548 -0.5079 -0.5099
 8961TIP3   OH251077   2.981   5.179  11.695 -0.5746 -0.2330  0.1859
 8961TIP3    H151078   2.902   5.125  11.705 -0.2800 -0.7938 -0.4548
 8961TIP3    H251079   3.053   5.116  11.698 -0.2430  0.0685 -0.9732
 8962TIP3   OH251080   6.668   6.655  11.600 -0.2324 -0.5028  0.0887
 8962TIP3    H151081   6.576   6.650  11.625 -0.0593 -0.6108  0.7216
 8962TIP3    H251082   6.706   6.573  11.631  0.0055 -0.6172 -0.4877
 8963TIP3   OH251083   3.232   4.868  11.680  0.0911 -0.0606  0.3143
 8963TIP3    H151084   3.271   4.826  11.603 -0.2264  1.1873 -0.5554
 8963TIP3    H251085   3.296   4.933  11.707 -0.2890  0.2752  0.4179
 8964TIP3   OH251086   2.543   1.734  12.567 -0.2798  0.4654  0.2575
 8964TIP3    H151087   2.586   1.793  12.629  0.4004 -0.6427  0.8724
 8964TIP3    H251088   2.602   1.730  12.492  0.5824 -0.8034  0.9674
 8965TIP3   OH251089   3.433   1.463  12.446  0.0082  0.1883 -0.0790
 8965TIP3    H151090   3.340   1.438  12.445 -0.5579  2.0692 -1.3157
 8965TIP3    H251091   3.466   1.433  12.361  0.6872 -0.8229  0.5096
 8966TIP3   OH251092   4.264   4.344  11.871  0.4185  0.8177  0.3979
 8966TIP3    H151093   4.319   4.390  11.934  0.0558 -0.0071  1.3462
 8966TIP3    H251094   4.324   4.288  11.822  0.3849 -0.5667  1.8683
 8967TIP3   OH251095   1.266   1.628  12.634  0.4790 -0.0123 -0.7353
 8967TIP3    H151096   1.250   1.565  12.703  0.6818 -0.7381 -1.3410
 8967TIP3    H251097   1.290   1.709  12.680  2.9480 -1.0992  0.0472
 8968TIP3   OH251098   1.218   0.183  10.629  0.2197 -0.0168 -0.7563
 8968TIP3    H151099   1.150   0.125  10.595 -0.0499 -0.0197 -0.2036
 8968TIP3    H251100   1.232   0.155  10.719  0.8048  0.1216 -0.7961
 8969TIP3   OH251101   1.966   0.689  12.352 -0.0849 -0.6275  0.1753
 8969TIP3    H151102   1.998   0.764  12.302  0.4217 -0.0727  1.3115
 8969TIP3    H251103   2.028   0.678  12.423 -1.9441 -0.0103  1.9958
 8970TIP3   OH251104   3.625   4.726  12.021  0.0067  0.8327  0.0557
 8970TIP3    H151105   3.634   4.762  11.933 -0.8063 -2.2056 -1.4153
 8970TIP3    H251106   3.713   4.693  12.043  0.2439  1.7165  0.4957
 8971TIP3   OH251107   7.531   1.483  11.603 -0.1121  0.1278 -0.3949
 8971TIP3    H151108   7.460   1.435  11.646  1.8489 -1.5493  1.1177
 8971TIP3    H251109   7.608   1.464  11.655  2.1095 -0.6147 -3.6798
 8972TIP3   OH251110   6.545   5.033  11.867  0.0510  0.1263  0.0742
 8972TIP3    H151111   6.597   5.013  11.945 -1.3859 -0.3468  0.9481
 8972TIP3    H251112   6.547   4.952  11.816 -0.7551 -0.2982  0.6797
 8973TIP3   OH251113   4.072   6.822  12.313  0.2581  1.0560  0.0041
 8973TIP3    H151114   4.115   6.756  12.258 -1.3958 -0.1940  0.1211
 8973TIP3    H251115   4.067   6.900  12.259 -0.8882  0.0008 -1.4950
 8974TIP3   OH251116   4.282   1.822  10.780  0.3438  0.2793 -0.0792
 8974TIP3    H151117   4.296   1.732  10.808 -0.7694 -0.4229 -1.6408
 8974TIP3    H251118   4.188   1.836  10.790  0.1583  0.5110 -1.8828
 8975TIP3   OH251119   7.674   3.752  12.623  0.5790 -0.6254  0.4324
 8975TIP3    H151120   7.708   3.664  12.641  2.2490 -0.0970  0.0761
 8975TIP3    H251121   7.673   3.757  12.527 -1.1775 -0.8361  0.4082
 8976TIP3   OH251122   3.657   5.744  12.147  0.6382 -0.3066  0.4458
 8976TIP3    H151123   3.577   5.756  12.197 -0.6177 -1.0328 -1.2993
 8976TIP3    H251124   3.721   5.713  12.211 -0.5695 -0.1106  1.7947
 8977TIP3   OH251125   3.306   7.291  11.004 -0.5865  0.4013 -0.3934
 8977TIP3    H151126   3.350   7.245  11.075  0.9362  0.4508 -1.2590
 8977TIP3    H251127   3.326   7.383  11.018 -2.4717  0.7285  0.5447
 8978TIP3   OH251128   3.760   1.948  10.725 -0.5061  0.4976 -0.9818
 8978TIP3    H151129   3.840   1.928  10.677  0.5658 -0.8378  1.2248
 8978TIP3    H251130   3.718   1.863  10.739 -0.6422  0.7959  0.6207
 8979TIP3   OH251131   7.465   2.209  10.401  0.6589 -0.2784 -0.0076
 8979TIP3    H151132   7.493   2.268  10.331  0.1277  0.1273  0.1103
 8979TIP3    H251133   7.472   2.262  10.481 -1.8281  0.3681 -0.1304
 8980TIP3   OH251134   6.997   6.938  13.084  0.3729  0.3088  0.0247
 8980TIP3    H151135   6.915   6.931  13.132  0.6806  0.1276  0.5399
 8980TIP3    H251136   6.977   6.905  12.996 -0.2008  0.6553  0.0220
 8981TIP3   OH251137   0.345   2.592  11.212  0.1526 -0.0239 -0.5248
 8981TIP3    H151138   0.290   2.522  11.246  1.3287 -1.2439 -1.0090
 8981TIP3    H251139   0.393   2.625  11.288  0.0536 -0.1777 -0.3972
 8982TIP3   OH251140   6.987   1.439  12.052  0.0598  0.2377 -0.5521
 8982TIP3    H151141   6.936   1.411  12.128  4.1686 -0.1723  2.4014
 8982TIP3    H251142   6.964   1.531  12.039  0.0793  0.6715  2.0475
 8983TIP3   OH251143   4.512   2.950  11.073 -0.0408  0.3476  0.9657
 8983TIP3    H151144   4.481   3.030  11.115 -3.6941 -0.6210  0.4587
 8983TIP3    H251145   4.446   2.931  11.007  1.6101 -2.1971 -0.0882
 8984TIP3   OH251146   1.147   7.112  11.573  0.1382 -0.1355  0.2014
 8984TIP3    H151147   1.177   7.190  11.525 -2.2475  0.7207 -0.0429
 8984TIP3    H251148   1.096   7.063  11.508  0.2366 -1.0571  0.8101
 8985TIP3   OH251149   0.431   6.193  10.901 -0.0543  0.2009  0.0421
 8985TIP3    H151150   0.430   6.106  10.860 -1.6547 -0.3201  1.1006
 8985TIP3    H251151   0.474   6.179  10.986 -0.3411  0.4432  0.2255
 8986TIP3   OH251152   5.629   4.168  11.650 -0.8687 -0.1132  0.0824
 8986TIP3    H151153   5.706   4.204  11.695 -0.6532  0.7188 -0.9261
 8986TIP3    H251154   5.557   4.225  11.677 -1.0196 -0.4978  0.5081
 8987TIP3   OH251155   6.935   0.424  11.463 -0.1982 -0.7109 -0.5176
 8987TIP3    H151156   6.981   0.508  11.472 -1.3074 -0.0028 -1.2364
 8987TIP3    H251157   7.005   0.361  11.445  0.6632  0.0409  0.0556
 8988TIP3   OH251158   7.482   7.590  11.839  0.6128 -0.0886  0.2953
 8988TIP3    H151159   7.422   7.608  11.766  1.5032  0.6044 -0.2737
 8988TIP3    H251160   7.500   7.496  11.831  2.1596  0.3052 -1.5368
 8989TIP3   OH251161   5.812   3.346  12.660 -0.4590  0.4340 -0.9191
 8989TIP3    H151162   5.825   3.434  12.624 -1.4862  0.1320 -2.1042
 8989TIP3    H251163   5.828   3.287  12.586 -0.9070 -0.3093 -0.4384
 8990TIP3   OH251164   4.494   0.552  12.163 -0.1353 -0.3736  0.2677
 8990TIP3    H151165   4.408   0.564  12.201  0.6482  1.1005  1.6960
 8990TIP3    H251166   4.546   0.510  12.232  0.8842  0.8461  0.2702
 8991TIP3   OH251167   2.097   6.217  12.293  0.5242  1.0714 -0.1146
 8991TIP3    H151168   2.130   6.298  12.256  1.5030  1.5266  1.6068
 8991TIP3    H251169   2.068   6.165  12.218  1.5003  2.3046 -1.3879
 8992TIP3   OH251170   4.103   0.103  10.328 -0.2984  0.2790  0.3390
 8992TIP3    H151171   4.091   0.101  10.233 -0.0953 -2.9373  0.2911
 8992TIP3    H251172   4.020   0.138  10.361  0.0817  2.6900 -0.9681
 8993TIP3   OH251173   5.717   6.235  12.369  0.3477  0.5856  0.1611
 8993TIP3    H151174   5.728   6.225  12.274 -0.4316  2.8394 -0.2413
 8993TIP3    H251175   5.753   6.322  12.387  2.5904 -0.6758  2.3685
 8994TIP3   OH251176   3.483   4.689  10.583 -0.5976  0.4223 -0.4585
 8994TIP3    H151177   3.454   4.689  10.491  0.4186 -1.2499 -0.8096
 8994TIP3    H251178   3.402   4.697  10.633 -1.0553  3.5133 -1.4575
 8995TIP3   OH251179   6.818   7.533  11.098  0.4592  0.0971  0.1187
 8995TIP3    H151180   6.874   7.539  11.175  0.3157  0.0723  0.2246
 8995TIP3    H251181   6.876   7.554  11.025  0.0059  2.9674  0.4417
 8996TIP3   OH251182   6.113   2.778  11.877  0.0056  0.0556  0.4649
 8996TIP3    H151183   6.069   2.726  11.944 -0.1760  1.7205  1.7151
 8996TIP3    H251184   6.187   2.724  11.849 -0.1458 -0.8484  1.7345
 8997TIP3   OH251185   4.942   7.447  11.247  0.1879  0.3552  0.4707
 8997TIP3    H151186   4.935   7.474  11.156 -0.4470 -1.5804 -0.1055
 8997TIP3    H251187   4.861   7.399  11.264  0.1509  0.9588  2.1713
 8998TIP3   OH251188   0.835   7.554  10.839 -0.4460  0.0382  0.5064
 8998TIP3    H151189   0.743   7.574  10.824 -0.6469  1.1473  2.7415
 8998TIP3    H251190   0.879   7.639  10.842  0.2381 -0.3209  1.6455
 8999TIP3   OH251191   3.914   0.070  12.491  0.3304 -0.0218  0.2624
 8999TIP3    H151192   3.839   0.013  12.509  0.2173 -0.1480 -0.6009
 8999TIP3    H251193   3.944   0.098  12.578 -0.3714 -0.4134  0.6367
 9000TIP3   OH251194   1.894   1.560  11.323 -0.2034  0.0544  0.0365
 9000TIP3    H151195   1.880   1.467  11.305 -2.0958  0.5884 -1.5894
 9000TIP3    H251196   1.972   1.583  11.273 -0.1264 -0.4922 -0.0960
 9001TIP3   OH251197   3.924   3.406  11.611  0.6918  0.1335  0.5821
 9001TIP3    H151198   3.951   3.337  11.671  0.9808 -1.1780 -0.9905
 9001TIP3    H251199   4.002   3.461  11.601  0.4742  0.6876  1.7993
 9002TIP3   OH251200   5.067   4.992  10.950 -0.5741 -0.1437  0.2412
 9002TIP3    H151201   5.072   4.901  10.923  0.5349  0.3675 -1.4474
 9002TIP3    H251202   4.973   5.010  10.958 -0.7876 -1.6839  1.6418
 9003TIP3   OH251203   6.742   2.750  11.805 -0.3413  0.6446 -0.1047
 9003TIP3    H151204   6.760   2.736  11.712 -1.1186  1.6681 -0.4283
 9003TIP3    H251205   6.646   2.753  11.810 -0.3106  0.2537  0.7859
 9004TIP3   OH251206   1.560   5.678  13.173 -0.0045  0.4495  0.0003
 9004TIP3    H151207   1.477   5.662  13.218  0.9895  0.6102  1.9876
 9004TIP3    H251208   1.620   5.615  13.211  1.1930  1.4297 -0.2208
 9005TIP3   OH251209   0.905   4.560  10.680 -0.0266  0.2081 -0.0208
 9005TIP3    H151210   0.894   4.650  10.650 -1.4392  0.2063  0.4427
 9005TIP3    H251211   0.994   4.558  10.716 -0.0337  1.4581  0.1226
 9006TIP3   OH251212   6.596   6.331  10.637 -0.3153 -0.6766 -0.2607
 9006TIP3    H151213   6.527   6.271  10.667 -0.8371  0.1042  0.1491
 9006TIP3    H251214   6.556   6.417  10.643  0.4149 -0.2853 -0.8801
 9007TIP3   OH251215   3.804   6.959  12.143 -1.1725 -0.2541 -0.0500
 9007TIP3    H151216   3.846   6.875  12.122 -0.1516  0.4374 -0.8868
 9007TIP3    H251217   3.855   7.024  12.094 -2.3158  0.7907  0.1062
 9008TIP3   OH251218   0.604   2.437  12.466 -0.1020  0.0079  0.4945
 9008TIP3    H151219   0.600   2.509  12.403 -1.3194 -1.1449 -0.8088
 9008TIP3    H251220   0.693   2.402  12.456 -1.0034 -1.7232 -2.4942
 9009TIP3   OH251221   4.304   6.161  11.984 -0.3501  0.5365 -0.0060
 9009TIP3    H151222   4.367   6.100  11.945 -0.8907  0.8277 -1.3897
 9009TIP3    H251223   4.222   6.111  11.987 -0.3616  0.5903  0.5727
 9010TIP3   OH251224   1.895   1.167  12.408 -0.0724 -0.3077  0.6750
 9010TIP3    H151225   1.953   1.091  12.412  2.2516  1.3692  0.4862
 9010TIP3    H251226   1.934   1.231  12.467 -1.2653  1.2167 -0.1125
 9011TIP3   OH251227   6.818   4.904  13.356  0.2992  0.1398  0.1583
 9011TIP3    H151228   6.755   4.910  13.285 -1.4289 -0.6844  1.5599
 9011TIP3    H251229   6.812   4.987  13.402 -0.3370 -0.2148  0.7322
 9012TIP3   OH251230   4.502   6.087  11.016  0.6876  0.1382 -0.1858
 9012TIP3    H151231   4.498   6.183  11.009 -1.5271  0.0186 -1.4421
 9012TIP3    H251232   4.538   6.059  10.932  1.2254 -0.1630  0.1398
 9013TIP3   OH251233   2.937   6.948  10.785  0.2082 -0.2322  0.0620
 9013TIP3    H151234   2.973   7.000  10.857  0.6625 -3.1822  2.1114
 9013TIP3    H251235   2.842   6.957  10.793  0.2486  2.1091 -1.1564
 9014TIP3   OH251236   5.258   3.947  11.376 -0.2938  0.0925 -0.2463
 9014TIP3    H151237   5.170   3.961  11.341 -0.8533 -1.7475  0.2564
 9014TIP3    H251238   5.268   4.013  11.444 -1.0556  0.6978 -0.7117
 9015TIP3   OH251239   4.589   6.031  10.766 -0.7675  0.6754  0.1132
 9015TIP3    H151240   4.532   6.015  10.691  0.1787  0.4420 -0.5758
 9015TIP3    H251241   4.640   5.951  10.775 -0.9612  0.6591  1.0910
 9016TIP3   OH251242   0.945   6.965  12.112 -0.0341 -0.1981  0.4155
 9016TIP3    H151243   1.030   6.978  12.070 -0.8019  0.5303 -0.9997
 9016TIP3    H251244   0.899   7.048  12.100 -1.6429 -1.1533 -0.5924
 9017TIP3   OH251245   4.843   2.074  11.389  0.4841  0.0830  0.1076
 9017TIP3    H151246   4.919   2.132  11.391  0.1325  0.5900 -0.8629
 9017TIP3    H251247   4.813   2.070  11.480  0.9062  0.8924  0.2869
 9018TIP3   OH251248   2.598   1.472  11.139 -0.3319  0.3181 -0.4289
 9018TIP3    H151249   2.658   1.546  11.149 -1.8204  1.6235 -0.6916
 9018TIP3    H251250   2.537   1.500  11.071 -0.6436 -1.3685 -0.8686
 9019TIP3   OH251251   2.492   1.595  10.924  0.1285  0.1395  0.2568
 9019TIP3    H151252   2.405   1.630  10.906 -0.5490 -1.7725 -0.4086
 9019TIP3    H251253   2.549   1.635  10.857 -0.4405  0.5398  0.0054
 9020TIP3   OH251254   2.458   7.248  13.018 -0.2416 -0.4141 -0.5291
 9020TIP3    H151255   2.418   7.207  12.941  1.3965 -1.0439 -1.1053
 9020TIP3    H251256   2.504   7.325  12.983 -0.8342  0.2363  0.0911
 9021TIP3   OH251257   1.739   0.567  12.342  0.1635 -0.0933 -0.2818
 9021TIP3    H151258   1.814   0.613  12.377  0.0964  0.0715 -0.3527
 9021TIP3    H251259   1.757   0.559  12.248 -0.7778  1.6469 -0.6424
 9022TIP3   OH251260   0.906   7.215  10.641  0.2232  0.4084 -0.3874
 9022TIP3    H151261   0.833   7.212  10.579  0.6680  0.7541 -0.9379
 9022TIP3    H251262   0.876   7.164  10.716 -1.1538  1.7197  0.0035
 9023TIP3   OH251263   6.128   1.711  12.714 -0.1303  0.3014 -0.1011
 9023TIP3    H151264   6.188   1.659  12.662  0.8369  1.1971  0.0922
 9023TIP3    H251265   6.135   1.799  12.678  0.2090  0.8374  1.2257
 9024TIP3   OH251266   7.435   1.056  12.053  0.1546  0.4510  0.1067
 9024TIP3    H151267   7.363   1.053  12.116  0.0772  1.4938  0.0895
 9024TIP3    H251268   7.404   1.005  11.978  0.5741 -1.5319  1.1946
 9025TIP3   OH251269   2.742   2.585  12.896 -0.4235  0.0478 -0.0625
 9025TIP3    H151270   2.662   2.533  12.882 -0.8060  0.7237 -0.4388
 9025TIP3    H251271   2.799   2.561  12.824 -0.6445  0.2287 -0.2990
 9026TIP3   OH251272   1.489   7.465  11.604 -0.3796  0.0545 -0.7879
 9026TIP3    H151273   1.499   7.370  11.598 -0.2808 -0.0491  0.6585
 9026TIP3    H251274   1.559   7.500  11.549  1.7170 -0.7206  1.2149
 9027TIP3   OH251275   7.620   1.179  10.597  0.4155  0.5936  0.0202
 9027TIP3    H151276   7.617   1.200  10.690 -2.5296  0.9526 -0.0628
 9027TIP3    H251277   7.610   1.084  10.594  0.0549  0.6286  0.0710
 9028TIP3   OH251278   5.323   2.255  12.730 -0.1091 -0.0605 -0.3451
 9028TIP3    H151279   5.239   2.255  12.776 -0.3604 -0.1468 -0.7978
 9028TIP3    H251280   5.385   2.220  12.794 -1.0106 -3.2571 -1.0333
 9029TIP3   OH251281   0.739   7.496  13.099  0.4383 -0.4849 -1.2652
 9029TIP3    H151282   0.715   7.407  13.073  0.0413 -0.8740  0.3453
 9029TIP3    H251283   0.791   7.485  13.178 -2.5588  0.8001  1.0733
 9030TIP3   OH251284   6.762   5.686  11.994  0.3633 -0.3134  0.2178
 9030TIP3    H151285   6.702   5.717  12.062 -0.3118  2.7258 -1.5730
 9030TIP3    H251286   6.706   5.636  11.934  0.3563 -0.4695  0.3532
 9031TIP3   OH251287   6.589   4.804  11.714  0.3690  0.8127 -0.7186
 9031TIP3    H151288   6.657   4.795  11.780 -0.2380  0.4787 -0.1242
 9031TIP3    H251289   6.546   4.719  11.711 -0.7189  1.3252 -0.3035
 9032TIP3   OH251290   0.076   1.453  11.754 -0.0559  0.2860 -0.0276
 9032TIP3    H151291   0.165   1.489  11.762 -0.3194  0.5754  2.9469
 9032TIP3    H251292   0.087   1.360  11.774 -0.2704  0.0776 -0.8719
 9033TIP3   OH251293   2.503   2.915  11.109  0.2827  0.8107 -0.1275
 9033TIP3    H151294   2.506   2.954  11.022 -0.6601  0.7294 -0.2054
 9033TIP3    H251295   2.410   2.907  11.129  0.4536 -0.4773  0.2975
 9034TIP3   OH251296   3.158   5.492  10.796  0.2949  0.5609  0.0638
 9034TIP3    H151297   3.229   5.530  10.847  2.1588 -0.2936 -1.7736
 9034TIP3    H251298   3.088   5.478  10.860  1.5389  1.9377  1.8264
 9035TIP3   OH251299   2.580   4.144  12.861  0.1503  0.3371  0.3277
 9035TIP3    H151300   2.664   4.190  12.850  0.1469  0.1772 -0.4309
 9035TIP3    H251301   2.514   4.210  12.840  0.1060  0.3436  0.4934
 9036TIP3   OH251302   1.173   5.730  10.564  0.0625 -0.1215 -0.1982
 9036TIP3    H151303   1.165   5.819  10.599 -1.7978  0.3640 -1.6826
 9036TIP3    H251304   1.255   5.730  10.516  0.2580  0.6847  0.1219
 9037TIP3   OH251305   4.469   6.103  12.234  0.0070  0.0639  0.0591
 9037TIP3    H151306   4.405   6.130  12.169  1.4006  2.2789 -0.4823
 9037TIP3    H251307   4.553   6.135  12.201  0.9304  0.2641  2.3692
 9038TIP3   OH251308   7.149   1.746  12.140  0.1284 -0.2933 -0.3713
 9038TIP3    H151309   7.165   1.665  12.189 -0.0359  0.1479  0.4203
 9038TIP3    H251310   7.055   1.762  12.148  0.3767  0.7254  0.6706
 9039TIP3   OH251311   7.574   0.693  12.210 -0.3531  0.0098  0.1721
 9039TIP3    H151312   7.590   0.739  12.293  0.3852 -1.8200  1.1075
 9039TIP3    H251313   7.662   0.670  12.179 -0.7019 -1.4452  0.1742
 9040TIP3   OH251314   1.712   4.719  11.227 -0.4997  0.7781 -0.0265
 9040TIP3    H151315   1.661   4.759  11.297  2.5561  2.0724  1.6251
 9040TIP3    H251316   1.730   4.791  11.167  1.4338  0.9662  0.7310
 9041TIP3   OH251317   4.480   6.458  11.482  0.2556 -0.0893 -0.5966
 9041TIP3    H151318   4.424   6.453  11.405  0.0595  1.4282 -0.5796
 9041TIP3    H251319   4.423   6.490  11.552  0.9001  0.5474 -0.3482
 9042TIP3   OH251320   5.997   5.937  13.448  0.4573  0.0858  0.2320
 9042TIP3    H151321   5.917   5.987  13.436  0.2243 -0.1360  0.8372
 9042TIP3    H251322   6.065   5.989  13.405 -0.2460 -0.4530 -1.6649
 9043TIP3   OH251323   5.915   4.690  13.366  0.4850  0.1337  0.6023
 9043TIP3    H151324   5.976   4.627  13.404  0.9321  0.8564  1.0909
 9043TIP3    H251325   5.927   4.681  13.271  0.4209 -0.6248  0.6541
 9044TIP3   OH251326   1.969   5.434  11.005  0.0281  0.3103 -0.6197
 9044TIP3    H151327   2.062   5.450  11.024 -0.7346  1.3813  3.1182
 9044TIP3    H251328   1.935   5.518  10.976 -0.0032  0.2245 -0.8320
 9045TIP3   OH251329   4.583   6.847  11.098  0.6053  0.0048  0.0756
 9045TIP3    H151330   4.557   6.939  11.101 -1.0519 -0.1219 -3.8739
 9045TIP3    H251331   4.679   6.849  11.106  0.6446  2.1133 -0.3243
 9046TIP3   OH251332   0.667   6.061  11.402  0.7207 -0.4462 -0.0008
 9046TIP3    H151333   0.697   6.113  11.477  1.2282 -1.8941  0.8337
 9046TIP3    H251334   0.739   6.000  11.385 -0.4528 -1.8755  0.0155
 9047TIP3   OH251335   0.386   3.094  11.992  0.4164  0.4979 -0.2228
 9047TIP3    H151336   0.325   3.166  11.973  0.4478  1.0466  1.5528
 9047TIP3    H251337   0.375   3.078  12.086  0.5295 -1.7329 -0.5326
 9048TIP3   OH251338   6.274   4.282  12.236  0.1702  0.0494 -0.3533
 9048TIP3    H151339   6.231   4.212  12.187  2.6354 -1.3140 -0.7122
 9048TIP3    H251340   6.368   4.266  12.224  0.8223  2.5167  0.8637
 9049TIP3   OH251341   4.840   0.219  12.859  0.0924  0.2040 -0.1649
 9049TIP3    H151342   4.787   0.298  12.871  0.1918  0.4951 -1.5325
 9049TIP3    H251343   4.854   0.213  12.765  1.9833 -0.2191  0.1101
 9050TIP3   OH251344   6.363   7.289  11.418  0.1088 -0.0915  0.1705
 9050TIP3    H151345   6.273   7.271  11.445 -0.1667  0.5701 -0.2866
 9050TIP3    H251346   6.364   7.273  11.324  1.5430 -4.3232  0.6886
 9051TIP3   OH251347   7.498   3.591  10.897 -0.1485 -0.6299  0.2678
 9051TIP3    H151348   7.440   3.629  10.830 -2.3881  0.6855  2.7609
 9051TIP3    H251349   7.531   3.667  10.946  2.0529 -1.5113  0.2550
 9052TIP3   OH251350   3.394   0.405  12.311 -0.0181  0.0330 -0.5924
 9052TIP3    H151351   3.426   0.491  12.286  0.7310  0.0816  0.4379
 9052TIP3    H251352   3.383   0.358  12.228 -0.3045  1.0684 -1.1497
 9053TIP3   OH251353   1.197   5.225  12.957  0.1446 -0.0086 -0.2219
 9053TIP3    H151354   1.209   5.306  13.006 -1.5120  1.1552 -1.6007
 9053TIP3    H251355   1.283   5.207  12.919  0.8376  0.4113  1.0908
 9054TIP3   OH251356   6.503   4.414  12.410 -0.1537  0.6008  0.3440
 9054TIP3    H151357   6.493   4.361  12.331 -0.0883 -0.0463  0.7638
 9054TIP3    H251358   6.597   4.416  12.426 -0.0916  1.4498 -0.0697
 9055TIP3   OH251359   4.444   3.657  11.168  0.1642 -0.3029  0.3978
 9055TIP3    H151360   4.371   3.680  11.226  0.8086  1.0909  0.6906
 9055TIP3    H251361   4.408   3.590  11.110 -0.9331 -0.6524  1.4364
 9056TIP3   OH251362   6.850   0.604  12.014 -0.0898 -0.2581  0.3710
 9056TIP3    H151363   6.792   0.551  12.069  0.2294  0.5537  1.5410
 9056TIP3    H251364   6.856   0.556  11.932 -0.2179 -1.7671  1.1963
 9057TIP3   OH251365   0.717   3.697  11.125 -0.2821 -0.2443  0.0958
 9057TIP3    H151366   0.731   3.605  11.102 -0.4546 -0.7911  1.9832
 9057TIP3    H251367   0.625   3.713  11.105 -0.1783 -0.3712 -0.5228
 9058TIP3   OH251368   3.627   3.635  11.886  0.0533 -0.2267 -0.2752
 9058TIP3    H151369   3.642   3.647  11.792  0.2999 -0.4297 -0.2627
 9058TIP3    H251370   3.604   3.543  11.895 -2.5240  0.3240 -0.4542
 9059TIP3   OH251371   2.446   3.243  10.716 -0.0863  0.0635 -0.1941
 9059TIP3    H151372   2.433   3.311  10.783 -2.1239 -0.2001 -0.2556
 9059TIP3    H251373   2.535   3.256  10.685  0.4283  1.0824  1.5944
 9060TIP3   OH251374   1.829   0.228  10.958 -0.2346 -0.1425 -0.1497
 9060TIP3    H151375   1.758   0.265  11.011 -0.6360  0.5750 -1.1496
 9060TIP3    H251376   1.849   0.145  11.000 -0.9429  0.1377  0.7770
 9061TIP3   OH251377   0.459   4.652  12.475  0.5578 -0.3175  0.1934
 9061TIP3    H151378   0.513   4.584  12.516 -0.2701 -1.3404 -0.3306
 9061TIP3    H251379   0.404   4.685  12.546 -0.4656 -1.6713  0.0930
 9062TIP3   OH251380   7.274   6.959  12.448 -0.5543 -0.3657  0.3649
 9062TIP3    H151381   7.247   6.940  12.358  0.0545 -0.5592  0.2213
 9062TIP3    H251382   7.367   6.978  12.442 -0.7986  1.0430  0.7567
 9063TIP3   OH251383   5.921   0.699  10.906 -0.4373  0.3192 -0.5976
 9063TIP3    H151384   5.841   0.730  10.949 -0.2255  0.8909 -0.6106
 9063TIP3    H251385   5.952   0.774  10.856 -1.3932 -0.6848 -2.8331
 9064TIP3   OH251386   5.820   4.791  10.512  0.0113  0.2169  0.1185
 9064TIP3    H151387   5.828   4.879  10.476 -1.1497 -0.3649 -1.7218
 9064TIP3    H251388   5.899   4.779  10.565  0.4944  2.1115 -0.1042
 9065TIP3   OH251389   7.184   5.107  12.328 -0.1616 -0.5020  0.2993
 9065TIP3    H151390   7.132   5.068  12.399 -2.5647 -0.7726 -1.4521
 9065TIP3    H251391   7.146   5.195  12.317  1.9140  0.5329  0.9774
 9066TIP3   OH251392   4.329   7.050  12.539 -0.3762  0.5312  0.4749
 9066TIP3    H151393   4.390   7.121  12.559  2.0100 -0.8139 -1.5011
 9066TIP3    H251394   4.343   6.987  12.610  0.3264  0.3920  0.2274
 9067TIP3   OH251395   4.305   6.113  11.687 -0.0124 -0.4049 -0.1282
 9067TIP3    H151396   4.360   6.092  11.611  0.5490 -0.1391  0.1969
 9067TIP3    H251397   4.318   6.039  11.746  0.7815  0.1097  0.3680
 9068TIP3   OH251398   6.214   7.666  12.479 -0.1049 -0.1210 -0.2582
 9068TIP3    H151399   6.225   7.760  12.494 -0.5326  0.0387 -0.9158
 9068TIP3    H251400   6.263   7.624  12.550  1.6495  0.5760 -1.0184
 9069TIP3   OH251401   3.181   6.264  12.930 -0.3384 -0.4004  0.0788
 9069TIP3    H151402   3.096   6.225  12.951  0.4892 -2.3140  0.0306
 9069TIP3    H251403   3.160   6.354  12.904 -2.5773 -1.3387 -1.7232
 9070TIP3   OH251404   0.563   3.461  11.932 -0.0135  0.1928  0.0399
 9070TIP3    H151405   0.486   3.433  11.881  0.5663 -1.5878  0.0723
 9070TIP3    H251406   0.577   3.552  11.906 -2.3286  0.6952  0.2860
 9071TIP3   OH251407   0.921   1.786  10.626 -0.1949  0.1074  0.3391
 9071TIP3    H151408   0.915   1.881  10.634  0.3039  0.2439 -0.7458
 9071TIP3    H251409   0.830   1.757  10.618 -0.3666  0.4544  0.9366
 9072TIP3   OH251410   2.551   2.837  12.222 -0.3551  0.2214  0.0141
 9072TIP3    H151411   2.519   2.747  12.230 -0.7373  0.3087 -0.4256
 9072TIP3    H251412   2.502   2.886  12.287  1.7868 -0.3429  2.1787
 9073TIP3   OH251413   6.685   0.212  12.708  0.2183  0.1761  0.2066
 9073TIP3    H151414   6.710   0.134  12.758  1.2557  0.0763 -0.4348
 9073TIP3    H251415   6.664   0.277  12.775 -1.7303 -0.9334  0.7630
 9074TIP3   OH251416   4.753   1.360  10.905 -0.3797  0.5829  0.3110
 9074TIP3    H151417   4.706   1.406  10.836 -0.4640  2.5758  1.5963
 9074TIP3    H251418   4.761   1.425  10.976  3.1485 -0.0072  0.6629
 9075TIP3   OH251419   1.588   4.493  10.699 -0.2076  0.2816 -0.2930
 9075TIP3    H151420   1.634   4.431  10.643 -1.3920  0.9216 -2.0340
 9075TIP3    H251421   1.658   4.533  10.752  0.6113 -2.3894  0.8454
 9076TIP3   OH251422   4.818   3.800  11.939 -0.2226 -0.3615 -0.0419
 9076TIP3    H151423   4.746   3.829  11.995 -0.4465  1.3654 -1.1356
 9076TIP3    H251424   4.893   3.854  11.966 -0.3000  0.3926 -1.2412
 9077TIP3   OH251425   4.705   6.704  10.893 -0.4768 -0.2770  0.2277
 9077TIP3    H151426   4.640   6.662  10.837  0.6839 -1.0264 -0.5887
 9077TIP3    H251427   4.653   6.754  10.956 -1.8345 -0.6262 -0.5727
 9078TIP3   OH251428   0.719   0.833  11.874  0.0809 -0.0111  0.1283
 9078TIP3    H151429   0.740   0.918  11.836 -0.9325 -0.3436 -1.2516
 9078TIP3    H251430   0.638   0.847  11.923 -1.4568 -0.6219 -2.0802
 9079TIP3   OH251431   3.232   1.116  12.237  0.1089 -0.5285 -0.5042
 9079TIP3    H151432   3.264   1.078  12.319  1.5435 -2.3002 -1.7812
 9079TIP3    H251433   3.169   1.052  12.204  0.0999 -0.2043 -1.1297
 9080TIP3   OH251434   1.878   1.801  11.472  0.4847  0.0658 -0.0813
 9080TIP3    H151435   1.910   1.729  11.418 -0.4854 -0.8801  0.5625
 9080TIP3    H251436   1.937   1.804  11.547  1.7807  1.3238 -1.0978
 9081TIP3   OH251437   7.139   6.551  11.263 -0.0948  0.3872 -0.1169
 9081TIP3    H151438   7.099   6.615  11.204  2.1550  0.4579 -1.7194
 9081TIP3    H251439   7.115   6.466  11.226 -2.7825  0.1966  1.8054
 9082TIP3   OH251440   4.149   0.247  12.878  0.1311  0.2700 -0.1077
 9082TIP3    H151441   4.162   0.301  12.956 -0.3600 -0.2536  0.3444
 9082TIP3    H251442   4.088   0.296  12.823 -0.2850  0.2007  0.2868
 9083TIP3   OH251443   5.521   0.688  12.986  0.3832 -0.3238 -0.2935
 9083TIP3    H151444   5.430   0.689  12.957 -0.7713 -0.8532  2.8516
 9083TIP3    H251445   5.561   0.615  12.939 -2.0810 -2.9212  1.2411
 9084TIP3   OH251446   3.457   0.489  12.552  0.1933 -0.1559 -0.0365
 9084TIP3    H151447   3.447   0.456  12.463  0.1044  0.1156 -0.1300
 9084TIP3    H251448   3.368   0.515  12.578  0.0011 -1.3601  0.5850
 9085TIP3   OH251449   1.821   5.197  11.504 -0.0130 -0.7117 -0.6794
 9085TIP3    H151450   1.793   5.147  11.580 -1.4929  0.1400 -0.6312
 9085TIP3    H251451   1.799   5.142  11.429 -1.0991 -0.4087 -0.6002
 9086TIP3   OH251452   0.957   5.255  12.842  0.2477 -0.4776 -0.2784
 9086TIP3    H151453   1.037   5.245  12.894 -1.0789 -0.7473  1.8691
 9086TIP3    H251454   0.892   5.202  12.889 -1.0436 -0.8110 -2.3293
 9087TIP3   OH251455   1.051   3.173  10.477 -0.4632 -0.0850  0.4532
 9087TIP3    H151456   1.021   3.264  10.480 -1.8091 -0.5178  1.2589
 9087TIP3    H251457   1.010   3.132  10.554 -1.0540 -1.6965 -0.6700
 9088TIP3   OH251458   1.641   4.348  12.190 -0.1777  0.4378  0.1232
 9088TIP3    H151459   1.713   4.291  12.163  0.1983  0.8804  0.1666
 9088TIP3    H251460   1.568   4.326  12.132  0.4908  1.1050 -1.0012
 9089TIP3   OH251461   4.371   6.827  10.760 -0.4324 -0.4986 -0.3450
 9089TIP3    H151462   4.428   6.904  10.765 -0.1663 -0.6583 -0.8550
 9089TIP3    H251463   4.416   6.767  10.701  0.1218 -1.7137  1.2598
 9090TIP3   OH251464   4.252   2.886  10.919 -0.1911  0.3320  0.1486
 9090TIP3    H151465   4.174   2.829  10.926 -0.8075  1.0600 -0.5232
 9090TIP3    H251466   4.220   2.973  10.942  0.1479  0.8395 -1.2181
 9091TIP3   OH251467   6.205   3.028  11.952  0.5172 -0.7882  0.2292
 9091TIP3    H151468   6.260   3.040  11.875 -0.8923 -0.5057 -0.7786
 9091TIP3    H251469   6.176   2.937  11.947  0.4414 -0.7776  0.4474
 9092TIP3   OH251470   4.397   3.849  11.829  0.0604  0.3335  0.4475
 9092TIP3    H151471   4.316   3.798  11.837 -0.6957  1.5534  0.8499
 9092TIP3    H251472   4.439   3.815  11.750  0.1405 -1.6427  1.2864
 9093TIP3   OH251473   1.756   4.073  11.334 -0.3483 -0.0974 -0.0140
 9093TIP3    H151474   1.800   4.017  11.270 -0.0176  0.9254 -0.6915
 9093TIP3    H251475   1.820   4.141  11.355 -0.1270 -0.8588  2.0593
 9094TIP3   OH251476   0.003   0.110  10.918  0.9861 -0.0504 -0.3530
 9094TIP3    H151477   0.087   0.074  10.892  0.6686  0.0214 -1.5450
 9094TIP3    H251478  -0.054   0.095  10.843 -0.5259 -1.5414  1.0145
 9095TIP3   OH251479   1.464   0.495  12.769 -0.3428 -0.3155  0.1502
 9095TIP3    H151480   1.372   0.494  12.794 -0.8720 -2.1156 -1.6351
 9095TIP3    H251481   1.465   0.476  12.676  1.8715 -1.4391  0.3171
 9096TIP3   OH251482   5.453   1.486  12.354  0.3771 -0.2996  0.6990
 9096TIP3    H151483   5.396   1.409  12.357  3.0256 -2.4379 -0.1344
 9096TIP3    H251484   5.393   1.561  12.361 -2.4401 -2.3757  0.3344
 9097TIP3   OH251485   5.101   7.629  10.523  0.1496 -0.3863 -0.3039
 9097TIP3    H151486   5.084   7.655  10.614  0.6359 -3.1196  0.6424
 9097TIP3    H251487   5.184   7.672  10.501 -0.1498  0.5812  0.3896
 9098TIP3   OH251488   1.149   5.758  11.258 -0.1328  0.5021 -0.2165
 9098TIP3    H151489   1.183   5.710  11.182  0.9163  0.5455  0.2099
 9098TIP3    H251490   1.151   5.850  11.231 -0.3451  0.4655 -0.3561
 9099TIP3   OH251491   0.285   0.248  11.344  0.2737  0.4343  0.0920
 9099TIP3    H151492   0.362   0.300  11.319  0.1553  0.5179 -0.1000
 9099TIP3    H251493   0.314   0.157  11.337 -0.3511  0.3678 -2.4012
 9100TIP3   OH251494   7.616   7.007  12.816  0.2013  0.2884 -0.0247
 9100TIP3    H151495   7.613   6.919  12.854  0.7737 -0.0364 -0.6873
 9100TIP3    H251496   7.574   7.063  12.880 -2.4599 -0.8351 -0.6374
 9101TIP3   OH251497   1.888   7.041  12.533  0.3301  0.2200  0.3845
 9101TIP3    H151498   1.933   6.967  12.574 -0.2945 -0.6553 -0.4517
 9101TIP3    H251499   1.891   7.111  12.598  2.0424 -0.1212  0.7060
 9102TIP3   OH251500   3.835   4.362  12.309 -0.3347  0.5131 -0.1583
 9102TIP3    H151501   3.810   4.400  12.393 -2.8284 -0.4953 -0.3422
 9102TIP3    H251502   3.909   4.305  12.329  0.0599  1.4153  1.0542
 9103TIP3   OH251503   4.501   1.082  11.190  0.3769 -0.1998  0.0386
 9103TIP3    H151504   4.553   1.096  11.111  0.1713 -2.0937 -0.4843
 9103TIP3    H251505   4.564   1.091  11.262  0.9016 -0.0663 -0.4297
 9104TIP3   OH251506   5.550   4.759  11.366 -0.5129  0.7536 -0.5086
 9104TIP3    H151507   5.539   4.666  11.346 -0.8604  1.1322 -2.2561
 9104TIP3    H251508   5.461   4.794  11.364 -0.3067  1.2767 -0.7944
 9105TIP3   OH251509   6.119   6.099  11.124 -0.2097  0.0564 -0.0488
 9105TIP3    H151510   6.074   6.134  11.202  0.5868 -0.4855  0.6734
 9105TIP3    H251511   6.065   6.024  11.097  0.7004 -1.1733  1.3731
 9106TIP3   OH251512   0.542   1.772  11.810 -0.2346 -0.1187  0.0067
 9106TIP3    H151513   0.461   1.723  11.792 -0.4048  0.2557 -0.2650
 9106TIP3    H251514   0.603   1.706  11.842 -0.4714 -0.5068 -0.3246
 9107TIP3   OH251515   6.197   0.380  11.956  0.3586  0.4946  0.2019
 9107TIP3    H151516   6.223   0.384  11.863 -0.3614  0.9495  0.0146
 9107TIP3    H251517   6.158   0.293  11.966 -1.1762  1.0818 -0.3744
 9108TIP3   OH251518   4.204   1.151  11.145 -0.6842  0.0528  0.2690
 9108TIP3    H151519   4.182   1.244  11.134  3.5575  1.1133 -0.8154
 9108TIP3    H251520   4.299   1.148  11.140 -0.4334 -4.0785  3.0328
 9109TIP3   OH251521   1.047   4.404  11.487  0.5000  0.0304 -0.1944
 9109TIP3    H151522   1.020   4.314  11.506  0.7530  0.1681  0.8635
 9109TIP3    H251523   1.026   4.416  11.395  1.0099 -1.3127 -0.5083
 9110TIP3   OH251524   1.018   2.534  10.525 -0.3580 -0.0247 -0.5220
 9110TIP3    H151525   1.018   2.583  10.443 -1.8488  0.2914 -0.3749
 9110TIP3    H251526   1.095   2.478  10.520 -0.6478 -0.3301 -2.3343
 9111TIP3   OH251527   2.677   1.147  10.913 -0.5013  0.4025 -0.6246
 9111TIP3    H151528   2.722   1.120  10.833 -0.6202  1.7921 -1.1768
 9111TIP3    H251529   2.612   1.211  10.884 -0.0694  1.4742  0.6525
 9112TIP3   OH251530   7.365   6.839  10.820  0.6223 -0.0186 -0.0945
 9112TIP3    H151531   7.320   6.920  10.847  0.3852 -0.1309 -0.1523
 9112TIP3    H251532   7.425   6.821  10.892  1.1346  0.5546 -0.3687
 9113TIP3   OH251533   1.264   4.317  11.663 -0.2225 -0.0294 -0.0973
 9113TIP3    H151534   1.309   4.401  11.654 -0.4195  0.1341  0.4161
 9113TIP3    H251535   1.183   4.328  11.614 -0.8322  0.5198  0.9931
 9114TIP3   OH251536   3.062   3.951  12.264  0.2747 -0.1966  0.1584
 9114TIP3    H151537   3.077   3.869  12.217  0.4351  0.3442 -0.7458
 9114TIP3    H251538   3.083   3.930  12.355 -3.2999 -2.2050  0.7152
 9115TIP3   OH251539   0.494   3.576  11.452 -0.0230  0.2512  0.6224
 9115TIP3    H151540   0.568   3.622  11.492  1.0645 -0.0210 -1.0020
 9115TIP3    H251541   0.424   3.642  11.450  0.7147  1.0575  0.6232
 9116TIP3   OH251542   5.415   6.246  11.425  0.4842 -0.7075  0.2508
 9116TIP3    H151543   5.381   6.165  11.388  1.0167 -0.1411 -1.5836
 9116TIP3    H251544   5.342   6.282  11.476 -0.0944 -1.7989  0.2220
 9117TIP3   OH251545   3.661   0.423  10.852  0.7002 -0.4273 -0.1811
 9117TIP3    H151546   3.566   0.430  10.851  0.6868  0.3639  1.8141
 9117TIP3    H251547   3.679   0.330  10.869  0.3290 -0.7077 -1.2452
 9118TIP3   OH251548   1.432   0.564  10.477 -0.0810  0.1583  0.0917
 9118TIP3    H151549   1.504   0.551  10.539 -0.5722 -0.4879  0.5471
 9118TIP3    H251550   1.402   0.475  10.457  0.6664  0.2722 -1.8159
 9119TIP3   OH251551   0.917   3.794  10.952  0.4457  0.2867  0.4587
 9119TIP3    H151552   0.994   3.817  11.004  0.9750 -1.0473  0.2983
 9119TIP3    H251553   0.887   3.711  10.987  0.2774 -0.2042 -0.7718
 9120TIP3   OH251554   2.924   1.290  11.968  0.1557  0.1541  0.5632
 9120TIP3    H151555   2.911   1.383  11.951 -0.0436  0.1877  0.8945
 9120TIP3    H251556   2.889   1.276  12.057 -1.8645 -0.6794 -0.3025
 9121TIP3   OH251557   4.505   6.362  11.883  0.6068 -0.0959 -0.6081
 9121TIP3    H151558   4.432   6.336  11.828  1.3789  1.1403 -2.3427
 9121TIP3    H251559   4.468   6.371  11.970 -2.0000  2.8956 -1.8120
 9122TIP3   OH251560   3.533   3.911  12.736  0.0882  0.4259 -0.5517
 9122TIP3    H151561   3.465   3.852  12.706  1.0101 -1.0727  0.1827
 9122TIP3    H251562   3.603   3.903  12.672  0.5801  0.0025  0.0211
 9123TIP3   OH251563   0.608   6.132  11.874 -0.4445  0.4608 -0.3121
 9123TIP3    H151564   0.649   6.193  11.935 -1.3524 -0.2544  1.0721
 9123TIP3    H251565   0.572   6.063  11.930 -2.1543  0.2703 -1.5664
 9124TIP3   OH251566   1.122   0.972  10.359  0.5826 -0.4778  0.2149
 9124TIP3    H151567   1.182   1.044  10.343 -1.6540  2.0572  2.1753
 9124TIP3    H251568   1.172   0.893  10.339  4.3201  1.4338  1.2144
 9125TIP3   OH251569   1.927   4.297  11.333 -0.4273  0.3148 -0.6340
 9125TIP3    H151570   1.983   4.343  11.395  0.2158  0.1417 -1.0798
 9125TIP3    H251571   1.849   4.352  11.326  0.0781  1.0323 -0.7090
 9126TIP3   OH251572   2.702   0.271  12.181  0.3451 -0.5068  0.2692
 9126TIP3    H151573   2.744   0.213  12.118  1.9135  1.5455 -0.6768
 9126TIP3    H251574   2.637   0.320  12.130  1.1695  0.7047  0.3315
 9127TIP3   OH251575   1.681   1.343  12.388  0.3281  0.2431 -0.0541
 9127TIP3    H151576   1.752   1.286  12.417 -0.5317 -1.2574 -0.7380
 9127TIP3    H251577   1.675   1.327  12.293 -0.9903  0.2240  0.0129
 9128TIP3   OH251578   0.987   3.452  13.075 -0.1339  0.3285 -0.3414
 9128TIP3    H151579   1.033   3.452  12.991  0.1930 -0.5276 -0.1694
 9128TIP3    H251580   0.999   3.540  13.109  1.8195 -0.0100 -0.0615
 9129TIP3   OH251581   5.187   4.875  12.967 -0.3384 -0.7265  0.2977
 9129TIP3    H151582   5.200   4.785  12.999  0.7523  0.1435  2.4612
 9129TIP3    H251583   5.219   4.931  13.037  0.2746  1.3826 -1.5510
 9130TIP3   OH251584   0.257   1.323  10.434 -0.4862 -0.4025  0.1587
 9130TIP3    H151585   0.259   1.237  10.392 -3.3204 -0.3680 -0.2785
 9130TIP3    H251586   0.271   1.305  10.527  1.3891 -1.0021 -0.2034
 9131TIP3   OH251587   0.403   3.754  12.463 -0.4749  0.8118 -0.3140
 9131TIP3    H151588   0.322   3.804  12.455 -1.0495  0.0908  0.7274
 9131TIP3    H251589   0.461   3.809  12.515 -1.0196  0.5260  0.6251
 9132TIP3   OH251590   4.861   1.357  11.357  0.0380  0.0526  0.0173
 9132TIP3    H151591   4.902   1.304  11.425 -1.0976 -1.4257 -0.3762
 9132TIP3    H251592   4.928   1.419  11.329  1.6222 -1.5390  0.1445
 9133TIP3   OH251593   2.343   5.007  12.951 -0.0315  0.5468  0.1961
 9133TIP3    H151594   2.257   5.029  12.913  0.5946  0.9352 -1.0538
 9133TIP3    H251595   2.361   4.919  12.918  0.4078  0.7879 -0.2096
 9134TIP3   OH251596   7.079   0.011  11.655  0.1514  0.1724 -0.2798
 9134TIP3    H151597   7.047   0.048  11.738 -0.4096  1.7121 -1.1427
 9134TIP3    H251598   7.008  -0.047  11.627 -0.5010  1.0856 -0.5790
 9135TIP3   OH251599   7.537   0.492  11.223 -0.1081  0.1650  0.1938
 9135TIP3    H151600   7.598   0.431  11.182 -1.5433  1.0119 -3.6273
 9135TIP3    H251601   7.477   0.437  11.273 -0.5813 -1.5071 -2.0668
 9136TIP3   OH251602   0.902   0.023  13.002 -0.0326 -0.0109  0.0013
 9136TIP3    H151603   0.833   0.076  12.964 -1.2653 -2.0868 -0.8143
 9136TIP3    H251604   0.857  -0.052  13.041  1.7076 -1.1637 -0.0641
 9137TIP3   OH251605   2.040   1.776  11.128 -0.2291  0.2300  0.2231
 9137TIP3    H151606   2.093   1.697  11.120 -0.7901 -0.3026  1.4322
 9137TIP3    H251607   2.062   1.811  11.215 -2.1027 -0.2228  0.9290
 9138TIP3   OH251608   4.717   2.439  10.889 -0.0626  0.7287  0.7219
 9138TIP3    H151609   4.628   2.404  10.885  0.1420  0.2724 -2.1316
 9138TIP3    H251610   4.706   2.534  10.885 -0.4641  0.6372 -2.1221
 9139TIP3   OH251611   0.754   3.000  11.369  0.0794 -0.2612 -0.2916
 9139TIP3    H151612   0.760   2.997  11.464 -0.1550 -2.9363 -0.2724
 9139TIP3    H251613   0.843   2.978  11.339  0.1687  0.6308 -0.7203
 9140TIP3   OH251614   0.514   0.789  11.308  0.1613  0.3913 -0.0602
 9140TIP3    H151615   0.440   0.734  11.333  0.4192  0.7953  1.7308
 9140TIP3    H251616   0.485   0.878  11.330  0.4242  0.7963 -1.2637
 9141TIP3   OH251617   0.487   5.443  12.546  0.4918  0.3892 -0.6546
 9141TIP3    H151618   0.415   5.461  12.606  2.3697 -0.0109  1.8666
 9141TIP3    H251619   0.444   5.419  12.464 -2.2993 -1.2514  1.1252
 9142TIP3   OH251620   7.089   4.989  11.221  0.3560  0.4293  0.6105
 9142TIP3    H151621   7.100   4.973  11.315  0.5883  1.1411  0.7098
 9142TIP3    H251622   7.094   4.902  11.182 -1.3079 -0.0677  1.3928
 9143TIP3   OH251623   0.441   6.619  12.115  0.5339  0.4551 -0.4790
 9143TIP3    H151624   0.414   6.631  12.023  0.8362  0.8046 -0.5234
 9143TIP3    H251625   0.373   6.663  12.165  0.3126  0.1745 -0.5284
 9144TIP3   OH251626   4.999   3.128  11.235  0.2545 -0.1476 -0.5620
 9144TIP3    H151627   5.053   3.065  11.282 -0.2017 -1.1370 -1.2959
 9144TIP3    H251628   5.046   3.211  11.241  0.4362 -0.3498  1.1913
 9145TIP3   OH251629   5.477   5.228  10.447  0.3759 -0.0292 -0.1868
 9145TIP3    H151630   5.412   5.164  10.419 -0.1240  0.4816 -0.2056
 9145TIP3    H251631   5.522   5.187  10.521 -0.4584 -0.0905  0.2956
 9146TIP3   OH251632   6.357   5.413  11.461 -0.6249  0.0184  0.1940
 9146TIP3    H151633   6.285   5.462  11.422 -1.4959  0.0585  1.8096
 9146TIP3    H251634   6.355   5.328  11.417  0.1481  0.9427 -1.7689
 9147TIP3   OH251635   6.075   2.293  10.621 -0.0856 -0.0928  0.1706
 9147TIP3    H151636   6.100   2.208  10.656 -0.3340 -0.6831 -1.0167
 9147TIP3    H251637   6.158   2.335  10.598  0.0688  0.2472  1.3117
 9148TIP3   OH251638   3.453   5.545  11.222 -0.0528 -0.0294  0.2111
 9148TIP3    H151639   3.447   5.455  11.256  0.5064  0.3745  1.4522
 9148TIP3    H251640   3.424   5.600  11.295  3.0533  0.9950  0.8479
 9149TIP3   OH251641   3.714   6.747  10.948  0.0175 -0.4859  0.4769
 9149TIP3    H151642   3.723   6.683  11.019  0.5884 -0.5753  0.3260
 9149TIP3    H251643   3.719   6.694  10.868 -0.7539 -0.4027  0.3660
 9150TIP3   OH251644   7.044   0.792  10.941 -0.6262  0.6238  0.0536
 9150TIP3    H151645   7.094   0.855  10.994 -0.2147  0.9901 -0.7640
 9150TIP3    H251646   7.080   0.706  10.966 -0.4117  0.7956  0.3404
 9151TIP3   OH251647   3.506   5.409  12.573 -0.5674  0.0591 -0.0601
 9151TIP3    H151648   3.494   5.322  12.612 -0.1514  0.6777  1.5057
 9151TIP3    H251649   3.433   5.461  12.608  1.9802  1.7231  3.2883
 9152TIP3   OH251650   2.361   0.460  11.113 -0.0198 -0.8770  0.4708
 9152TIP3    H151651   2.298   0.520  11.152  0.0615  0.9476 -1.9901
 9152TIP3    H251652   2.438   0.513  11.095  0.6760 -2.0937 -0.3236
 9153TIP3   OH251653   1.288   4.492  12.320 -0.0505  0.1238 -0.0714
 9153TIP3    H151654   1.202   4.456  12.295  0.4825 -0.3703 -1.3021
 9153TIP3    H251655   1.311   4.446  12.400  0.3802 -2.0188 -1.3288
 9154TIP3   OH251656   6.317   3.938  12.754  0.2928  0.2426  0.1909
 9154TIP3    H151657   6.267   3.992  12.693  0.1682  1.9000  1.6641
 9154TIP3    H251658   6.408   3.948  12.726  0.2372  0.9819  0.2471
 9155TIP3   OH251659   2.428   4.605  13.380 -0.0220 -0.4254  0.1846
 9155TIP3    H151660   2.368   4.531  13.371 -2.0208  1.1976 -0.6456
 9155TIP3    H251661   2.503   4.581  13.325 -0.3463 -2.0434  0.3786
 9156TIP3   OH251662   6.317   6.401  12.705  0.1439  0.0509 -0.0377
 9156TIP3    H151663   6.376   6.371  12.774  0.0068 -0.8803 -0.3088
 9156TIP3    H251664   6.229   6.390  12.742  0.0588 -0.6876 -0.4279
 9157TIP3   OH251665   4.087   4.815  11.364  0.4414  0.0549 -0.0135
 9157TIP3    H151666   4.050   4.891  11.319  1.5766  0.6461  0.0071
 9157TIP3    H251667   4.146   4.853  11.429 -1.2072 -0.7553  2.0711
 9158TIP3   OH251668   0.245   1.420  12.497 -0.7898 -0.4308  0.0538
 9158TIP3    H151669   0.296   1.460  12.567 -0.7514  0.0647 -0.2497
 9158TIP3    H251670   0.158   1.460  12.506 -0.0590  1.8829 -1.9366
 9159TIP3   OH251671   0.164   3.939  13.265  0.3633  0.3125  0.1032
 9159TIP3    H151672   0.091   3.959  13.207 -1.0846  4.3481  2.8492
 9159TIP3    H251673   0.234   3.998  13.238 -0.0853  1.7288  1.8110
 9160TIP3   OH251674   1.946   0.861  11.606  0.0468  0.3413  0.1540
 9160TIP3    H151675   1.878   0.912  11.562  1.2597  0.3838 -1.7555
 9160TIP3    H251676   1.906   0.836  11.690 -2.4469  0.0704 -1.0232
 9161TIP3   OH251677   5.511   5.481  10.743 -0.3660  0.2162  0.0404
 9161TIP3    H151678   5.595   5.528  10.745  0.2810 -0.8995 -0.3426
 9161TIP3    H251679   5.490   5.474  10.650 -0.4497 -0.2864  0.0988
 9162TIP3   OH251680   2.674   0.729  11.310 -0.0619  0.3311  0.2121
 9162TIP3    H151681   2.730   0.673  11.256  0.4578  2.5704 -1.7694
 9162TIP3    H251682   2.609   0.764  11.248 -0.7526  1.4068  1.4903
 9163TIP3   OH251683   0.369   6.140  11.716 -0.6263  0.0534 -0.2317
 9163TIP3    H151684   0.461   6.152  11.740 -0.2647 -1.5072 -0.7169
 9163TIP3    H251685   0.321   6.151  11.798 -0.0462  1.1828 -0.0348
 9164TIP3   OH251686   0.155   7.415  10.321 -0.5040 -0.6401  0.3201
 9164TIP3    H151687   0.135   7.438  10.230  1.7163  0.1931 -0.0275
 9164TIP3    H251688   0.153   7.319  10.322  2.0849 -0.8124 -1.3789
 9165TIP3   OH251689   2.339   6.593  11.571 -0.6802 -0.1509  0.0635
 9165TIP3    H151690   2.344   6.561  11.661  0.7782 -0.8481 -0.2381
 9165TIP3    H251691   2.261   6.649  11.570 -1.0888 -0.6442  1.5831
 9166TIP3   OH251692   5.676   4.269  10.638  0.4463  0.3712  0.6167
 9166TIP3    H151693   5.653   4.238  10.725 -0.0799  2.0208  1.1003
 9166TIP3    H251694   5.768   4.295  10.644  1.3593 -2.3204 -0.1925
 9167TIP3   OH251695   6.391   2.163  12.055 -0.1850  0.2291  0.2460
 9167TIP3    H151696   6.472   2.213  12.044 -0.5671  0.9021  0.4014
 9167TIP3    H251697   6.383   2.149  12.149 -1.0668  1.6017  0.4096
 9168TIP3   OH251698   3.346   7.389  11.289 -0.0425 -0.6591  0.1982
 9168TIP3    H151699   3.375   7.477  11.265 -1.3698 -0.5253 -1.1298
 9168TIP3    H251700   3.426   7.338  11.294  0.7388  0.5716  0.8157
 9169TIP3   OH251701   0.623   1.012  13.084 -0.0439 -0.7379  0.2154
 9169TIP3    H151702   0.678   0.941  13.052  2.3200  0.4803  1.3169
 9169TIP3    H251703   0.637   1.013  13.179  0.3809  1.4449  0.1966
 9170TIP3   OH251704   0.171   2.946  13.788 -0.1358 -0.3958 -0.3269
 9170TIP3    H151705   0.189   2.880  13.722 -2.1566 -1.4609  0.0791
 9170TIP3    H251706   0.131   2.897  13.860 -2.0379  1.2591 -0.1560
 9171TIP3   OH251707   6.187   2.298  12.694  0.0132 -0.6841 -0.3856
 9171TIP3    H151708   6.121   2.234  12.720  0.2213 -0.5081  0.6204
 9171TIP3    H251709   6.165   2.320  12.603 -1.7694 -0.0470  0.1562
 9172TIP3   OH251710   0.080   2.091  10.799 -0.1476 -0.4491  0.0152
 9172TIP3    H151711   0.037   2.171  10.828  2.5585  1.3333 -0.5398
 9172TIP3    H251712   0.099   2.043  10.880  0.1703  0.5637  0.5579
 9173TIP3   OH251713   4.337   1.572  10.845 -0.2386  0.2414 -0.5854
 9173TIP3    H151714   4.261   1.519  10.823 -0.9094  1.2225 -0.7308
 9173TIP3    H251715   4.351   1.555  10.939 -0.3367 -0.3090 -0.6669
 9174TIP3   OH251716   7.614   0.723  11.870  0.1693 -0.1429  0.2055
 9174TIP3    H151717   7.656   0.792  11.921  0.3384 -0.1089  0.0205
 9174TIP3    H251718   7.622   0.645  11.924 -0.2081  0.0235  0.5097
 9175TIP3   OH251719   2.755   3.924  12.497  0.6450 -0.4065 -0.6188
 9175TIP3    H151720   2.689   3.881  12.551 -0.2713  0.2434 -1.1780
 9175TIP3    H251721   2.806   3.977  12.558 -1.7166  2.0117 -0.5446
 9176TIP3   OH251722   3.842   3.433  12.881  0.6743 -0.4748 -0.7316
 9176TIP3    H151723   3.882   3.418  12.966 -1.4059  2.7290  1.0474
 9176TIP3    H251724   3.749   3.412  12.894  0.1108  1.1514 -1.7657
 9177TIP3   OH251725   5.482   1.360  11.160  0.5621  0.1326  0.4294
 9177TIP3    H151726   5.443   1.432  11.109  1.8988  0.5012 -0.1176
 9177TIP3    H251727   5.407   1.319  11.204 -0.2164  2.0300  0.9832
 9178TIP3   OH251728   1.721   2.992  11.502  0.5739  1.0957  0.2994
 9178TIP3    H151729   1.678   3.022  11.422  0.0992 -0.2997 -0.0077
 9178TIP3    H251730   1.780   2.922  11.472  0.9098  1.0369  1.0792
 9179TIP3   OH251731   6.310   5.783  11.532 -0.1455 -0.3908 -0.5305
 9179TIP3    H151732   6.382   5.729  11.563 -1.2513 -0.8387  1.4313
 9179TIP3    H251733   6.234   5.754  11.584 -1.4813  0.8628 -1.6876
 9180TIP3   OH251734   6.981   3.749  12.639 -0.5582  0.6778  0.0226
 9180TIP3    H151735   6.926   3.677  12.668 -0.5124  0.0275 -1.4254
 9180TIP3    H251736   7.052   3.752  12.703  0.7294 -2.1261 -1.1173
 9181TIP3   OH251737   5.218   1.420  12.542  0.2805 -0.3714  0.7360
 9181TIP3    H151738   5.241   1.383  12.628 -0.2362  0.8125  1.3991
 9181TIP3    H251739   5.202   1.513  12.559  1.1075  0.0907 -0.8141
 9182TIP3   OH251740   5.743   0.506  12.100  0.0426  0.6617  0.1352
 9182TIP3    H151741   5.738   0.469  12.188 -0.1562 -1.3386 -0.6641
 9182TIP3    H251742   5.654   0.498  12.066  0.5512 -0.5617 -0.9813
 9183TIP3   OH251743   1.486   6.797  10.665 -0.7048 -0.1571  0.4519
 9183TIP3    H151744   1.524   6.723  10.616 -0.7508  0.5645 -0.7181
 9183TIP3    H251745   1.397   6.805  10.630 -0.5888  0.6554  0.3350
 9184TIP3   OH251746   3.049   6.119  11.667  0.4523  0.2312  0.3293
 9184TIP3    H151747   3.112   6.147  11.734  2.4137  2.8098 -2.3537
 9184TIP3    H251748   3.089   6.041  11.628  0.0624 -0.3720  1.1186
 9185TIP3   OH251749   3.327   1.029  10.514 -0.3315  0.0727 -0.1855
 9185TIP3    H151750   3.296   1.006  10.426  0.5787  0.3795 -0.6003
 9185TIP3    H251751   3.305   1.122  10.522 -4.1143 -0.7715  1.5304
 9186TIP3   OH251752   4.930   5.989  12.967  0.6322 -0.5145 -0.5860
 9186TIP3    H151753   4.938   6.073  13.012  2.5850  0.7002 -2.9285
 9186TIP3    H251754   5.003   5.936  13.000  0.3630 -0.6868 -0.2684
 9187TIP3   OH251755   3.298   6.796  11.635  0.2625 -0.3402  0.0427
 9187TIP3    H151756   3.346   6.878  11.647 -1.1672  0.8193 -1.7739
 9187TIP3    H251757   3.351   6.747  11.571  0.6285 -0.4659  0.4312
 9188TIP3   OH251758   6.438   7.540  13.416 -0.1351 -0.3818 -0.5337
 9188TIP3    H151759   6.469   7.622  13.456 -1.8840 -0.1696  0.4985
 9188TIP3    H251760   6.352   7.563  13.379  0.0857 -1.3645 -1.7000
 9189TIP3   OH251761   4.105   0.677  11.538  0.5841 -0.2828  0.1302
 9189TIP3    H151762   4.111   0.583  11.556 -0.7278  0.1137  3.1874
 9189TIP3    H251763   4.015   0.689  11.507 -0.3262  0.3086  2.8087
 9190TIP3   OH251764   0.025   3.294  12.933 -0.2363  0.3599  0.3800
 9190TIP3    H151765   0.077   3.359  12.979 -1.0160  0.4620  1.1458
 9190TIP3    H251766   0.017   3.221  12.995  0.2264 -0.2687 -0.2850
 9191TIP3   OH251767   7.356   1.118  12.500  0.3300 -0.2037  0.0439
 9191TIP3    H151768   7.450   1.124  12.489  0.2269 -0.6704 -1.2530
 9191TIP3    H251769   7.340   1.151  12.588  1.7365 -0.4989  0.4316
 9192TIP3   OH251770   2.829   2.381  11.765 -0.2306  0.6170 -0.2966
 9192TIP3    H151771   2.827   2.413  11.674  2.7317  0.5402 -0.4712
 9192TIP3    H251772   2.842   2.460  11.817  1.8776  0.3316 -0.3085
 9193TIP3   OH251773   3.409   1.927  11.586  0.0401 -0.0567  0.2684
 9193TIP3    H151774   3.403   2.021  11.570  1.3342  0.2164  1.2315
 9193TIP3    H251775   3.321   1.902  11.613 -0.4759  0.7431 -0.5816
 9194TIP3   OH251776   6.132   4.546  12.169  0.5581  0.3847  0.3261
 9194TIP3    H151777   6.147   4.452  12.179 -0.7139  0.1717  0.4090
 9194TIP3    H251778   6.164   4.584  12.251  0.4702 -0.0581  0.5728
 9195TIP3   OH251779   1.495   2.350  12.992  0.3481 -0.4884 -0.6069
 9195TIP3    H151780   1.469   2.399  12.914  0.3094 -0.3552 -0.5115
 9195TIP3    H251781   1.458   2.400  13.065  0.5431 -0.5098 -0.4934
 9196TIP3   OH251782   1.100   4.760  12.627  0.5670 -0.3208  0.0034
 9196TIP3    H151783   1.158   4.696  12.668  0.2108 -0.3853  0.4146
 9196TIP3    H251784   1.054   4.710  12.559 -0.4907 -0.7854  1.0230
 9197TIP3   OH251785   1.896   2.626  13.186  0.6699  0.1818 -0.2819
 9197TIP3    H151786   1.891   2.531  13.198  1.3231  0.1860  0.0341
 9197TIP3    H251787   1.824   2.661  13.240  0.9739 -0.0790  0.2998
 9198TIP3   OH251788   2.918   4.312  12.329 -0.5378 -0.0520  0.2135
 9198TIP3    H151789   2.984   4.359  12.278 -1.2686  0.2439 -0.4888
 9198TIP3    H251790   2.834   4.341  12.292 -1.1277  0.5410  1.9019
 9199TIP3   OH251791   5.586   1.793  12.429  0.1264 -0.1886  0.1189
 9199TIP3    H151792   5.525   1.779  12.357 -1.1839 -0.2959  1.2207
 9199TIP3    H251793   5.667   1.749  12.401 -1.0549 -2.1766 -0.3232
 9200TIP3   OH251794   5.827   1.669  10.989 -0.0476 -0.0932 -0.2445
 9200TIP3    H151795   5.783   1.627  10.916 -1.1533 -0.2101  0.4538
 9200TIP3    H251796   5.787   1.629  11.067 -0.6061  1.6773  0.4306
 9201TIP3   OH251797   2.651   6.816  12.049 -0.1894  0.5988 -0.1992
 9201TIP3    H151798   2.726   6.768  12.015 -0.1922  0.7592 -0.4334
 9201TIP3    H251799   2.687   6.878  12.112 -0.1554  0.4887 -0.1098
 9202TIP3   OH251800   1.813   7.133  10.436  0.3975 -0.0089 -0.2749
 9202TIP3    H151801   1.799   7.222  10.403  1.6655  0.3661  0.1571
 9202TIP3    H251802   1.755   7.126  10.512  0.5338  0.5624 -0.1159
 9203TIP3   OH251803   2.931   5.541  12.403  0.3209 -0.0945  0.2987
 9203TIP3    H151804   3.002   5.500  12.452  0.2993 -0.6969 -0.1613
 9203TIP3    H251805   2.853   5.523  12.455  0.4029 -0.0750  0.4288
 9204TIP3   OH251806   5.086   5.958  10.628 -0.4106  0.1895  0.6946
 9204TIP3    H151807   5.162   5.947  10.684  0.1047  0.9814  0.1735
 9204TIP3    H251808   5.077   6.053  10.618  1.2063  0.1406 -2.7555
 9205TIP3   OH251809   1.803   2.321  11.817  0.6030 -0.5230  0.3884
 9205TIP3    H151810   1.826   2.370  11.738  1.6855 -0.2724  0.8290
 9205TIP3    H251811   1.711   2.297  11.806  0.8641 -0.8856 -1.1414
 9206TIP3   OH251812   5.865   0.451  11.203 -0.1325 -0.3048  0.2021
 9206TIP3    H151813   5.812   0.376  11.229 -0.7794  0.4210  1.0491
 9206TIP3    H251814   5.955   0.418  11.206 -0.3946 -1.0078  0.6892
 9207TIP3   OH251815   0.132   5.095  12.141  0.0768 -0.4236 -0.0746
 9207TIP3    H151816   0.154   5.188  12.128  0.1970 -0.2927  1.0142
 9207TIP3    H251817   0.193   5.048  12.084  3.5839 -0.0863  3.0782
 9208TIP3   OH251818   0.167   3.595  11.303  0.4983 -0.1565  0.0080
 9208TIP3    H151819   0.181   3.641  11.386 -1.6786  0.4434  0.0935
 9208TIP3    H251820   0.076   3.612  11.281  0.5980 -1.5967 -1.7436
 9209TIP3   OH251821   5.370   7.433  11.434  0.0028 -0.3878 -0.6154
 9209TIP3    H151822   5.465   7.422  11.444 -0.1565 -0.9661  0.3870
 9209TIP3    H251823   5.354   7.417  11.341  0.8492 -0.6000 -0.7348
 9210TIP3   OH251824   1.310   7.263  12.201 -0.2306 -0.5000 -0.0596
 9210TIP3    H151825   1.302   7.355  12.176 -1.2945  0.3703  2.9968
 9210TIP3    H251826   1.404   7.245  12.196 -0.1297  0.3302 -1.8879
 9211TIP3   OH251827   6.635   6.743  13.041 -0.3862 -0.5819  0.0813
 9211TIP3    H151828   6.668   6.693  13.116  2.0363 -1.6716 -1.5837
 9211TIP3    H251829   6.655   6.834  13.062  1.5814 -0.9931  0.2336
 9212TIP3   OH251830   6.633   3.214  11.979 -0.1322 -0.4146  0.2774
 9212TIP3    H151831   6.568   3.252  11.920  0.1132 -1.3796 -0.6526
 9212TIP3    H251832   6.681   3.289  12.013 -0.4615  0.1839 -0.5431
 9213TIP3   OH251833   6.267   3.718  12.079 -0.6936  0.2377  0.2097
 9213TIP3    H151834   6.184   3.742  12.037 -0.2298 -0.8145 -1.4007
 9213TIP3    H251835   6.316   3.800  12.085 -1.2280  0.5973 -0.3063
 9214TIP3   OH251836   7.493   4.508  13.524 -0.3427  0.0213  0.2430
 9214TIP3    H151837   7.532   4.433  13.480  1.4206  1.4868 -0.8539
 9214TIP3    H251838   7.439   4.550  13.457  1.3264  1.5373 -0.2267
 9215TIP3   OH251839   1.344   4.384  12.577 -0.1710 -0.6488 -0.3586
 9215TIP3    H151840   1.328   4.384  12.671  1.0617 -1.7292 -0.1153
 9215TIP3    H251841   1.439   4.396  12.568 -0.2594 -0.6142 -1.4548
 9216TIP3   OH251842   7.082   3.069  11.937 -0.0927  0.1055  0.4189
 9216TIP3    H151843   7.081   3.134  12.008 -0.7666  0.7195 -0.1368
 9216TIP3    H251844   6.998   3.024  11.944 -0.0246 -0.0532  0.2123
 9217TIP3   OH251845   1.315   2.631  11.383  0.4621  0.7703  0.1775
 9217TIP3    H151846   1.341   2.547  11.421  1.4541  0.8614 -0.2607
 9217TIP3    H251847   1.349   2.628  11.294 -2.8024  0.0771 -1.2024
 9218TIP3   OH251848   0.861   3.794  10.684 -0.0098  0.5326  0.1861
 9218TIP3    H151849   0.876   3.799  10.778  0.9887 -0.2875  0.0931
 9218TIP3    H251850   0.940   3.753  10.649 -0.8582 -0.2847 -0.8683
 9219TIP3   OH251851   4.514   3.697  10.857  0.6507 -0.2334 -0.7382
 9219TIP3    H151852   4.518   3.776  10.804 -0.8571  0.7718  0.5521
 9219TIP3    H251853   4.579   3.711  10.926  0.4947 -0.1964 -0.5992
 9220TIP3   OH251854   0.521   2.286  11.019  0.2817 -0.5902  0.2356
 9220TIP3    H151855   0.555   2.196  11.014  1.2220 -0.2457  0.1782
 9220TIP3    H251856   0.443   2.286  10.963  1.2292 -0.9503 -1.1376
 9221TIP3   OH251857   3.329   7.429  12.010  0.0385  0.4143  0.4991
 9221TIP3    H151858   3.272   7.491  12.057  0.2983 -0.1594  1.5969
 9221TIP3    H251859   3.405   7.418  12.067  0.8369  0.4455 -0.5216
 9222TIP3   OH251860   5.603   3.870  11.430 -0.2909 -0.2578  0.4414
 9222TIP3    H151861   5.587   3.939  11.495  1.3369  1.1211 -0.5120
 9222TIP3    H251862   5.528   3.812  11.437 -0.7308  0.4842  2.7276
 9223TIP3   OH251863   5.216   2.832  12.445  0.7072 -0.4262  0.4739
 9223TIP3    H151864   5.244   2.788  12.366 -0.3385 -0.5322  0.1428
 9223TIP3    H251865   5.255   2.919  12.440 -1.5514  0.5789 -1.5728
 9224TIP3   OH251866   7.614   2.000  13.259 -0.3333 -0.7361  0.8095
 9224TIP3    H151867   7.693   2.023  13.307 -1.1102 -0.2427  1.8869
 9224TIP3    H251868   7.565   2.082  13.252  0.0771 -0.6302 -1.4896
 9225TIP3   OH251869   5.375   7.118  12.419  0.3158 -0.0492  0.1699
 9225TIP3    H151870   5.419   7.098  12.337  0.8787 -0.7550  0.6333
 9225TIP3    H251871   5.418   7.197  12.452  0.3945 -0.0293  0.0195
 9226TIP3   OH251872   7.206   3.784  12.797  0.0852 -0.3523  0.0921
 9226TIP3    H151873   7.243   3.830  12.873  0.7393  1.1884 -1.1010
 9226TIP3    H251874   7.282   3.745  12.754 -0.3734 -1.8703  0.6111
 9227TIP3   OH251875   3.805   3.151  11.167  0.0920  0.8271  0.2595
 9227TIP3    H151876   3.848   3.073  11.203 -1.3922 -0.4884 -0.6535
 9227TIP3    H251877   3.825   3.221  11.229  1.6680 -0.2183  0.9961
 9228TIP3   OH251878   4.228   2.906  12.349 -0.0336  0.0238  0.1498
 9228TIP3    H151879   4.149   2.956  12.366 -0.5968 -0.7848 -0.0655
 9228TIP3    H251880   4.251   2.868  12.434  0.2913  0.4947  0.2745
 9229TIP3   OH251881   1.079   2.698  12.046  0.2658 -0.3480 -0.2592
 9229TIP3    H151882   1.126   2.768  12.092  1.1385 -1.3202  0.3620
 9229TIP3    H251883   1.129   2.685  11.965  0.4047 -0.6198 -0.1280
 9230TIP3   OH251884   2.037   1.614  10.645 -0.3113  0.1585  0.3230
 9230TIP3    H151885   1.971   1.554  10.679 -0.8819 -0.3709 -1.5813
 9230TIP3    H251886   2.052   1.584  10.555  1.8636  0.8351  0.4039
 9231TIP3   OH251887   1.851   2.784  11.401  0.3985 -0.3194 -0.0312
 9231TIP3    H151888   1.786   2.716  11.419  1.8868 -1.7872  0.0754
 9231TIP3    H251889   1.876   2.769  11.309  1.6083 -0.7362  0.3413
 9232TIP3   OH251890   7.261   4.174  12.296 -0.0645  0.0398  0.3224
 9232TIP3    H151891   7.215   4.179  12.212 -2.1104 -1.0941  1.3028
 9232TIP3    H251892   7.195   4.198  12.361  1.3348  0.4093  1.6668
 9233TIP3   OH251893   0.668   0.672  12.272  0.2539 -0.0342  0.0275
 9233TIP3    H151894   0.585   0.692  12.317 -0.8278 -1.2562 -1.3357
 9233TIP3    H251895   0.676   0.741  12.206  0.7509  0.5366  0.6698
 9234TIP3   OH251896   3.330   5.276  10.742 -0.3410  0.4738 -0.2069
 9234TIP3    H151897   3.288   5.362  10.751  1.8320  1.4949  0.9629
 9234TIP3    H251898   3.260   5.218  10.713 -1.6494  2.8625 -2.2009
 9235TIP3   OH251899   3.340   2.188  11.554  0.4002  0.0845  0.2882
 9235TIP3    H151900   3.275   2.255  11.573  1.9655  2.2250 -1.3365
 9235TIP3    H251901   3.331   2.171  11.460 -1.5147 -3.8928  0.9655
 9236TIP3   OH251902   3.099   5.810  12.625  0.4407  0.0893  0.1357
 9236TIP3    H151903   3.184   5.851  12.642  0.3406 -0.2893  1.6818
 9236TIP3    H251904   3.039   5.850  12.688 -0.2061 -0.6794  0.0336
 9237TIP3   OH251905   5.291   0.090  13.185 -0.0994 -0.6816  0.1884
 9237TIP3    H151906   5.235   0.078  13.261  0.0933  3.0583  1.0886
 9237TIP3    H251907   5.248   0.158  13.134  1.4249 -0.8234 -1.3857
 9238TIP3   OH251908   0.285   5.053  11.907 -0.3769 -0.1698  0.2771
 9238TIP3    H151909   0.208   5.041  11.851 -0.6294 -2.5402  1.0375
 9238TIP3    H251910   0.352   4.996  11.868  1.2752  2.2793 -0.7172
 9239TIP3   OH251911   6.282   7.196  11.982 -0.1650 -0.8551  0.4417
 9239TIP3    H151912   6.225   7.195  12.058 -0.5637 -3.0555  0.1857
 9239TIP3    H251913   6.343   7.123  11.996  2.9514  1.6343  0.9044
 9240TIP3   OH251914   4.492   4.524  10.706 -0.4892 -0.4236  0.1820
 9240TIP3    H151915   4.534   4.470  10.772 -1.7074  0.8269  2.0733
 9240TIP3    H251916   4.563   4.580  10.673 -0.3242  0.8739  2.5016
 9241TIP3   OH251917   1.707   6.508  12.785  0.5637 -0.1494 -0.8237
 9241TIP3    H151918   1.718   6.597  12.751  0.6251  1.1981  2.4279
 9241TIP3    H251919   1.633   6.515  12.846  1.7485 -1.8566  0.9134
 9242TIP3   OH251920   5.088   2.051  12.643 -0.0163 -0.0948  0.6903
 9242TIP3    H151921   5.006   2.008  12.617 -1.3887  2.1823  1.0038
 9242TIP3    H251922   5.113   2.007  12.724 -1.4401 -0.2346  1.0808
 9243TIP3   OH251923   6.616   6.036  12.286 -0.2862 -0.1035 -0.0534
 9243TIP3    H151924   6.624   6.101  12.216 -0.8691 -0.6075 -0.6045
 9243TIP3    H251925   6.698   5.988  12.283 -0.5724 -0.5738 -0.8741
 9244TIP3   OH251926   0.024   4.134  11.986 -0.0287  0.3329  0.3779
 9244TIP3    H151927  -0.000   4.064  11.924  1.2782 -1.0341  1.3320
 9244TIP3    H251928   0.116   4.152  11.967  0.0948  0.6311  1.2377
 9245TIP3   OH251929   6.867   3.517  12.320 -0.1210 -0.1744  0.8827
 9245TIP3    H151930   6.930   3.584  12.343  0.1336 -0.4095  0.8762
 9245TIP3    H251931   6.782   3.560  12.326  0.1528  0.7684 -1.3245
 9246TIP3   OH251932   1.974   6.564  12.416  0.4847 -0.6228 -0.5280
 9246TIP3    H151933   2.027   6.532  12.343  2.4590  0.7110  0.2412
 9246TIP3    H251934   1.973   6.659  12.405  1.5164 -0.3121  1.5848
 9247TIP3   OH251935   5.985   6.283  12.548 -0.1219  0.8719 -0.4397
 9247TIP3    H151936   5.930   6.357  12.524 -0.9800  0.1160 -0.8832
 9247TIP3    H251937   5.925   6.221  12.588  0.7540  0.8061  0.8216
 9248TIP3   OH251938   1.622   1.899  11.062 -0.4173  0.0354  0.2064
 9248TIP3    H151939   1.593   1.982  11.023 -1.4554 -0.8975 -1.1529
 9248TIP3    H251940   1.668   1.924  11.141  0.2215  1.9719 -0.7110
 9249TIP3   OH251941   4.559   4.868  11.086 -0.2615  0.6366  0.3614
 9249TIP3    H151942   4.583   4.860  10.994  2.3472  0.7802  0.9698
 9249TIP3    H251943   4.554   4.778  11.118 -1.2266  0.5843  0.1018
 9250TIP3   OH251944   1.837   4.949  10.511  0.0809 -0.3000 -0.1349
 9250TIP3    H151945   1.887   4.903  10.444 -1.5029 -0.1366 -1.4734
 9250TIP3    H251946   1.775   4.884  10.545  0.0305 -0.0382  0.2932
 9251TIP3   OH251947   5.417   6.018  10.896  0.2934 -0.3970 -0.3404
 9251TIP3    H151948   5.398   6.063  10.978  0.9154  0.3550 -0.5975
 9251TIP3    H251949   5.512   6.023  10.887  0.3457 -1.4569 -0.5578
 9252TIP3   OH251950   6.563   6.831  13.642  0.1486 -0.6064  0.3324
 9252TIP3    H151951   6.559   6.735  13.639 -0.5300 -0.5650 -1.4334
 9252TIP3    H251952   6.623   6.855  13.572 -0.7966  0.2968 -0.2021
 9253TIP3   OH251953   6.727   1.925  10.959 -0.0463  0.0905 -0.0884
 9253TIP3    H151954   6.784   1.973  10.899 -2.3654  2.5527 -0.5018
 9253TIP3    H251955   6.749   1.961  11.046 -1.7767  2.0994 -0.3967
 9254TIP3   OH251956   6.163   4.481  10.579 -0.5734 -0.6025 -0.0508
 9254TIP3    H151957   6.242   4.485  10.633 -0.4876  0.1470 -0.2231
 9254TIP3    H251958   6.173   4.400  10.529  0.5763 -0.0460 -0.7948
 9255TIP3   OH251959   2.323   7.221  12.481 -0.0285 -0.2452 -0.1640
 9255TIP3    H151960   2.326   7.185  12.392 -3.1738 -2.0382  0.3037
 9255TIP3    H251961   2.247   7.279  12.480  0.5072  0.5073  1.1029
 9256TIP3   OH251962   1.196   7.107  10.519 -0.7276  0.5992  0.4122
 9256TIP3    H151963   1.175   7.115  10.426  0.7463  0.8253  0.0854
 9256TIP3    H251964   1.289   7.127  10.525 -0.2435 -1.7197  1.6137
 9257TIP3   OH251965   5.443   0.039  10.784 -0.3824  0.1570 -0.5153
 9257TIP3    H151966   5.398   0.119  10.812  0.0752  0.9061 -1.8522
 9257TIP3    H251967   5.533   0.067  10.766  0.1853 -0.9625  0.3800
 9258TIP3   OH251968   0.761   6.345  11.967 -0.2247 -0.4253  0.0999
 9258TIP3    H151969   0.772   6.393  12.049  0.9060 -0.7949  0.1905
 9258TIP3    H251970   0.848   6.348  11.926 -0.6511 -0.6691 -0.8447
 9259TIP3   OH251971   0.015   6.800  10.806 -0.6549  0.2503 -0.0623
 9259TIP3    H151972  -0.003   6.878  10.754  2.2815  0.3058 -1.1804
 9259TIP3    H251973   0.004   6.727  10.744 -1.7660 -0.1286  0.5467
 9260TIP3   OH251974   3.605   0.128  10.856  0.1815 -0.3542  0.2600
 9260TIP3    H151975   3.524   0.159  10.897 -0.0632 -0.7664  0.0895
 9260TIP3    H251976   3.596   0.033  10.852  0.0372 -0.3129 -1.0654
 9261TIP3   OH251977   4.624   7.323  10.704 -0.1588  0.1936  0.3582
 9261TIP3    H151978   4.618   7.230  10.726 -0.2031 -0.1915 -1.1760
 9261TIP3    H251979   4.685   7.327  10.630 -1.4746  1.1526 -0.7457
 9262TIP3   OH251980   2.157   1.880  11.378  0.1218  0.1759 -0.6168
 9262TIP3    H151981   2.245   1.873  11.413  0.4515 -0.6793 -1.5476
 9262TIP3    H251982   2.148   1.971  11.350  1.1538 -0.0171 -1.6207
 9263TIP3   OH251983   5.337   0.427  11.256  0.0499 -0.2112 -0.3084
 9263TIP3    H151984   5.295   0.446  11.171 -0.6794  0.1363  0.1209
 9263TIP3    H251985   5.430   0.442  11.240  0.0758 -1.2510 -1.3589
 9264TIP3   OH251986   5.790   5.915  10.631  0.2096 -0.0308 -0.0612
 9264TIP3    H151987   5.748   5.832  10.656  0.4906 -0.1940 -0.1242
 9264TIP3    H251988   5.779   5.919  10.536  0.2264 -0.0138 -0.0624
 9265TIP3   OH251989   3.261   3.650  11.506 -0.0695  0.1602  0.1673
 9265TIP3    H151990   3.310   3.594  11.566 -0.7153 -1.7410 -1.0054
 9265TIP3    H251991   3.327   3.708  11.469  0.8911 -0.8100  0.3161
 9266TIP3   OH251992   4.481   3.220  12.850  0.0368  0.0448 -0.4144
 9266TIP3    H151993   4.472   3.124  12.844 -0.7237  0.0351  0.5659
 9266TIP3    H251994   4.533   3.244  12.773 -0.0547 -1.1178 -0.8666
 9267TIP3   OH251995   3.705   2.142  12.393  0.5112 -0.1368 -0.3603
 9267TIP3    H151996   3.619   2.183  12.384  0.9670  1.0922  0.5651
 9267TIP3    H251997   3.766   2.216  12.398  1.6434 -0.9911 -1.1268
 9268TIP3   OH251998   7.275   7.535  11.512  0.7716  0.4163 -0.3779
 9268TIP3    H151999   7.278   7.594  11.437 -0.5427  1.6225  0.4565
 9268TIP3    H252000   7.212   7.576  11.572 -1.8905 -2.8184 -0.6186
 9269TIP3   OH252001   0.713   5.871  11.709  0.5044  0.4570 -0.1799
 9269TIP3    H152002   0.804   5.843  11.700  1.0388  2.3103 -0.9590
 9269TIP3    H252003   0.717   5.967  11.708 -1.3666  0.5957  0.7719
 9270TIP3   OH252004   4.354   3.476  10.990 -0.3416  0.2565  0.4127
 9270TIP3    H152005   4.424   3.484  10.925 -0.0489  3.0027  0.9175
 9270TIP3    H252006   4.273   3.487  10.939 -0.1909  0.8706  0.2932
 9271TIP3   OH252007   5.716   4.908  10.942  0.0028  0.0125  0.2655
 9271TIP3    H152008   5.722   4.814  10.960  0.2820  0.1713  1.0091
 9271TIP3    H252009   5.631   4.918  10.900 -0.4941 -0.4213  1.1378
 9272TIP3   OH252010   1.346   6.267  12.398  0.3573 -0.0851  0.4835
 9272TIP3    H152011   1.430   6.236  12.432  0.2745  0.7405  1.4983
 9272TIP3    H252012   1.280   6.230  12.457  0.0042 -0.6418 -0.2440
 9273TIP3   OH252013   4.884   7.330  12.561 -0.0347 -0.0327  0.1633
 9273TIP3    H152014   4.908   7.350  12.651 -0.5692  0.7936  0.1298
 9273TIP3    H252015   4.955   7.275  12.528 -0.8598 -2.2046  1.7608
 9274TIP3   OH252016   6.125   6.895  11.068 -0.5685  0.0320 -0.4079
 9274TIP3    H152017   6.149   6.961  11.003 -0.5690 -0.6514 -1.1180
 9274TIP3    H252018   6.208   6.864  11.104 -0.5965  1.1672  0.7210
 9275TIP3   OH252019   0.981   2.146  10.286  0.3778  0.0932  0.4106
 9275TIP3    H152020   0.950   2.217  10.342 -0.0043 -1.2691  2.0078
 9275TIP3    H252021   0.933   2.069  10.317  1.5761 -1.0683 -0.5399
 9276TIP3   OH252022   0.303   3.545  12.315  0.3907  0.5123  0.1143
 9276TIP3    H152023   0.334   3.620  12.365  1.3970  0.8901 -1.0204
 9276TIP3    H252024   0.380   3.514  12.267 -0.5570  0.3013 -1.3475
 9277TIP3   OH252025   4.970   3.416  12.280 -0.0119 -0.6496 -0.3815
 9277TIP3    H152026   4.920   3.437  12.359 -0.8882 -0.5069 -0.9677
 9277TIP3    H252027   4.932   3.471  12.212  2.1645  0.9060 -0.4757
 9278TIP3   OH252028   5.160   5.812  12.693  0.1645 -0.3857  0.4683
 9278TIP3    H152029   5.093   5.760  12.648 -0.8412  0.5610  0.8256
 9278TIP3    H252030   5.179   5.761  12.772 -0.4696 -0.4560  0.5863
 9279TIP3   OH252031   3.709   6.029  11.617 -0.2053  0.6216 -0.0588
 9279TIP3    H152032   3.734   5.959  11.678  1.1716 -0.3007 -1.6166
 9279TIP3    H252033   3.617   6.011  11.597 -0.6470  0.8509  1.5767
 9280TIP3   OH252034   5.535   7.244  12.118  0.5881 -0.0978  0.4388
 9280TIP3    H152035   5.629   7.246  12.137  0.1939 -1.0701  2.9944
 9280TIP3    H252036   5.501   7.323  12.161  0.2809  0.6196 -1.0665
 9281TIP3   OH252037   1.308   6.775  11.634  0.3434  0.3028  0.4334
 9281TIP3    H152038   1.359   6.851  11.607  3.1862 -1.5459  0.1966
 9281TIP3    H252039   1.268   6.802  11.717  0.0776  2.4847 -0.3340
 9282TIP3   OH252040   0.931   5.815  10.490 -0.1695  0.0175 -0.1872
 9282TIP3    H152041   1.014   5.769  10.503  0.0522  0.1311 -1.1377
 9282TIP3    H252042   0.924   5.827  10.396 -1.4344 -0.2857 -0.1507
 9283TIP3   OH252043   0.412   7.507  10.968  0.4147  0.0746 -0.3012
 9283TIP3    H152044   0.474   7.543  10.906  2.0471 -0.4365  0.9641
 9283TIP3    H252045   0.459   7.435  11.010 -1.1980 -0.6256  0.3854
 9284TIP3   OH252046   6.893   6.251  13.253  0.0400  0.8209  0.1415
 9284TIP3    H152047   6.955   6.313  13.293  0.1920  0.9547 -0.2932
 9284TIP3    H252048   6.877   6.186  13.321  0.9988  0.5429  0.1217
 9285TIP3   OH252049   4.115   0.898  11.770 -0.4153 -0.3205  0.1841
 9285TIP3    H152050   4.158   0.813  11.768  1.2517  0.5028 -0.3023
 9285TIP3    H252051   4.111   0.925  11.679 -0.8007  0.1941  0.3494
 9286TIP3   OH252052   2.963   7.408  12.244 -0.1688 -0.3901  0.7652
 9286TIP3    H152053   2.903   7.345  12.205 -3.0000  0.4624  3.3627
 9286TIP3    H252054   2.912   7.488  12.254  2.4770  1.5383  0.0846
 9287TIP3   OH252055   6.832   4.626  11.643  0.2169  0.5443  0.6474
 9287TIP3    H152056   6.902   4.655  11.701  0.8658  2.1793 -0.8871
 9287TIP3    H252057   6.797   4.706  11.605 -1.4892 -0.3504  0.2036
 9288TIP3   OH252058   5.822   6.635  11.801  0.0585  0.0550  0.0378
 9288TIP3    H152059   5.874   6.708  11.835  0.3408 -0.3781  0.5559
 9288TIP3    H252060   5.876   6.598  11.730  0.2306 -0.0826  0.2402
 9289TIP3   OH252061   0.618   5.342  13.232  0.4136  0.3163  0.0913
 9289TIP3    H152062   0.530   5.336  13.195  0.6362 -1.7361 -0.2340
 9289TIP3    H252063   0.604   5.364  13.324 -0.6261 -1.9877  0.5697
 9290TIP3   OH252064   5.068   4.482  11.608 -0.6214  0.3386  0.0415
 9290TIP3    H152065   4.977   4.503  11.589 -0.8686 -0.5059  0.2160
 9290TIP3    H252066   5.062   4.417  11.678  0.1240  0.4163  0.1801
 9291TIP3   OH252067   4.733   4.201  12.910 -0.3247 -0.2291  0.0076
 9291TIP3    H152068   4.708   4.179  13.000  0.3439  0.8670  0.4738
 9291TIP3    H252069   4.650   4.221  12.867 -0.5109  0.9609  0.8715
 9292TIP3   OH252070   3.260   6.985  12.064  0.1068 -0.2293  0.4336
 9292TIP3    H152071   3.285   7.051  12.000  0.7031 -0.4199  0.4647
 9292TIP3    H252072   3.234   7.035  12.141  0.3152 -0.0282  0.3731
 9293TIP3   OH252073   7.675   4.218  11.142 -0.1052  0.4008 -0.1054
 9293TIP3    H152074   7.607   4.253  11.085 -1.4401 -1.1064  0.4881
 9293TIP3    H252075   7.632   4.204  11.226  0.0961 -3.0893 -0.4295
 9294TIP3   OH252076   2.430   3.410  12.022 -0.2686  0.1042 -0.1440
 9294TIP3    H152077   2.475   3.462  12.088 -1.3565  0.1295  0.5982
 9294TIP3    H252078   2.341   3.401  12.055 -1.2381  1.2386 -2.2165
 9295TIP3   OH252079   4.405   5.224  12.833 -0.2852  0.0670 -0.2717
 9295TIP3    H152080   4.407   5.274  12.915 -1.8338  1.8810 -1.2539
 9295TIP3    H252081   4.345   5.151  12.852  1.4723 -1.1364  0.9713
 9296TIP3   OH252082   1.684   7.368  11.267 -0.8711 -0.0668 -0.1983
 9296TIP3    H152083   1.619   7.438  11.278 -0.9865 -0.3848  1.2035
 9296TIP3    H252084   1.766   7.414  11.248 -1.3215  0.3624 -1.2040
 9297TIP3   OH252085   2.674   0.514  10.469  0.4569  0.1437  0.1427
 9297TIP3    H152086   2.677   0.489  10.561 -1.0634  0.2572  0.2436
 9297TIP3    H252087   2.590   0.559  10.459 -0.1116 -1.1948 -1.6322
 9298TIP3   OH252088   4.972   7.509  12.290 -0.1016 -0.0963 -0.0535
 9298TIP3    H152089   4.983   7.574  12.359 -2.8055 -2.0994  2.5235
 9298TIP3    H252090   5.048   7.452  12.299 -0.7603 -0.7594  1.9001
 9299TIP3   OH252091   2.611   6.707  12.429 -0.0985 -0.1971  0.4384
 9299TIP3    H152092   2.550   6.691  12.501  1.1588  0.2004  1.6331
 9299TIP3    H252093   2.685   6.751  12.470  0.2123  0.9993 -1.2783
 9300TIP3   OH252094   1.623   0.570  11.017 -0.3206  0.3922  0.4060
 9300TIP3    H152095   1.544   0.529  11.052 -1.2260  0.5825 -1.3040
 9300TIP3    H252096   1.690   0.501  11.023 -1.4119 -0.8563 -0.9612
 9301TIP3   OH252097   5.663   0.723  11.908 -0.0206  0.5504 -0.0676
 9301TIP3    H152098   5.757   0.721  11.926 -0.2555 -0.3407  1.2450
 9301TIP3    H252099   5.632   0.637  11.936 -0.8562 -0.1359 -2.8089
 9302TIP3   OH252100   2.576   2.567  12.298 -0.0520  0.1069 -0.7923
 9302TIP3    H152101   2.591   2.503  12.368  0.8102 -0.4209 -1.4483
 9302TIP3    H252102   2.591   2.519  12.217 -1.0534  0.7108 -1.3629
 9303TIP3   OH252103   1.237   5.430  10.541  0.1327 -0.0656 -0.4451
 9303TIP3    H152104   1.187   5.510  10.525  0.3579  0.1688 -0.0069
 9303TIP3    H252105   1.177   5.372  10.586 -0.2867 -0.4629 -1.4760
 9304TIP3   OH252106   3.560   2.181  11.918 -0.4067  0.1193  0.4977
 9304TIP3    H152107   3.476   2.222  11.898  0.2454  2.6339  2.4123
 9304TIP3    H252108   3.625   2.243  11.884  0.6944 -1.0135  0.4539
 9305TIP3   OH252109   2.592   7.315  10.840  0.2918  0.0272 -0.1308
 9305TIP3    H152110   2.569   7.397  10.884  0.8922  0.5822 -0.8262
 9305TIP3    H252111   2.509   7.270  10.827 -0.1690  1.0157 -0.6964
 9306TIP3   OH252112   3.557   6.877  12.216  0.2137 -0.7465  0.3834
 9306TIP3    H152113   3.552   6.856  12.123  0.1677 -1.2238  0.4896
 9306TIP3    H252114   3.643   6.917  12.228 -0.2203  0.3608 -0.0616
 9307TIP3   OH252115   3.057   3.075  11.241  0.1189 -0.6576  0.4743
 9307TIP3    H152116   3.143   3.084  11.282  0.2492  0.7845 -0.0576
 9307TIP3    H252117   2.998   3.053  11.312  0.7039 -0.3169  1.0719
 9308TIP3   OH252118   6.776   3.055  13.305 -0.0758  0.4721 -0.0305
 9308TIP3    H152119   6.754   3.146  13.324  1.1899  0.4614  1.7666
 9308TIP3    H252120   6.847   3.034  13.366 -1.6574 -2.3319  1.0231
 9309TIP3   OH252121   1.111   4.923  12.386  0.1358 -0.1275 -0.0762
 9309TIP3    H152122   1.120   4.859  12.315  0.0981  0.6287 -0.7878
 9309TIP3    H252123   1.150   4.881  12.462 -0.2591 -1.1575 -0.4219
 9310TIP3   OH252124   5.032   1.022  10.687 -0.0534 -0.2700 -0.1436
 9310TIP3    H152125   4.998   0.937  10.715  0.7662 -0.1012  1.4844
 9310TIP3    H252126   4.971   1.051  10.620 -2.6505 -0.3704  2.0151
 9311TIP3   OH252127   2.205   3.917  12.919 -0.2871 -0.5315 -0.6070
 9311TIP3    H152128   2.200   3.846  12.855 -0.8892  0.0824 -1.2660
 9311TIP3    H252129   2.116   3.925  12.953 -0.0229 -0.6883  0.1364
 9312TIP3   OH252130   4.815   6.576  10.609 -0.2296  0.1677  0.4012
 9312TIP3    H152131   4.739   6.626  10.578  0.1193 -0.2040 -1.1685
 9312TIP3    H252132   4.778   6.511  10.668 -1.1102  0.1832 -0.1097
 9313TIP3   OH252133   3.440   0.239  11.618 -0.2097  0.1863 -0.2002
 9313TIP3    H152134   3.421   0.303  11.687  1.3481 -0.2031  0.6256
 9313TIP3    H252135   3.524   0.267  11.582 -0.4291 -0.3118 -1.1460
 9314TIP3   OH252136   2.179   4.132  11.308  0.1120 -0.3971  0.1240
 9314TIP3    H152137   2.114   4.125  11.238  1.0858 -1.5698 -0.7225
 9314TIP3    H252138   2.129   4.157  11.385 -1.3062 -0.9874 -0.5591
 9315TIP3   OH252139   6.508   0.963  10.508  0.0502  0.1615 -0.1961
 9315TIP3    H152140   6.560   0.902  10.456  0.1659  0.9167 -0.9887
 9315TIP3    H252141   6.440   0.908  10.547  1.8460 -0.9998  1.5154
 9316TIP3   OH252142   4.149   6.965  11.159  0.2001  0.0930  0.1797
 9316TIP3    H152143   4.193   6.897  11.210  0.2241  0.7043  0.9912
 9316TIP3    H252144   4.211   7.037  11.156 -0.5017  0.7423  0.8324
 9317TIP3   OH252145   4.825   5.361  11.649  0.1293  0.1361  0.2325
 9317TIP3    H152146   4.895   5.295  11.645  1.6268  1.6318  0.3944
 9317TIP3    H252147   4.869   5.440  11.679 -1.0580  1.8817 -2.2191
 9318TIP3   OH252148   6.079   5.486  11.393  0.0484 -0.2774  0.1168
 9318TIP3    H152149   6.038   5.570  11.373 -0.3817 -0.1659  1.3536
 9318TIP3    H252150   6.035   5.456  11.473  2.2969 -0.1911  1.4802
 9319TIP3   OH252151   5.107   1.830  11.135 -0.0527  0.2626 -0.0548
 9319TIP3    H152152   5.043   1.794  11.074 -0.2964  1.0506 -0.2675
 9319TIP3    H252153   5.087   1.923  11.139  0.9820  0.4929  0.0030
 9320TIP3   OH252154   7.252   7.009  13.015 -0.2929 -0.9103 -0.4862
 9320TIP3    H152155   7.262   7.097  13.052  0.0446 -0.9979 -0.3653
 9320TIP3    H252156   7.162   6.983  13.038 -0.3829 -0.6077 -0.5010
 9321TIP3   OH252157   5.759   2.392  13.458 -0.1763 -0.2228 -0.2671
 9321TIP3    H152158   5.691   2.387  13.525 -0.3574 -0.7729 -0.4845
 9321TIP3    H252159   5.837   2.422  13.504 -1.0976  2.6878 -0.3938
 9322TIP3   OH252160   5.511   2.704  12.490  0.0094  1.0714 -0.0117
 9322TIP3    H152161   5.421   2.730  12.507 -0.6869 -0.0525 -1.7208
 9322TIP3    H252162   5.525   2.627  12.545 -0.2635  0.9133 -0.1633
 9323TIP3   OH252163   0.908   4.247  12.117  0.0740 -0.4320 -0.3924
 9323TIP3    H152164   0.988   4.250  12.063 -0.9808  1.3114 -1.9699
 9323TIP3    H252165   0.890   4.153  12.126  1.7887 -0.8449 -0.7522
 9324TIP3   OH252166   6.976   2.298  12.514  0.4382 -0.1724 -0.3760
 9324TIP3    H152167   6.892   2.294  12.558  0.9605  0.2989  0.7022
 9324TIP3    H252168   6.984   2.214  12.469 -1.3897  0.4601 -2.0243
 9325TIP3   OH252169   7.291   2.969  10.329 -0.0191 -0.0873 -0.6733
 9325TIP3    H152170   7.377   2.992  10.293  0.3638 -0.2618  0.0936
 9325TIP3    H252171   7.304   2.884  10.371 -0.4881  0.0152 -0.2989
 9326TIP3   OH252172   0.314   5.187  12.583  0.3097 -0.1200  0.6102
 9326TIP3    H152173   0.379   5.237  12.534  0.8419 -0.7302  0.6837
 9326TIP3    H252174   0.231   5.211  12.543  0.6739 -0.0726 -0.1323
 9327TIP3   OH252175   4.033   5.060  12.129 -0.1509  0.5257  0.1725
 9327TIP3    H152176   3.978   4.989  12.096 -1.5423  0.2722  2.7444
 9327TIP3    H252177   4.123   5.030  12.114 -0.6971 -0.3018 -1.6415
 9328TIP3   OH252178   0.167   2.462  11.807  0.0335 -0.4116  0.3884
 9328TIP3    H152179   0.149   2.462  11.901  0.1592 -0.5031  0.4131
 9328TIP3    H252180   0.081   2.467  11.766 -0.0759 -1.1244  0.5077
 9329TIP3   OH252181   7.575   7.523  10.657 -0.3322  0.1580 -0.2248
 9329TIP3    H152182   7.645   7.502  10.595 -0.0110  1.3798 -0.3139
 9329TIP3    H252183   7.578   7.619  10.664 -2.3558  0.2994 -0.6672
 9330TIP3   OH252184   3.422   1.096  12.029  0.2486  0.2749  0.1033
 9330TIP3    H152185   3.508   1.118  12.064 -0.0763  0.3734  0.8557
 9330TIP3    H252186   3.365   1.094  12.105 -0.0401 -1.7653 -0.1270
 9331TIP3   OH252187   1.026   2.722  12.641  0.5949 -0.2508 -0.9123
 9331TIP3    H152188   1.013   2.705  12.734 -1.3274  0.2598 -1.0489
 9331TIP3    H252189   1.117   2.753  12.635  0.6009  0.1797  0.8608
 9332TIP3   OH252190   3.139   4.464  12.226 -0.1725  0.1059 -0.5776
 9332TIP3    H152191   3.164   4.463  12.134 -0.5311 -0.1031 -0.6728
 9332TIP3    H252192   3.202   4.524  12.267 -0.0302  0.2223 -0.9605
 9333TIP3   OH252193   7.315   0.702  11.083  0.6109 -0.7529  0.0691
 9333TIP3    H152194   7.298   0.626  11.140 -0.3991 -1.3688 -0.9978
 9333TIP3    H252195   7.274   0.775  11.129 -0.6993 -1.3447 -0.0954
 9334TIP3   OH252196   6.220   6.433  11.212 -0.6561  0.0215  0.5886
 9334TIP3    H152197   6.293   6.372  11.220 -0.3914 -0.2479 -2.6291
 9334TIP3    H252198   6.147   6.391  11.259 -0.4481 -2.7559 -1.3766
 9335TIP3   OH252199   6.071   6.344  12.820  0.5329  0.0886 -0.3471
 9335TIP3    H152200   6.012   6.369  12.891  2.5515 -1.0697  1.9297
 9335TIP3    H252201   6.014   6.316  12.749 -1.6390 -0.1707  1.3890
 9336TIP3   OH252202   5.353   3.118  10.624  0.5601 -0.2017  0.3345
 9336TIP3    H152203   5.325   3.051  10.686 -1.3386  1.1212  0.9663
 9336TIP3    H252204   5.320   3.087  10.539  0.0491 -0.2749  0.5580
 9337TIP3   OH252205   6.778   3.382  13.230  0.0319  0.6452 -0.6945
 9337TIP3    H152206   6.742   3.429  13.156  1.0564  1.3352 -0.7747
 9337TIP3    H252207   6.773   3.443  13.303  0.0802  0.3831 -0.4679
 9338TIP3   OH252208   1.573   5.101  10.993 -0.4525 -0.1051  0.2760
 9338TIP3    H152209   1.626   5.022  11.007 -1.1726 -0.8433 -1.0160
 9338TIP3    H252210   1.501   5.093  11.056 -0.5436 -0.4987  0.1229
 9339TIP3   OH252211   1.224   6.145  10.433 -0.4954  0.8440  0.0351
 9339TIP3    H152212   1.224   6.144  10.529  0.7140  0.3847  0.0474
 9339TIP3    H252213   1.299   6.200  10.410 -0.3228  0.3378 -0.6436
 9340TIP3   OH252214   3.852   5.535  12.612 -0.1716 -0.1612  0.3284
 9340TIP3    H152215   3.923   5.513  12.553 -0.6017  0.7398 -0.5498
 9340TIP3    H252216   3.894   5.544  12.698  0.7562  0.2651 -0.1597
 9341TIP3   OH252217   1.703   2.539  12.218  0.1168  0.2038  0.2680
 9341TIP3    H152218   1.778   2.553  12.160  0.8252  1.0471  1.3519
 9341TIP3    H252219   1.738   2.483  12.288 -1.2961 -2.7605 -1.2033
 9342TIP3   OH252220   0.459   4.278  11.334 -0.2254  0.5180 -0.9610
 9342TIP3    H152221   0.399   4.300  11.405  2.3094  0.3437  1.4269
 9342TIP3    H252222   0.487   4.189  11.354  2.3277  1.2991 -0.6975
 9343TIP3   OH252223   3.229   4.908  11.042  0.6634 -0.6260  0.5742
 9343TIP3    H152224   3.293   4.906  10.971 -0.0367 -1.3292 -0.0485
 9343TIP3    H252225   3.242   4.993  11.084  1.2754 -0.3225 -0.2147
 9344TIP3   OH252226   5.307   6.540  11.929 -0.1135  0.5951 -0.0450
 9344TIP3    H152227   5.251   6.615  11.912 -1.1806  0.3841  2.1922
 9344TIP3    H252228   5.298   6.524  12.023  2.8753 -0.1213  0.2395
 9345TIP3   OH252229   1.127   3.764  12.482  0.1026  0.4551  0.0337
 9345TIP3    H152230   1.048   3.712  12.495  0.2261  0.4801  0.9923
 9345TIP3    H252231   1.126   3.787  12.390 -1.4014  1.0880  0.1868
 9346TIP3   OH252232   0.873   5.140  11.484  0.0497 -0.4291 -0.2187
 9346TIP3    H152233   0.915   5.116  11.566  0.7808  0.0176 -0.4414
 9346TIP3    H252234   0.901   5.231  11.469 -0.0050 -0.5306 -0.9896
 9347TIP3   OH252235   7.222   1.655  11.313  0.8137  0.0294 -0.2584
 9347TIP3    H152236   7.194   1.569  11.345 -0.2912 -0.6782 -2.8590
 9347TIP3    H252237   7.221   1.711  11.390  0.6040 -2.0447  1.3389
 9348TIP3   OH252238   6.560   4.089  10.794 -0.1990 -0.1769  0.3744
 9348TIP3    H152239   6.532   4.000  10.772 -0.4603 -0.0541  0.1999
 9348TIP3    H252240   6.489   4.124  10.847 -0.1407 -0.0394  0.3614
 9349TIP3   OH252241   0.382   6.823  12.911  0.0076 -0.3396 -0.4711
 9349TIP3    H152242   0.447   6.825  12.981  0.9815  0.6427 -1.3410
 9349TIP3    H252243   0.298   6.829  12.955  0.5869 -0.0756  0.6235
 9350TIP3   OH252244   1.037   2.645  11.365  0.1558 -0.1149  0.0662
 9350TIP3    H152245   1.012   2.619  11.276 -0.9496  0.5611  0.1571
 9350TIP3    H252246   1.131   2.632  11.369  0.6585  2.1532 -2.0135
 9351TIP3   OH252247   0.641   2.941  11.099 -0.0679  0.1317 -0.0432
 9351TIP3    H152248   0.641   2.846  11.104  0.6916 -0.1797 -3.4185
 9351TIP3    H252249   0.711   2.969  11.157  1.1079 -1.5541 -0.5922
 9352TIP3   OH252250   0.923   1.515  11.741  0.9351  0.0375  0.0658
 9352TIP3    H152251   1.008   1.496  11.703  1.2269 -1.3158  1.3225
 9352TIP3    H252252   0.860   1.486  11.676  1.4294 -0.5219 -0.1635
 9353TIP3   OH252253   1.136   5.100  13.197  0.0057  0.2696 -0.1991
 9353TIP3    H152254   1.175   5.017  13.167  0.2243 -0.1529  1.1967
 9353TIP3    H252255   1.140   5.157  13.120 -0.0203 -0.9624 -1.1574
 9354TIP3   OH252256   0.085   4.200  10.376  0.1619 -0.7485  0.5021
 9354TIP3    H152257   0.025   4.150  10.431 -1.7876  0.4539 -0.4588
 9354TIP3    H252258   0.055   4.291  10.382 -0.2309 -0.5598 -2.5670
 9355TIP3   OH252259   4.509   3.869  11.539 -0.0323 -0.3211  0.2061
 9355TIP3    H152260   4.423   3.891  11.504  0.0634 -1.4119 -0.7547
 9355TIP3    H252261   4.569   3.927  11.493 -0.2091  0.2823  0.7141
 9356TIP3   OH252262   7.019   7.540  11.300 -0.0003  0.1373 -0.4828
 9356TIP3    H152263   6.979   7.473  11.355  0.2699  1.1553  1.0210
 9356TIP3    H252264   7.087   7.494  11.251 -1.7486 -1.2604 -1.7682
 9357TIP3   OH252265   7.506   1.492  12.290  0.9437 -0.3441  0.2859
 9357TIP3    H152266   7.531   1.471  12.380  0.3808  0.8532  0.7396
 9357TIP3    H252267   7.542   1.580  12.274 -1.3566  0.6865  0.3596
 9358TIP3   OH252268   7.189   4.519  12.665 -0.1191  0.2734 -0.0906
 9358TIP3    H152269   7.279   4.487  12.660 -0.5965 -1.1268 -0.1808
 9358TIP3    H252270   7.183   4.561  12.750  0.7561  0.8489 -0.2990
 9359TIP3   OH252271   6.125   1.869  11.334  0.0698 -0.3309 -0.5335
 9359TIP3    H152272   6.102   1.810  11.262 -0.4097  0.0902 -0.7378
 9359TIP3    H252273   6.166   1.813  11.400  0.9983 -0.6362 -1.3498
 9360TIP3   OH252274   2.385   2.007  10.940 -0.1403  0.3756  0.5902
 9360TIP3    H152275   2.375   2.089  10.891  0.0163  0.1919  0.2449
 9360TIP3    H252276   2.300   1.965  10.935 -0.3721  0.7572  1.2114
 9361TIP3   OH252277   0.952   0.706  11.186 -0.1072 -0.8648 -0.4868
 9361TIP3    H152278   1.016   0.659  11.134  0.1698  1.3019 -2.2329
 9361TIP3    H252279   0.895   0.749  11.122 -2.6968 -1.8350  1.0073
 9362TIP3   OH252280   7.487   4.767  11.844 -0.1762 -0.2026  0.1308
 9362TIP3    H152281   7.453   4.764  11.933  1.0838  0.8363  0.6706
 9362TIP3    H252282   7.412   4.742  11.789 -1.2861  0.2384  1.3944
 9363TIP3   OH252283   7.195   5.482  11.610  0.0522  0.7318  0.0475
 9363TIP3    H152284   7.195   5.435  11.694  0.9834 -1.0582 -0.8864
 9363TIP3    H252285   7.106   5.471  11.577 -0.4258  1.7465  0.9082
 9364TIP3   OH252286   0.809   5.312  10.779  0.0788  0.3774 -0.4910
 9364TIP3    H152287   0.824   5.279  10.867 -0.9095  0.2189 -0.3689
 9364TIP3    H252288   0.717   5.339  10.779  0.0236  0.2316 -1.5130
 9365TIP3   OH252289   1.922   5.283  12.983 -0.6501  0.0342  0.4993
 9365TIP3    H152290   1.916   5.377  12.998 -0.1036 -0.1099  1.6719
 9365TIP3    H252291   1.954   5.275  12.893 -2.0968  0.9397 -0.1383
 9366TIP3   OH252292   0.481   1.748  11.346  0.2117  0.1696  0.6775
 9366TIP3    H152293   0.451   1.825  11.394 -0.3276  0.2173  0.2862
 9366TIP3    H252294   0.400   1.704  11.320  0.5078 -0.2057  0.3850
 9367TIP3   OH252295   4.480   0.483  11.891 -0.2070 -0.1515  0.5545
 9367TIP3    H152296   4.505   0.391  11.881  3.2176  0.6410  0.7309
 9367TIP3    H252297   4.538   0.516  11.960 -2.0579  1.9484  1.2167
 9368TIP3   OH252298   3.249   6.472  11.698  0.3090 -0.2326  0.5374
 9368TIP3    H152299   3.166   6.427  11.682  0.3932 -0.0914 -0.3523
 9368TIP3    H252300   3.224   6.560  11.726  0.1379  0.4014 -1.4902
 9369TIP3   OH252301   2.127   3.107  11.573 -0.3201  0.4367 -0.3279
 9369TIP3    H152302   2.143   3.043  11.504 -0.8549  0.8013 -0.8024
 9369TIP3    H252303   2.190   3.086  11.642 -2.2748 -2.3768  0.7873
 9370TIP3   OH252304   7.196   0.969  11.123  0.1668 -0.0673 -0.3320
 9370TIP3    H152305   7.262   0.989  11.190  0.4341  1.2954 -0.9561
 9370TIP3    H252306   7.165   1.055  11.095 -2.8314 -0.6502  0.8357
 9371TIP3   OH252307   1.735   6.195  12.008 -0.0667 -0.2373 -0.1361
 9371TIP3    H152308   1.774   6.271  12.050  1.9143 -1.2887  0.0311
 9371TIP3    H252309   1.641   6.214  12.007  0.3181  1.9895  0.2918
 9372TIP3   OH252310   0.936   1.782  11.823 -0.1368  0.3131 -0.1927
 9372TIP3    H152311   0.924   1.688  11.814  1.6783  0.0190  0.0864
 9372TIP3    H252312   0.883   1.806  11.899  1.9502 -1.1307  1.8745
 9373TIP3   OH252313   3.064   0.940  11.654  0.4817 -0.0993 -0.7119
 9373TIP3    H152314   3.053   0.845  11.653 -1.3570  0.0798 -0.4244
 9373TIP3    H252315   3.151   0.954  11.616  0.3947 -1.8382 -1.6730
 9374TIP3   OH252316   2.050   3.484  11.096  0.5601 -0.9195 -0.1216
 9374TIP3    H152317   2.028   3.547  11.028  1.5511 -0.6741 -0.2336
 9374TIP3    H252318   2.079   3.406  11.047  2.7738 -0.2190 -0.0454
 9375TIP3   OH252319   6.660   6.212  11.823 -0.0909 -0.7133  0.1309
 9375TIP3    H152320   6.670   6.126  11.782  0.1352 -0.8786  0.5295
 9375TIP3    H252321   6.695   6.201  11.911  0.0023 -0.1946  0.1650
 9376TIP3   OH252322   2.074   6.450  11.794 -0.3552 -0.0901 -0.3819
 9376TIP3    H152323   1.990   6.461  11.839  0.8700  5.5785  1.3118
 9376TIP3    H252324   2.057   6.475  11.703 -0.6000  0.5100 -0.1719
 9377TIP3   OH252325   1.636   6.616  10.494  0.2841 -0.3613 -1.0152
 9377TIP3    H152326   1.674   6.558  10.428 -0.1257 -0.7759 -0.8925
 9377TIP3    H252327   1.685   6.698  10.485  0.9351 -0.7521 -1.1292
 9378TIP3   OH252328   5.472   0.759  13.241  0.7193 -0.4496  0.4930
 9378TIP3    H152329   5.472   0.707  13.160  1.0482 -2.3251  1.6240
 9378TIP3    H252330   5.542   0.721  13.293 -1.0301 -0.9557  2.6451
 9379TIP3   OH252331   5.187   4.476  11.926  0.1000  0.2827 -0.7256
 9379TIP3    H152332   5.247   4.547  11.950 -0.1948  0.4201 -0.3954
 9379TIP3    H252333   5.100   4.513  11.937 -0.1191 -0.7487  1.5325
 9380TIP3   OH252334   2.150   1.135  12.115 -0.0136  0.7022  0.5321
 9380TIP3    H152335   2.184   1.069  12.176  3.0616  1.1840 -0.4562
 9380TIP3    H252336   2.219   1.143  12.049 -2.7788  0.8108 -2.6167
 9381TIP3   OH252337   4.661   0.015  12.882 -0.4077 -0.3019 -0.0758
 9381TIP3    H152338   4.587   0.060  12.922  1.7957  1.0187  2.9543
 9381TIP3    H252339   4.732   0.080  12.886  1.5041 -2.2519 -0.6931
 9382TIP3   OH252340   6.588   7.330  11.725 -0.0010 -0.6087  0.1295
 9382TIP3    H152341   6.577   7.425  11.726 -0.3651 -0.6074 -1.1523
 9382TIP3    H252342   6.664   7.313  11.781 -0.4943  0.3447  1.1141
 9383TIP3   OH252343   1.538   4.015  10.615 -0.0327 -0.4806 -0.7099
 9383TIP3    H152344   1.570   3.960  10.543  1.2029  0.8743 -1.2644
 9383TIP3    H252345   1.618   4.046  10.658 -0.6010  1.6473 -1.0561
 9384TIP3   OH252346   0.764   7.146  10.887  0.6609  0.1625 -0.1769
 9384TIP3    H152347   0.791   7.233  10.916 -0.5127  0.3175  0.5019
 9384TIP3    H252348   0.830   7.087  10.923 -0.2478  0.4515  2.1238
 9385TIP3   OH252349   1.666   4.461  12.727  0.1612 -0.3076  0.2052
 9385TIP3    H152350   1.729   4.395  12.756  0.2521 -0.0622  0.5749
 9385TIP3    H252351   1.617   4.418  12.657  0.3231 -0.7116  0.3362
 9386TIP3   OH252352   6.870   6.475  10.993 -0.3254  0.1542  0.3020
 9386TIP3    H152353   6.892   6.383  11.008  1.2316 -0.1193 -2.8637
 9386TIP3    H252354   6.954   6.521  10.997 -0.9284  1.2743  0.6911
 9387TIP3   OH252355   3.171   1.298  10.863  0.0818 -0.1574  0.2069
 9387TIP3    H152356   3.084   1.313  10.900 -1.3717  0.3494 -3.1020
 9387TIP3    H252357   3.230   1.348  10.920 -2.4303  3.6862 -0.1989
 9388TIP3   OH252358   4.593   5.852  11.696 -0.4938 -0.4879  0.1167
 9388TIP3    H152359   4.625   5.895  11.775  0.5657 -1.0498  0.0148
 9388TIP3    H252360   4.660   5.787  11.676 -0.6807 -0.2688 -1.3216
 9389TIP3   OH252361   0.675   1.206  12.562  0.2577 -0.2543 -0.2791
 9389TIP3    H152362   0.676   1.185  12.469  0.6726 -1.5104 -0.0094
 9389TIP3    H252363   0.758   1.172  12.595  0.1193  0.1867  0.5483
 9390TIP3   OH252364   0.040   6.428  11.987 -0.1408  0.4374 -0.1068
 9390TIP3    H152365   0.093   6.348  11.992  0.2756  0.7792  1.4600
 9390TIP3    H252366   0.080   6.479  11.916  3.3986  1.8420  2.5852
 9391TIP3   OH252367   2.962   6.722  12.286 -0.4636  0.2812 -0.4041
 9391TIP3    H152368   2.878   6.725  12.330 -1.3373 -0.8607 -1.8988
 9391TIP3    H252369   2.998   6.636  12.307 -0.8813 -0.2737 -1.8116
 9392TIP3   OH252370   5.316   1.325  11.575 -0.1433  0.1284 -0.2553
 9392TIP3    H152371   5.367   1.263  11.627 -1.3065 -1.4170 -0.8522
 9392TIP3    H252372   5.315   1.405  11.626 -0.5481 -1.0692  1.7098
 9393TIP3   OH252373   2.907   3.170  12.159 -0.1401 -0.6537 -0.0630
 9393TIP3    H152374   2.883   3.239  12.098  1.3169 -0.5678 -0.5625
 9393TIP3    H252375   2.838   3.172  12.226  0.2712  1.7726  0.3444
 9394TIP3   OH252376   1.208   3.930  11.946 -0.4540 -0.4764 -0.1176
 9394TIP3    H152377   1.273   3.870  11.909  0.1016 -0.9005  1.4671
 9394TIP3    H252378   1.139   3.935  11.880  0.6783 -0.8570 -1.3799
 9395TIP3   OH252379   3.392   6.611  12.111  0.1337 -0.5897  0.0649
 9395TIP3    H152380   3.436   6.652  12.036 -0.6839 -2.3209 -1.4453
 9395TIP3    H252381   3.385   6.681  12.176  2.1992  0.5830 -0.8763
 9396TIP3   OH252382   2.593   0.878  12.583  0.1756  0.5284  0.5093
 9396TIP3    H152383   2.575   0.786  12.601 -0.6741  0.9004  1.6373
 9396TIP3    H252384   2.687   0.881  12.565  0.0565 -0.6818 -0.4726
 9397TIP3   OH252385   7.562   5.029  10.613  0.1314  0.3140 -0.5198
 9397TIP3    H152386   7.496   4.970  10.650  0.8649 -0.1989 -0.0245
 9397TIP3    H252387   7.516   5.113  10.606 -0.0269  0.4574  1.6346
 9398TIP3   OH252388   4.192   1.290  10.536 -0.1362 -0.0155  0.4000
 9398TIP3    H152389   4.225   1.348  10.466 -0.4952 -0.5016 -0.1771
 9398TIP3    H252390   4.223   1.331  10.617  3.1478 -1.1335 -0.1118
 9399TIP3   OH252391   1.446   6.934  11.255  0.0663 -0.5377 -0.1041
 9399TIP3    H152392   1.357   6.910  11.281  0.3180 -1.9440 -0.4659
 9399TIP3    H252393   1.500   6.917  11.332  0.0659  0.1234  0.0509
 9400TIP3   OH252394   6.499   6.851  11.474 -0.2935  0.0485 -0.3537
 9400TIP3    H152395   6.554   6.784  11.514  0.2113  1.4478  1.3892
 9400TIP3    H252396   6.543   6.934  11.492 -1.3816  0.9613 -1.6285
 9401TIP3   OH252397   0.863   3.645  12.819 -0.2819  0.3324 -0.1049
 9401TIP3    H152398   0.861   3.716  12.755  1.3624  2.2510  1.8125
 9401TIP3    H252399   0.953   3.642  12.849 -0.5820 -1.8108  0.7495
 9402TIP3   OH252400   5.886   6.809  10.545  0.1493 -0.1537  0.1770
 9402TIP3    H152401   5.925   6.846  10.465 -0.7113  0.0659 -0.1509
 9402TIP3    H252402   5.959   6.768  10.590  1.3782  2.7528  1.0640
 9403TIP3   OH252403   0.863   5.697  12.559  0.0364  0.3446 -0.1242
 9403TIP3    H152404   0.872   5.720  12.467  3.2978 -1.8431 -0.5584
 9403TIP3    H252405   0.950   5.711  12.596 -0.7594 -0.3446  2.2231
 9404TIP3   OH252406   0.601   5.970  12.418 -0.4712 -0.1922  0.1733
 9404TIP3    H152407   0.536   6.026  12.376 -1.4313  0.1912  2.0617
 9404TIP3    H252408   0.589   5.985  12.512  0.2157 -2.4726  0.6902
 9405TIP3   OH252409   7.068   2.358  10.856  0.3066  0.1827 -0.0683
 9405TIP3    H152410   7.127   2.429  10.881  0.0845  0.1661  0.5447
 9405TIP3    H252411   6.983   2.383  10.894  0.0951 -0.1383 -0.3179
 9406TIP3   OH252412   3.462   0.798  12.750  0.2485 -0.6169 -0.1249
 9406TIP3    H152413   3.470   0.845  12.833  1.7017  0.6302 -0.9173
 9406TIP3    H252414   3.393   0.733  12.765  0.4261 -0.3630  2.0128
 9407TIP3   OH252415   3.433   5.851  12.011 -0.7066 -0.0746  0.2410
 9407TIP3    H152416   3.430   5.918  12.079  1.9483  3.1740 -2.4813
 9407TIP3    H252417   3.501   5.791  12.040 -1.8096 -0.6026  1.8521
 9408TIP3   OH252418   5.824   2.469  10.945 -0.0210 -0.2097  0.7594
 9408TIP3    H152419   5.915   2.485  10.971  0.3063 -1.5965  0.5357
 9408TIP3    H252420   5.775   2.471  11.028  0.3392 -0.2546  0.9771
 9409TIP3   OH252421   3.860   0.616  11.387  0.6074 -0.3096 -0.0869
 9409TIP3    H152422   3.851   0.687  11.324  0.4366  0.5938  0.9151
 9409TIP3    H252423   3.789   0.556  11.366 -0.7962  1.0592  0.5815
 9410TIP3   OH252424   6.844   6.455  11.424  0.0629 -0.3898  0.7181
 9410TIP3    H152425   6.800   6.442  11.508 -1.0116  0.3209  0.2960
 9410TIP3    H252426   6.935   6.476  11.447 -0.3701  0.4437  1.7394
 9411TIP3   OH252427   0.744   4.256  13.546  0.1001 -0.1529  0.6051
 9411TIP3    H152428   0.778   4.169  13.568 -3.1242 -1.8833 -0.6881
 9411TIP3    H252429   0.677   4.240  13.480 -1.1492  3.2799  0.8433
 9412TIP3   OH252430   7.200   2.247  13.300  0.2225 -0.2477 -0.6006
 9412TIP3    H152431   7.193   2.276  13.391 -1.3365 -0.3367 -0.6774
 9412TIP3    H252432   7.125   2.190  13.286  0.1979  0.0942 -2.0716
 9413TIP3   OH252433   1.024   4.379  12.314 -0.2487  0.2805  0.3676
 9413TIP3    H152434   1.002   4.301  12.365 -0.6545  0.6578  0.7715
 9413TIP3    H252435   0.994   4.359  12.225  2.3524 -1.2466 -0.2787
 9414TIP3   OH252436   0.384   2.201  10.779  0.1240  0.1296 -0.3681
 9414TIP3    H152437   0.291   2.185  10.760  0.2139 -0.1624 -0.5557
 9414TIP3    H252438   0.426   2.117  10.765  0.4409  0.2941 -0.4047
 9415TIP3   OH252439   1.992   4.765  10.910 -0.0454  0.0836  0.0893
 9415TIP3    H152440   2.065   4.740  10.968 -1.1400 -1.7793  0.7484
 9415TIP3    H252441   1.963   4.682  10.872 -0.5565  1.0518 -1.7345
 9416TIP3   OH252442   6.987   1.805  11.148 -0.2284  0.5053  0.3662
 9416TIP3    H152443   7.072   1.790  11.187 -0.5344 -0.9357  0.5163
 9416TIP3    H252444   6.930   1.738  11.187 -1.2162  0.8879 -0.3762
 9417TIP3   OH252445   0.872   1.599  13.287 -0.0870  0.2337  0.2015
 9417TIP3    H152446   0.861   1.640  13.201  0.8195 -0.0061 -0.0358
 9417TIP3    H252447   0.926   1.660  13.336 -0.4449  0.2789  0.5427
 9418TIP3   OH252448   7.355   2.745  10.476 -0.0647 -0.3293 -0.3414
 9418TIP3    H152449   7.450   2.733  10.475  0.1588  1.1951 -1.1088
 9418TIP3    H252450   7.325   2.696  10.552  1.3866 -0.5179  0.1449
 9419TIP3   OH252451   5.710   5.828  11.350  0.2581  0.1145 -0.6328
 9419TIP3    H152452   5.790   5.776  11.362  0.6731  0.1713 -2.6746
 9419TIP3    H252453   5.640   5.763  11.349  0.4873 -0.1377 -0.6598
 9420TIP3   OH252454   4.833   1.877  12.567 -0.4180  0.2219  0.6184
 9420TIP3    H152455   4.813   1.906  12.478  3.3340  0.7491 -0.2317
 9420TIP3    H252456   4.815   1.783  12.566  0.9083 -0.0622 -1.2125
 9421TIP3   OH252457   5.972   0.112  11.657  0.0552 -0.3313  0.1475
 9421TIP3    H152458   5.919   0.073  11.726 -0.2110 -0.9932 -0.4099
 9421TIP3    H252459   5.975   0.044  11.589  0.4199  0.2521 -0.4246
 9422TIP3   OH252460   1.829   6.390  10.318 -0.2201 -1.0253 -0.4087
 9422TIP3    H152461   1.827   6.310  10.265  0.3700 -1.8878  0.8247
 9422TIP3    H252462   1.868   6.363  10.401  1.3157  0.8296 -0.4490
 9423TIP3   OH252463   5.047   0.096  12.084  0.4237  0.3265 -0.0703
 9423TIP3    H152464   5.023   0.049  12.004 -0.4408 -0.8355  0.8320
 9423TIP3    H252465   5.117   0.043  12.123 -0.3634 -0.1076  0.8103
 9424TIP3   OH252466   5.772   0.699  13.194 -0.2240 -0.0805  0.2883
 9424TIP3    H152467   5.776   0.728  13.103  0.6441 -0.3238  0.2323
 9424TIP3    H252468   5.771   0.780  13.245 -2.2846  0.0937  0.0519
 9425TIP3   OH252469   5.840   2.897  11.132 -0.5361  0.2478  0.5594
 9425TIP3    H152470   5.843   2.804  11.108  0.0924 -0.3292  2.6896
 9425TIP3    H252471   5.772   2.933  11.076  0.6166 -1.0100 -1.8250
 9426TIP3   OH252472   5.871   7.360  11.355  0.5102  0.4081  0.5471
 9426TIP3    H152473   5.932   7.286  11.364 -0.1677 -0.3540 -0.7872
 9426TIP3    H252474   5.893   7.399  11.271 -1.3305 -0.4064 -0.3924
 9427TIP3   OH252475   7.629   1.761  13.042  0.2285 -0.2319 -0.6219
 9427TIP3    H152476   7.620   1.823  13.115 -0.6083  1.6919 -2.2443
 9427TIP3    H252477   7.540   1.727  13.029  0.3761 -0.5770 -0.7378
 9428TIP3   OH252478   1.986   2.990  12.807  0.6748  0.4855 -0.0508
 9428TIP3    H152479   2.030   3.074  12.795 -0.2979  1.1796  0.9798
 9428TIP3    H252480   2.035   2.947  12.877 -0.2086  1.2575  1.0960
 9429TIP3   OH252481   6.838   3.481  10.634 -0.3563  0.0420  0.6322
 9429TIP3    H152482   6.927   3.474  10.668 -0.0677  2.6523  0.5813
 9429TIP3    H252483   6.837   3.563  10.584 -2.6104 -0.2614  0.0462
 9430TIP3   OH252484   3.283   3.507  12.320 -0.5504  0.3603 -0.2952
 9430TIP3    H152485   3.344   3.488  12.248 -1.2016  0.3462 -0.8483
 9430TIP3    H252486   3.340   3.534  12.392  0.0763  1.1489 -1.0555
 9431TIP3   OH252487   2.505   6.250  11.357  0.0342 -0.2303 -0.1170
 9431TIP3    H152488   2.581   6.193  11.356 -0.2391 -0.6055  0.2317
 9431TIP3    H252489   2.541   6.339  11.355  0.4719 -0.4086 -0.1552
 9432TIP3   OH252490   3.874   4.111  12.482 -0.5606 -0.3541 -0.3494
 9432TIP3    H152491   3.950   4.055  12.497 -1.7011 -1.6615  0.7614
 9432TIP3    H252492   3.886   4.184  12.542 -0.0528 -0.4129 -0.3770
 9433TIP3   OH252493   5.193   6.142  11.941 -0.9905 -0.2265 -0.4190
 9433TIP3    H152494   5.285   6.144  11.916 -1.4982 -0.3260 -2.5039
 9433TIP3    H252495   5.185   6.065  11.998 -0.0072 -0.9934 -1.2708
 9434TIP3   OH252496   1.609   6.779  13.387 -0.1021  0.3381 -0.0605
 9434TIP3    H152497   1.569   6.864  13.368  1.2812  0.8362 -0.9172
 9434TIP3    H252498   1.549   6.715  13.350 -1.6646  0.8532  1.4575
 9435TIP3   OH252499   0.596   6.563  13.248  0.0480 -0.1902 -0.1708
 9435TIP3    H152500   0.672   6.510  13.226  0.4004 -0.0753  0.7508
 9435TIP3    H252501   0.527   6.532  13.189 -0.3099 -2.9440  1.5140
 9436TIP3   OH252502   2.875   7.413  10.858 -0.7399  0.4913  0.4126
 9436TIP3    H152503   2.817   7.440  10.929  0.2251  0.8658  1.0941
 9436TIP3    H252504   2.869   7.318  10.857 -0.8910  0.4892  0.9096
 9437TIP3   OH252505   4.570   4.972  11.737  0.2628  0.1984 -0.0664
 9437TIP3    H152506   4.607   5.044  11.686 -0.8448  1.2444  0.5558
 9437TIP3    H252507   4.638   4.905  11.736  1.4889  1.3964 -0.3352
 9438TIP3   OH252508   6.892   6.753  13.569 -0.0260 -0.6332  0.0586
 9438TIP3    H152509   6.898   6.813  13.644  0.1773 -1.4711  0.7346
 9438TIP3    H252510   6.925   6.804  13.495 -0.2857  0.2381  0.5212
 9439TIP3   OH252511   5.584   4.705  12.031 -0.6946  0.0438  0.8467
 9439TIP3    H152512   5.606   4.629  11.977  0.9206  0.9623  0.1208
 9439TIP3    H252513   5.633   4.691  12.112 -0.9324 -0.0092  0.9815
 9440TIP3   OH252514   4.347   1.274  11.469 -0.8049 -0.3301 -0.1635
 9440TIP3    H152515   4.417   1.324  11.512  0.4373 -1.5336 -0.7291
 9440TIP3    H252516   4.283   1.258  11.539 -0.0943  0.0098  0.5875
 9441TIP3   OH252517   6.587   2.591  10.576  0.4673  0.9236 -0.7435
 9441TIP3    H152518   6.593   2.503  10.539 -0.1181  0.7137 -0.3574
 9441TIP3    H252519   6.519   2.634  10.524 -0.0372  0.7742 -0.2211
 9442TIP3   OH252520   0.373   3.424  11.703  0.1930 -0.6075  0.1280
 9442TIP3    H152521   0.381   3.512  11.666  0.9077  0.0035  1.6561
 9442TIP3    H252522   0.300   3.384  11.655  0.1657  0.6355 -0.9130
 9443TIP3   OH252523   4.278   5.712  10.729 -0.1859  0.4433  0.7261
 9443TIP3    H152524   4.248   5.784  10.673  0.8415  0.4123  0.0968
 9443TIP3    H252525   4.373   5.707  10.713 -0.3266 -1.5353  0.1604
 9444TIP3   OH252526   6.096   2.373  12.130  0.3718  0.4544  0.2255
 9444TIP3    H152527   6.051   2.296  12.095  0.7055 -0.6025  2.0241
 9444TIP3    H252528   6.082   2.441  12.064 -0.0805 -1.0868 -1.3276
 9445TIP3   OH252529   6.577   6.769  10.639  0.0598 -0.3116 -0.6222
 9445TIP3    H152530   6.628   6.728  10.709  0.6691  0.6144 -0.4975
 9445TIP3    H252531   6.506   6.707  10.621  1.5440 -1.9220 -1.2132
 9446TIP3   OH252532   7.162   5.723  12.174 -0.3739  0.3731  0.2718
 9446TIP3    H152533   7.223   5.716  12.100 -1.1180  2.5532 -0.6328
 9446TIP3    H252534   7.092   5.662  12.153  0.5390 -0.7431  0.3676
 9447TIP3   OH252535   1.598   1.626  11.271  0.2175 -0.7274 -0.5090
 9447TIP3    H152536   1.596   1.555  11.206 -0.2358 -1.1563 -0.0428
 9447TIP3    H252537   1.691   1.640  11.288  0.4258  0.3651 -2.2651
 9448TIP3   OH252538   0.167   0.881  11.449  0.7767  0.0551 -0.4805
 9448TIP3    H152539   0.187   0.863  11.540 -0.4695  0.7718 -0.0417
 9448TIP3    H252540   0.226   0.824  11.400  0.2903 -1.6122  0.7858
 9449TIP3   OH252541   0.866   4.528  12.867  0.8279  0.2259  0.4671
 9449TIP3    H152542   0.955   4.517  12.899  1.1748 -0.4665 -0.6867
 9449TIP3    H252543   0.825   4.442  12.880  0.6031  0.2847  0.1496
 9450TIP3   OH252544   5.538   4.036  10.613 -0.2017  0.1387 -0.2634
 9450TIP3    H152545   5.615   3.983  10.632 -1.2465 -1.0782  0.7963
 9450TIP3    H252546   5.573   4.122  10.589  1.4713  0.2059  2.0414
 9451TIP3   OH252547   1.340   2.755  10.948 -0.3680 -0.0305  0.4119
 9451TIP3    H152548   1.358   2.731  11.039  0.5238 -0.9079  0.0215
 9451TIP3    H252549   1.422   2.738  10.902 -0.6366  0.9515 -0.4557
 9452TIP3   OH252550   1.381   1.847  12.771 -0.5764 -0.2822 -0.4812
 9452TIP3    H152551   1.346   1.934  12.753 -0.3838  0.2991  1.6598
 9452TIP3    H252552   1.473   1.852  12.745 -0.7300 -0.0642 -0.9841
 9453TIP3   OH252553   0.407   5.983  13.471  0.0259 -0.2476  0.2298
 9453TIP3    H152554   0.336   6.033  13.510 -0.2088  0.3173 -0.8898
 9453TIP3    H252555   0.474   6.049  13.450  0.3715 -0.6126  0.1642
 9454TIP3   OH252556   2.593   2.244  11.786  0.2656  0.3747 -0.0669
 9454TIP3    H152557   2.548   2.329  11.780  0.8309  0.5935 -1.9278
 9454TIP3    H252558   2.677   2.264  11.827 -0.0032  0.5392  0.4084
 9455TIP3   OH252559   5.028   1.621  11.332  0.4419 -0.6859  0.2874
 9455TIP3    H152560   5.122   1.612  11.348  0.5094  0.9673  0.9789
 9455TIP3    H252561   5.022   1.666  11.248  0.2450 -1.0593  0.0958
 9456TIP3   OH252562   1.565   5.764  11.123  0.3442 -0.7666 -0.7249
 9456TIP3    H152563   1.583   5.833  11.059  0.2101 -1.5671 -1.6577
 9456TIP3    H252564   1.566   5.808  11.208  1.1905  0.1995 -1.2194
 9457TIP3   OH252565   2.260   0.531  10.646 -0.2341 -0.2738 -0.3471
 9457TIP3    H152566   2.349   0.565  10.650 -0.4531  0.6477 -2.2083
 9457TIP3    H252567   2.270   0.442  10.613 -0.0270  0.0232 -1.1011
 9458TIP3   OH252568   2.974   7.129  11.479  0.0202 -0.5230  0.1323
 9458TIP3    H152569   2.889   7.089  11.460  0.3917 -1.5453  0.5573
 9458TIP3    H252570   2.980   7.202  11.418 -0.7233 -1.0613 -0.6045
 9459TIP3   OH252571   4.048   5.487  10.779 -0.5427 -0.1631 -0.5737
 9459TIP3    H152572   4.071   5.433  10.854 -0.2801 -1.4633 -1.5371
 9459TIP3    H252573   3.958   5.462  10.758 -1.1954  1.3843  0.2693
 9460TIP3   OH252574   7.351   2.070  11.463 -0.3534  0.0645  0.1863
 9460TIP3    H152575   7.340   2.147  11.518  0.4362 -0.3020  0.8901
 9460TIP3    H252576   7.265   2.055  11.425 -0.8953  0.3995  1.2337
 9461TIP3   OH252577   6.529   4.506  12.839 -0.7516  0.1312 -0.5591
 9461TIP3    H152578   6.551   4.440  12.904 -0.6244 -0.9810 -1.6885
 9461TIP3    H252579   6.456   4.554  12.877  1.7369  2.1302  2.1218
 9462TIP3   OH252580   1.202   6.200  11.494 -0.5305 -0.1235  0.0171
 9462TIP3    H152581   1.287   6.182  11.454 -0.5909  0.7967 -0.5421
 9462TIP3    H252582   1.171   6.114  11.524 -0.1767 -0.7341 -1.2994
 9463TIP3   OH252583   7.293   3.947  13.015  0.0230  0.4948  0.0519
 9463TIP3    H152584   7.298   3.876  13.079 -1.2883  0.0875 -0.2544
 9463TIP3    H252585   7.303   4.027  13.066  0.1770  0.1312  0.5928
 9464TIP3   OH252586   0.207   2.725  10.641 -0.3789  0.0945 -0.0020
 9464TIP3    H152587   0.283   2.712  10.584 -1.7528  0.5861 -2.0914
 9464TIP3    H252588   0.214   2.816  10.669 -0.1417  0.1146 -0.1237
 9465TIP3   OH252589   1.899   2.515  11.986  0.2823  0.1559  0.2740
 9465TIP3    H152590   1.857   2.440  11.943  0.6967 -1.2519  2.1529
 9465TIP3    H252591   1.870   2.591  11.936 -0.1936 -1.2382 -1.7070
 9466TIP3   OH252592   4.965   4.132  11.181 -0.5088  0.1464 -0.0276
 9466TIP3    H152593   4.953   4.039  11.158  0.6181  0.3256 -1.5386
 9466TIP3    H252594   4.881   4.172  11.162 -0.7639 -0.4389 -0.1638
 9467TIP3   OH252595   5.573   6.307  11.138 -0.3302  0.1531 -0.3698
 9467TIP3    H152596   5.498   6.259  11.173  0.0936  0.9047  1.7626
 9467TIP3    H252597   5.557   6.313  11.044 -2.6979 -0.1284 -0.0427
 9468TIP3   OH252598   2.336   5.696  12.900  0.2082  0.2048 -0.1389
 9468TIP3    H152599   2.337   5.782  12.858  1.1447  1.0327  1.4641
 9468TIP3    H252600   2.410   5.650  12.860  1.6250  1.2877  1.1122
 9469TIP3   OH252601   1.524   7.370  10.975 -0.1064 -0.0071 -0.0130
 9469TIP3    H152602   1.451   7.415  11.016 -1.4208 -0.9986 -1.2005
 9469TIP3    H252603   1.490   7.285  10.950  0.7735  0.3137 -2.6312
 9470TIP3   OH252604   7.602   5.976  11.850  0.0006 -0.2025  0.1697
 9470TIP3    H152605   7.658   5.988  11.927 -1.2324  2.5944  0.7297
 9470TIP3    H252606   7.604   5.881  11.834  1.0192 -0.7761  3.0726
 9471TIP3   OH252607   6.598   5.376  10.804  0.2062 -0.3005  0.5815
 9471TIP3    H152608   6.638   5.342  10.884  0.5774  1.1496  1.0376
 9471TIP3    H252609   6.669   5.377  10.740  0.7502  1.4635  1.1490
 9472TIP3   OH252610   0.508   2.686  11.420 -0.9508  0.0061 -0.4259
 9472TIP3    H152611   0.596   2.651  11.405  0.2974  2.7582 -0.0423
 9472TIP3    H252612   0.473   2.634  11.492  1.2117  0.1887  0.8307
 9473TIP3   OH252613   1.326   4.512  10.571  0.4661 -0.1423  0.0148
 9473TIP3    H152614   1.270   4.523  10.648  0.8533 -0.5416  0.3583
 9473TIP3    H252615   1.414   4.501  10.607  0.4731 -1.6898 -0.4102
 9474TIP3   OH252616   6.142   6.444  10.596 -0.0662  0.0207  0.1098
 9474TIP3    H152617   6.207   6.378  10.572 -1.7549 -1.4017 -0.7882
 9474TIP3    H252618   6.065   6.423  10.542 -1.5729  1.0983  1.7143
 9475TIP3   OH252619   0.989   3.231  13.306  0.4422  0.0597 -0.3770
 9475TIP3    H152620   0.957   3.184  13.228  0.2807  1.3959 -1.1498
 9475TIP3    H252621   0.977   3.324  13.284  0.1368  0.4537  1.3741
 9476TIP3   OH252622   5.298   1.854  11.371  0.1572 -0.3596 -0.9104
 9476TIP3    H152623   5.291   1.765  11.403 -1.6080 -0.2224 -0.8182
 9476TIP3    H252624   5.245   1.856  11.292  0.5998  0.4918 -1.2063
 9477TIP3   OH252625   6.589   7.665  11.096 -0.4643 -0.6076 -0.1913
 9477TIP3    H152626   6.523   7.602  11.068  0.0095 -0.6481 -1.2908
 9477TIP3    H252627   6.668   7.613  11.108 -1.0762 -0.9427  3.2866
 9478TIP3   OH252628   0.706   5.951  10.585 -0.0185  0.3640  0.3241
 9478TIP3    H152629   0.777   5.886  10.591 -1.6515 -1.4208  1.2698
 9478TIP3    H252630   0.714   5.986  10.496  1.0322 -1.0356 -0.1772
 9479TIP3   OH252631   6.368   6.252  11.948  0.6151  0.7944 -0.2591
 9479TIP3    H152632   6.307   6.193  11.991  0.6361  2.2073  1.8511
 9479TIP3    H252633   6.451   6.204  11.947  0.1782  0.0218 -0.4434
 9480TIP3   OH252634   2.385   0.207  12.474 -0.2419  0.0851  0.0818
 9480TIP3    H152635   2.408   0.282  12.419  1.3581 -1.0171 -0.8312
 9480TIP3    H252636   2.371   0.245  12.561 -1.6322  1.7086 -0.7917
 9481TIP3   OH252637   0.733   0.722  13.156  0.7659  0.4658  0.1402
 9481TIP3    H152638   0.655   0.703  13.209  0.3953 -0.6409 -0.7755
 9481TIP3    H252639   0.798   0.751  13.220 -1.1063  3.9678  0.6994
 9482TIP3   OH252640   1.066   3.067  11.730 -0.1620 -0.3927 -0.6101
 9482TIP3    H152641   1.109   3.063  11.645  0.3636  0.7000 -0.4034
 9482TIP3    H252642   1.025   3.153  11.733 -1.5441 -1.0244 -0.3959
 9483TIP3   OH252643   1.762   3.310  11.398  0.0341  0.6213 -0.8175
 9483TIP3    H152644   1.790   3.280  11.485  0.2272  1.5087 -0.5690
 9483TIP3    H252645   1.827   3.272  11.339  0.6407  1.0523 -0.4392
 9484TIP3   OH252646   1.410   5.616  12.945 -0.2246 -0.1630 -0.3176
 9484TIP3    H152647   1.369   5.540  12.987  0.7138 -0.8651 -0.6172
 9484TIP3    H252648   1.436   5.673  13.018 -1.0674 -0.0489 -0.0969
 9485TIP3   OH252649   6.822   4.901  11.894  0.2373 -0.2918  0.0705
 9485TIP3    H152650   6.869   4.974  11.855 -0.3114 -0.7544 -1.5377
 9485TIP3    H252651   6.890   4.840  11.922  0.6509 -0.2214 -0.7630
 9486TIP3   OH252652   5.161   1.298  11.840  0.3804  0.2595 -0.3301
 9486TIP3    H152653   5.209   1.276  11.920 -1.4349  0.0145  0.7349
 9486TIP3    H252654   5.208   1.374  11.805  1.5451  0.0236  0.6484
 9487TIP3   OH252655   4.134   1.973  11.857  0.4144 -0.3610  0.6636
 9487TIP3    H152656   4.089   2.036  11.802  2.1135  0.1137 -0.2537
 9487TIP3    H252657   4.074   1.956  11.929 -0.8212  0.9039 -0.0338
 9488TIP3   OH252658   0.542   7.081  12.657 -0.6398 -0.1165 -0.2282
 9488TIP3    H152659   0.607   7.083  12.727  1.2440  0.7244 -1.8824
 9488TIP3    H252660   0.538   6.989  12.631  1.0496  0.0015 -1.0486
 9489TIP3   OH252661   5.758   2.781  11.907 -0.4030 -0.6396  0.0362
 9489TIP3    H152662   5.769   2.876  11.897 -0.2567 -0.6507  0.0976
 9489TIP3    H252663   5.772   2.746  11.819 -1.4685 -0.5094 -0.2092
 9490TIP3   OH252664   0.924   1.962  12.209 -0.1402 -0.3022 -0.4799
 9490TIP3    H152665   0.876   1.962  12.126  2.2721  1.9670 -2.0205
 9490TIP3    H252666   0.977   1.883  12.207 -0.0821 -0.2460 -1.1260
 9491TIP3   OH252667   4.320   7.647  10.984 -0.0806 -0.6530  0.1673
 9491TIP3    H152668   4.245   7.641  10.924  0.3085  0.5417 -0.4617
 9491TIP3    H252669   4.384   7.585  10.947 -0.2478 -0.7031 -0.0432
 9492TIP3   OH252670   1.657   6.736  12.246 -0.0425  0.3782  0.2759
 9492TIP3    H152671   1.570   6.706  12.220 -0.6943  3.0971 -0.9773
 9492TIP3    H252672   1.705   6.745  12.164  0.8671  0.5253  0.8123
 9493TIP3   OH252673   2.300   4.381  10.561  0.8062  0.2536 -0.5628
 9493TIP3    H152674   2.347   4.302  10.536 -0.4879 -0.3554 -1.1924
 9493TIP3    H252675   2.275   4.421  10.479 -1.1615 -0.3313 -0.3073
 9494TIP3   OH252676   5.257   4.816  10.641  0.1381  0.1897 -0.4199
 9494TIP3    H152677   5.323   4.818  10.571 -0.0658  0.8239 -0.5993
 9494TIP3    H252678   5.253   4.724  10.667  0.1204 -0.0872 -1.3450
 9495TIP3   OH252679   1.811   1.525  10.772  0.0120 -0.2516  0.1133
 9495TIP3    H152680   1.734   1.518  10.716  0.0508  0.2030 -0.0015
 9495TIP3    H252681   1.784   1.584  10.843  0.7911  1.4004 -0.8946
 9496TIP3   OH252682   0.657   7.261  13.018 -0.2785 -0.1950 -0.1455
 9496TIP3    H152683   0.690   7.209  12.945 -0.9328  0.1401 -0.6971
 9496TIP3    H252684   0.562   7.250  13.014 -0.3275 -0.0980  0.6017
 9497TIP3   OH252685   1.626   6.617  11.643 -0.3038 -0.1197  0.1321
 9497TIP3    H152686   1.594   6.563  11.571 -0.4872 -0.4383  0.4490
 9497TIP3    H252687   1.607   6.707  11.616 -0.4145 -0.2379 -0.1935
 9498TIP3   OH252688   1.712   3.487  10.977  0.0724  0.0096 -0.1937
 9498TIP3    H152689   1.679   3.409  10.933  1.0210 -0.1936 -0.5640
 9498TIP3    H252690   1.777   3.524  10.917  2.1103 -0.8028  1.3952
 9499TIP3   OH252691   2.235   5.481  11.025 -0.6013  0.2346 -0.2384
 9499TIP3    H152692   2.257   5.506  10.936  1.6307 -2.1743 -0.4976
 9499TIP3    H252693   2.248   5.560  11.077  0.6375  1.0284 -1.6971
 9500TIP3   OH252694   0.899   3.654  12.392  0.6335  0.1211 -0.1311
 9500TIP3    H152695   0.808   3.625  12.384 -0.3538  2.5370  1.3032
 9500TIP3    H252696   0.948   3.595  12.335 -1.8345 -1.1886 -1.0384
 9501TIP3   OH252697   0.530   3.703  11.800 -0.0117 -0.8390 -0.0483
 9501TIP3    H152698   0.452   3.717  11.747 -1.0902 -1.0773  1.4084
 9501TIP3    H252699   0.601   3.696  11.737 -0.9599  0.6720 -1.3629
 9502TIP3   OH252700   3.176   7.443  12.682 -0.2435 -0.5311  0.2921
 9502TIP3    H152701   3.158   7.480  12.595 -0.9574 -0.7853  0.3239
 9502TIP3    H252702   3.191   7.350  12.666 -1.9447 -0.8922  0.6013
 9503TIP3   OH252703   1.824   4.966  12.401 -0.5802 -0.6314  0.1431
 9503TIP3    H152704   1.853   5.058  12.407  0.3037 -0.9746  2.2966
 9503TIP3    H252705   1.741   4.970  12.354 -1.1808  1.4354  1.2498
 9504TIP3   OH252706   6.568   4.106  11.133  0.0300 -0.2003 -0.2837
 9504TIP3    H152707   6.630   4.033  11.138 -0.4409 -0.6056 -0.3203
 9504TIP3    H252708   6.584   4.156  11.214  0.0784 -0.5649 -0.0665
 9505TIP3   OH252709   4.245   0.619  12.276  0.3583 -0.1190 -0.3943
 9505TIP3    H152710   4.249   0.571  12.359 -0.9887  0.9712  0.3288
 9505TIP3    H252711   4.152   0.619  12.253  0.3898  1.6864 -0.6342
 9506TIP3   OH252712   4.932   0.690  12.385  0.0850 -0.3971 -0.1013
 9506TIP3    H152713   4.941   0.667  12.292  0.1743  1.0151 -0.4738
 9506TIP3    H252714   4.988   0.628  12.431  0.1824 -1.0037 -1.0165
 9507TIP3   OH252715   0.144   6.201  11.157 -0.4544 -0.8243  0.5000
 9507TIP3    H152716   0.134   6.201  11.062  0.1658 -1.0123  0.4333
 9507TIP3    H252717   0.116   6.114  11.185 -1.4645 -0.4864  0.5851
 9508TIP3   OH252718   5.690   3.467  11.012  0.1751  0.0524  0.7352
 9508TIP3    H152719   5.628   3.522  11.059 -0.4914  0.6030 -0.7305
 9508TIP3    H252720   5.766   3.460  11.070 -0.7524  0.4069  2.0173
 9509TIP3   OH252721   4.164   5.734  10.969  0.2624  0.3900 -0.1726
 9509TIP3    H152722   4.091   5.789  10.941 -0.5689 -0.5626  0.0434
 9509TIP3    H252723   4.204   5.704  10.888 -0.8501 -0.6867 -0.3644
 9510TIP3   OH252724   3.479   1.288  12.827 -0.3805  0.1289  0.7202
 9510TIP3    H152725   3.400   1.337  12.805 -0.4687  0.2179  1.2100
 9510TIP3    H252726   3.463   1.200  12.792 -0.1058  0.5070 -0.3953
 9511TIP3   OH252727   1.078   6.436  11.294 -0.2456  0.4816  0.1673
 9511TIP3    H152728   1.073   6.358  11.349 -0.7345  1.2736  1.2742
 9511TIP3    H252729   1.171   6.458  11.291  0.1559 -1.1542 -1.6663
 9512TIP3   OH252730   3.730   2.405  11.786 -0.2995  0.5704 -0.7385
 9512TIP3    H152731   3.794   2.422  11.856  0.5232  1.0724 -1.5960
 9512TIP3    H252732   3.667   2.476  11.793 -1.0828 -0.2024  0.4371
 9513TIP3   OH252733   5.535   1.152  12.385 -0.3076 -0.1056  0.3839
 9513TIP3    H152734   5.522   1.198  12.303 -0.4747 -0.4877  0.1924
 9513TIP3    H252735   5.627   1.127  12.385  0.2670  1.7805  1.3111
 9514TIP3   OH252736   1.114   7.242  12.406  0.3730  0.0115 -0.6417
 9514TIP3    H152737   1.182   7.228  12.339 -0.3177 -1.0647 -1.1474
 9514TIP3    H252738   1.079   7.329  12.386 -0.2908 -0.5597 -2.1579
 9515TIP3   OH252739   0.459   3.793  10.956 -0.1276 -0.2195  0.5025
 9515TIP3    H152740   0.392   3.860  10.971  0.5386  0.4589  0.5671
 9515TIP3    H252741   0.421   3.712  10.991 -1.0271  0.0842  0.2448
 9516TIP3   OH252742   1.029   1.730  12.144  0.1957 -0.3039 -0.1794
 9516TIP3    H152743   1.062   1.668  12.209  0.1439 -0.9168 -0.7377
 9516TIP3    H252744   1.102   1.743  12.084  0.5353  0.9258  0.4645
 9517TIP3   OH252745   6.697   0.270  11.566  0.3377  0.3472  0.2864
 9517TIP3    H152746   6.754   0.327  11.515  2.4663 -0.8626  1.1475
 9517TIP3    H252747   6.657   0.211  11.502  0.8225  0.5987 -0.2553
 9518TIP3   OH252748   3.678   3.343  10.995 -0.1966 -0.1790 -0.0995
 9518TIP3    H152749   3.748   3.323  11.058 -0.0095 -1.0350 -0.5579
 9518TIP3    H252750   3.616   3.271  11.005 -0.2565 -0.2256 -0.7591
 9519TIP3   OH252751   3.314   4.627  12.413  0.6092 -0.2451  0.2027
 9519TIP3    H152752   3.408   4.638  12.400  0.2978  0.8243 -1.5500
 9519TIP3    H252753   3.279   4.716  12.412 -0.4247 -0.6315  0.7862
 9520TIP3   OH252754   4.852   5.085  12.933  0.0895 -0.9472 -0.0014
 9520TIP3    H152755   4.769   5.057  12.972 -1.5995 -0.5680 -3.0180
 9520TIP3    H252756   4.896   5.004  12.909  0.5254 -1.1376  1.3104
 9521TIP3   OH252757   3.721   0.230  11.169  0.2323  0.5113 -0.6849
 9521TIP3    H152758   3.726   0.262  11.259  0.8761 -1.2286 -0.0750
 9521TIP3    H252759   3.651   0.165  11.171  0.9259 -0.2586 -1.2001
 9522TIP3   OH252760   5.883   5.539  11.158  0.4014  0.4357  0.3497
 9522TIP3    H152761   5.812   5.572  11.103  0.1456 -0.2724  0.2536
 9522TIP3    H252762   5.906   5.454  11.121  0.5032  0.1352  1.0839
 9523TIP3   OH252763   4.501   3.979  10.793 -0.0929 -0.2274 -0.1915
 9523TIP3    H152764   4.422   4.027  10.768  0.1671  0.2551 -0.0949
 9523TIP3    H252765   4.492   3.965  10.887 -0.0787 -0.1946 -0.1847
 9524TIP3   OH252766   0.600   4.846  11.454  0.0880  0.4906 -0.1034
 9524TIP3    H152767   0.527   4.787  11.472 -0.0968  0.4921 -0.7978
 9524TIP3    H252768   0.601   4.907  11.528  0.4525 -0.5365  0.7660
 9525TIP3   OH252769   6.394   4.564  10.707  0.2310 -0.0891  0.1332
 9525TIP3    H152770   6.406   4.653  10.741  0.8147 -0.5264  1.1229
 9525TIP3    H252771   6.483   4.529  10.700 -0.0845 -1.3814  1.9617
 9526TIP3   OH252772   7.383   2.322  11.052 -0.1871  0.0793 -0.1960
 9526TIP3    H152773   7.345   2.236  11.071  0.1323 -0.2562 -1.0559
 9526TIP3    H252774   7.311   2.384  11.069 -1.1192 -0.5373 -1.6935
 9527TIP3   OH252775   1.122   5.667  12.660  0.0220  0.8498  0.8904
 9527TIP3    H152776   1.209   5.630  12.673 -0.1772  0.4552  1.1441
 9527TIP3    H252777   1.076   5.650  12.742 -0.4688  0.5477  0.5672
 9528TIP3   OH252778   4.936   5.209  11.306 -0.2638  0.2897 -0.3230
 9528TIP3    H152779   4.997   5.282  11.303 -0.9997  0.8937 -1.3926
 9528TIP3    H252780   4.880   5.221  11.229 -1.5913 -0.3511  0.4941
 9529TIP3   OH252781   4.036   4.707  13.144 -0.0535  0.1152 -0.4990
 9529TIP3    H152782   3.986   4.637  13.102 -1.6804  0.5322  0.6256
 9529TIP3    H252783   4.102   4.662  13.197 -0.3297 -0.5176 -0.6911
 9530TIP3   OH252784   4.026   4.389  12.018 -0.2284  0.3274  0.5527
 9530TIP3    H152785   4.099   4.414  11.960  0.5760 -0.3577  1.2445
 9530TIP3    H252786   4.000   4.471  12.060 -0.4593  0.7351 -0.3669
 9531TIP3   OH252787   5.851   4.728  12.303 -0.1823  0.2713  0.7461
 9531TIP3    H152788   5.793   4.792  12.344 -2.9880 -1.1449 -0.7521
 9531TIP3    H252789   5.867   4.762  12.215  0.6070  0.2182  0.8565
 9532TIP3   OH252790   6.259   1.712  11.538 -0.2471 -0.1821  0.8206
 9532TIP3    H152791   6.195   1.644  11.560 -0.3221 -0.2099  0.5219
 9532TIP3    H252792   6.337   1.689  11.590 -0.0750 -0.8266  0.2906
 9533TIP3   OH252793   1.084   4.231  10.541 -0.0543 -0.1208  0.0465
 9533TIP3    H152794   1.158   4.179  10.572 -0.2402 -3.3277 -3.9650
 9533TIP3    H252795   1.016   4.218  10.607  1.7056 -0.2828  1.9017
 9534TIP3   OH252796   4.083   7.138  12.395  0.3564  0.0656  0.8720
 9534TIP3    H152797   4.154   7.104  12.449 -0.1206 -1.4660  0.5869
 9534TIP3    H252798   4.103   7.106  12.306  0.1632  0.9936  0.4823
 9535TIP3   OH252799   0.865   5.730  10.936 -0.3174 -0.1777 -0.2595
 9535TIP3    H152800   0.779   5.762  10.961  0.2870  2.9497 -1.7076
 9535TIP3    H252801   0.907   5.804  10.892  2.2944 -2.2545 -1.5923
 9536TIP3   OH252802   5.002   3.961  12.034 -0.1201 -0.1451 -0.3420
 9536TIP3    H152803   5.045   3.946  12.118  0.2043 -1.7500 -0.7569
 9536TIP3    H252804   5.048   4.036  11.996 -1.6369  1.9814  1.7635
 9537TIP3   OH252805   1.979   5.640  12.610 -0.2543  0.6539 -0.3095
 9537TIP3    H152806   1.891   5.619  12.577 -0.5318 -0.1591  0.8820
 9537TIP3    H252807   2.018   5.693  12.540 -0.7148 -1.1617 -2.0566
 9538TIP3   OH252808   0.183   4.454  13.145  0.0869  0.1340  0.2799
 9538TIP3    H152809   0.265   4.435  13.190  0.0594 -1.0080 -0.1225
 9538TIP3    H252810   0.123   4.386  13.175  0.2064 -0.9821 -1.8355
 9539TIP3   OH252811   7.210   0.934  10.628 -0.2374  0.0655  0.3449
 9539TIP3    H152812   7.258   0.996  10.683  0.9723 -1.1091  0.6640
 9539TIP3    H252813   7.118   0.958  10.640  0.2293  2.9098 -0.9263
 9540TIP3   OH252814   4.160   3.623  11.615  0.9839 -0.4312 -0.4396
 9540TIP3    H152815   4.167   3.631  11.710 -0.6583 -1.2013 -0.2224
 9540TIP3    H252816   4.119   3.706  11.588  1.7122 -0.0923 -0.5210
 9541TIP3   OH252817   3.721   4.993  11.787 -0.2441 -0.0808 -0.2112
 9541TIP3    H152818   3.816   5.006  11.781 -0.3486  1.5811  1.0971
 9541TIP3    H252819   3.691   5.062  11.846 -1.9648 -2.0639  1.3766
 9542TIP3   OH252820   1.763   0.759  10.869  0.2234 -0.8348 -0.0315
 9542TIP3    H152821   1.783   0.706  10.792 -1.0144 -1.0964 -0.1996
 9542TIP3    H252822   1.741   0.695  10.938  0.1720 -0.5814  0.1925
 9543TIP3   OH252823   7.513   6.283  11.854 -0.0914 -0.5491  0.0116
 9543TIP3    H152824   7.527   6.352  11.919 -0.1558  0.1378 -0.6959
 9543TIP3    H252825   7.589   6.225  11.864  1.2779  0.9623 -1.0472
 9544TIP3   OH252826   0.619   6.827  12.552  0.2561 -0.2713 -0.1900
 9544TIP3    H152827   0.605   6.820  12.457 -1.3155 -0.1061 -0.0035
 9544TIP3    H252828   0.684   6.759  12.571 -0.9400 -1.7644 -1.1121
 9545TIP3   OH252829   2.458   1.781  11.796  0.1081  0.5556 -0.5621
 9545TIP3    H152830   2.440   1.723  11.870  1.2845 -0.5001 -1.0698
 9545TIP3    H252831   2.388   1.763  11.733 -1.1223  1.7334  0.3980
 9546TIP3   OH252832   1.198   5.340  12.056  0.8570 -0.3801 -0.5803
 9546TIP3    H152833   1.195   5.274  12.125  0.3278 -1.6527 -1.7670
 9546TIP3    H252834   1.285   5.379  12.065  0.8199 -0.5595  0.7530
 9547TIP3   OH252835   1.592   3.630  12.768 -0.3855 -0.6796  0.4407
 9547TIP3    H152836   1.630   3.545  12.787 -1.8224 -1.3772  0.3032
 9547TIP3    H252837   1.499   3.613  12.756 -0.6279  0.8393 -0.0735
 9548TIP3   OH252838   5.143   0.836  11.970  0.7583 -0.6860  0.0950
 9548TIP3    H152839   5.075   0.826  11.902 -0.1072  1.6045  0.5524
 9548TIP3    H252840   5.219   0.868  11.923 -0.2319  2.1713  0.2789
 9549TIP3   OH252841   1.659   5.183  13.009  0.3748  0.4843  0.2053
 9549TIP3    H152842   1.752   5.180  13.031  0.1283 -2.4823  1.2989
 9549TIP3    H252843   1.617   5.216  13.088  0.2871 -1.4109  1.0129
 9550TIP3   OH252844   5.609   0.037  12.257 -0.1688 -0.3946  0.1970
 9550TIP3    H152845   5.591   0.088  12.336 -2.5359  2.1858 -1.7842
 9550TIP3    H252846   5.685   0.080  12.218 -0.9196  0.3835 -0.4486
 9551TIP3   OH252847   6.693   3.849  11.183 -0.0825 -0.1619  0.5432
 9551TIP3    H152848   6.670   3.767  11.139  1.5874  0.0921 -0.8769
 9551TIP3    H252849   6.703   3.824  11.275 -2.5979 -0.9026  0.6858
 9552TIP3   OH252850   0.934   3.656  11.893  0.1190  0.5424  0.0492
 9552TIP3    H152851   0.903   3.607  11.968  1.0773 -1.8991 -1.0417
 9552TIP3    H252852   1.027   3.670  11.910 -0.0178  1.4672  0.0708
 9553TIP3   OH252853   3.257   4.526  11.413 -0.1375 -0.2003 -0.3728
 9553TIP3    H152854   3.276   4.520  11.320 -0.0832  0.5397 -0.4175
 9553TIP3    H252855   3.328   4.479  11.456  1.5119  1.9329 -0.5699
 9554TIP3   OH252856   5.108   7.485  11.493 -0.0367  0.0954 -0.2690
 9554TIP3    H152857   5.201   7.485  11.470 -0.0517 -0.2674 -0.3365
 9554TIP3    H252858   5.064   7.449  11.415 -0.2545  0.4597 -0.3186
 9555TIP3   OH252859   7.555   2.770  10.824 -0.2102 -0.4848  0.0649
 9555TIP3    H152860   7.507   2.742  10.901 -1.9571  1.4987 -0.2186
 9555TIP3    H252861   7.514   2.852  10.798  0.7128 -0.7694 -2.6320
 9556TIP3   OH252862   3.984   2.100  11.079 -0.2241  0.0093 -0.4504
 9556TIP3    H152863   4.032   2.183  11.085 -0.0376 -0.1658  0.7890
 9556TIP3    H252864   3.906   2.114  11.133  0.3778 -0.9826  0.7312
 9557TIP3   OH252865   0.541   3.449  12.194 -0.3463  0.0212  0.5804
 9557TIP3    H152866   0.572   3.361  12.214  2.4773  1.0687  1.3583
 9557TIP3    H252867   0.549   3.457  12.099  0.7829 -0.1211  0.6507
 9558TIP3   OH252868   1.589   1.548  11.843 -0.9546  0.0231 -0.3247
 9558TIP3    H152869   1.663   1.530  11.900 -1.9141 -1.6738  0.4668
 9558TIP3    H252870   1.593   1.642  11.827  1.1640  0.0237 -0.0615
 9559TIP3   OH252871   7.602   6.907  10.356  0.1855 -0.1014 -0.3688
 9559TIP3    H152872   7.578   6.842  10.423  0.7511  0.0610 -0.0065
 9559TIP3    H252873   7.518   6.945  10.330 -0.0365 -0.0926  0.3250
 9560TIP3   OH252874   0.161   2.904  11.967  0.2442  0.4471  0.0536
 9560TIP3    H152875   0.092   2.941  12.022  2.5143  4.3815  0.6350
 9560TIP3    H252876   0.242   2.921  12.015  1.8814 -1.5441 -1.8008
 9561TIP3   OH252877   2.882   0.738  11.103  0.3228 -0.4161 -0.4401
 9561TIP3    H152878   2.875   0.815  11.158 -1.1887 -1.0846  0.3776
 9561TIP3    H252879   2.940   0.764  11.032 -1.5599  2.1065 -1.2128
 9562TIP3   OH252880   4.710   7.486  12.161 -0.1101 -0.8183 -0.2273
 9562TIP3    H152881   4.752   7.510  12.078 -1.9184  0.2698 -0.8902
 9562TIP3    H252882   4.775   7.510  12.228  1.0532 -0.9428 -1.2661
 9563TIP3   OH252883   0.798   6.557  12.543 -0.2204  0.1449  0.2070
 9563TIP3    H152884   0.891   6.540  12.555 -0.2644  0.3311  0.8486
 9563TIP3    H252885   0.780   6.531  12.452  0.3840 -0.1924  0.1816
 9564TIP3   OH252886   0.841   4.833  11.784  0.0516  0.2443  0.3891
 9564TIP3    H152887   0.872   4.892  11.715 -0.0142  0.6088  0.6689
 9564TIP3    H252888   0.818   4.891  11.856 -1.4464  0.0030  0.1409
 9565TIP3   OH252889   6.790   6.438  11.693  0.1544 -0.0936  0.0895
 9565TIP3    H152890   6.759   6.360  11.739 -1.5440 -0.1968 -1.1376
 9565TIP3    H252891   6.840   6.486  11.759 -0.2673 -1.3290  1.3678
 9566TIP3   OH252892   0.981   3.063  13.537 -0.5135 -0.4671  0.0294
 9566TIP3    H152893   0.993   3.130  13.471 -0.4584 -1.5704 -1.1115
 9566TIP3    H252894   1.047   2.997  13.518 -2.2558 -2.1354 -0.5639
 9567TIP3   OH252895   0.322   2.033  12.104 -0.2423  0.0265 -0.4761
 9567TIP3    H152896   0.279   1.957  12.144  1.1564 -0.1630  0.7617
 9567TIP3    H252897   0.257   2.069  12.044 -1.4543 -1.2938 -0.0026
 9568TIP3   OH252898   7.278   4.437  11.315 -0.1489 -0.2849  0.0141
 9568TIP3    H152899   7.372   4.454  11.328 -0.3591 -0.1111  1.4176
 9568TIP3    H252900   7.275   4.381  11.237  0.8517  2.7025 -2.4110
 9569TIP3   OH252901   4.674   6.531  11.739 -0.2135  0.0990 -0.4220
 9569TIP3    H152902   4.725   6.566  11.813  0.0265 -0.2012 -0.4409
 9569TIP3    H252903   4.619   6.464  11.779  0.7694 -0.9037 -0.6841
 9570TIP3   OH252904   7.167   2.288  12.305 -0.1196 -0.6310  0.2254
 9570TIP3    H152905   7.126   2.310  12.389 -0.0557 -0.3275  0.1763
 9570TIP3    H252906   7.095   2.290  12.242  0.0809  0.5567  0.0223
 9571TIP3   OH252907   0.766   0.100  11.491  0.1084 -0.2463  0.0522
 9571TIP3    H152908   0.760   0.183  11.443 -1.4607  1.1285  2.4331
 9571TIP3    H252909   0.837   0.113  11.554 -0.1297 -0.7172  0.4271
 9572TIP3   OH252910   6.438   2.847  10.745 -0.2937  0.0625 -0.7188
 9572TIP3    H152911   6.345   2.832  10.761  0.0118 -1.2950 -0.0945
 9572TIP3    H252912   6.476   2.759  10.738  0.7227  0.5816 -2.3241
 9573TIP3   OH252913   6.850   6.403  12.359 -0.3537  0.4433 -0.0321
 9573TIP3    H152914   6.945   6.410  12.348 -0.4343  1.0740 -0.3535
 9573TIP3    H252915   6.838   6.321  12.406  0.3347  0.2223 -0.2232
 9574TIP3   OH252916   7.137   1.798  12.707 -0.2962  0.0983 -0.0945
 9574TIP3    H152917   7.196   1.819  12.779 -2.1114  1.9962  0.9260
 9574TIP3    H252918   7.189   1.812  12.628  0.6125  1.8344  0.7648
 9575TIP3   OH252919   4.034   7.590  11.253 -0.1931 -0.2388  0.0929
 9575TIP3    H152920   4.058   7.516  11.197 -1.2117 -0.4219 -0.1178
 9575TIP3    H252921   3.940   7.580  11.267 -0.2481  0.7347  0.4809
 9576TIP3   OH252922   2.846   1.543  10.815  0.1583  0.4429  0.1288
 9576TIP3    H152923   2.900   1.620  10.833 -1.0163  1.1006  1.0608
 9576TIP3    H252924   2.889   1.472  10.862  0.3976  0.8828  0.5963
 9577TIP3   OH252925   0.384   2.265  12.474  0.2683  0.4182 -0.3805
 9577TIP3    H152926   0.468   2.311  12.477  0.0943  0.6588  1.2775
 9577TIP3    H252927   0.319   2.334  12.458  0.0780  0.6997  1.4503
 9578TIP3   OH252928   6.895   2.395  11.191 -0.4147 -0.1879  0.2799
 9578TIP3    H152929   6.858   2.481  11.170  1.8054  0.6060 -0.7074
 9578TIP3    H252930   6.899   2.394  11.287 -0.8626  0.6186  0.3202
 9579TIP3   OH252931   4.081   0.664  12.036  0.1070 -0.2728 -0.2963
 9579TIP3    H152932   4.157   0.640  11.982  1.8433 -0.4078  2.0608
 9579TIP3    H252933   4.091   0.758  12.051  0.5153 -0.4965  0.9768
 9580TIP3   OH252934   1.956   7.244  11.521 -0.4647  0.0205 -0.2842
 9580TIP3    H152935   2.001   7.328  11.510 -1.7625  0.6970 -0.6065
 9580TIP3    H252936   1.894   7.259  11.593  1.0155 -1.4344  1.4028
 9581TIP3   OH252937   7.636   3.791  12.105 -0.0978 -0.0781 -0.2318
 9581TIP3    H152938   7.670   3.800  12.016 -1.9619 -0.9671 -1.0776
 9581TIP3    H252939   7.551   3.834  12.104  0.0317  0.2912  1.2663
 9582TIP3   OH252940   2.182   6.598  10.448 -0.3207  0.0424 -0.0931
 9582TIP3    H152941   2.275   6.574  10.452 -0.2323  0.5160  0.9426
 9582TIP3    H252942   2.143   6.533  10.390  0.5528 -0.4943 -0.0950
 9583TIP3   OH252943   0.771   4.029  10.859  0.2527  0.0330  0.0064
 9583TIP3    H152944   0.853   4.077  10.870 -0.1033  0.3675  1.5577
 9583TIP3    H252945   0.787   3.946  10.905  0.0913 -0.3750 -0.6672
 9584TIP3   OH252946   7.333   6.292  12.620 -0.3287 -0.2140 -0.3019
 9584TIP3    H152947   7.428   6.300  12.634 -0.3575 -1.3907  0.7139
 9584TIP3    H252948   7.309   6.372  12.573  0.9821  0.6444  0.4302
 9585TIP3   OH252949   3.917   0.186  12.053  0.7677 -1.1458 -0.5955
 9585TIP3    H152950   3.829   0.203  12.085  1.0060 -1.8603  0.5072
 9585TIP3    H252951   3.962   0.145  12.127  1.2659 -3.1320 -1.9027
 9586TIP3   OH252952   1.598   3.945  11.528 -0.2888 -0.1412  0.0315
 9586TIP3    H152953   1.506   3.969  11.516 -0.1932 -0.6277 -1.9384
 9586TIP3    H252954   1.644   3.993  11.459  1.0400  0.5065  1.3115
 9587TIP3   OH252955   5.317   0.402  12.333  0.6892 -0.7581  0.3846
 9587TIP3    H152956   5.379   0.472  12.314  0.0571 -0.0567  0.8557
 9587TIP3    H252957   5.371   0.328  12.359  1.3035  0.2315  2.0610
 9588TIP3   OH252958   0.106   3.697  10.977  0.4570  0.0543 -0.1872
 9588TIP3    H152959   0.031   3.682  11.034 -0.6442 -0.1126 -1.6151
 9588TIP3    H252960   0.127   3.790  10.989 -0.0149  0.1154  0.2018
 9589TIP3   OH252961   6.366   1.709  13.097  0.0588  0.0328  0.1913
 9589TIP3    H152962   6.344   1.697  13.189  0.2857 -0.9324  0.1370
 9589TIP3    H252963   6.456   1.743  13.099  0.2534 -0.4771  0.3223
 9590TIP3   OH252964   1.919   5.552  13.036 -0.5472 -0.1033  0.0954
 9590TIP3    H152965   1.860   5.613  12.991 -0.1975  0.4056  0.3169
 9590TIP3    H252966   1.876   5.533  13.119 -0.7615 -0.3304 -0.0676
 9591TIP3   OH252967   1.083   6.349  12.239  0.6143 -0.0453  0.4051
 9591TIP3    H152968   1.110   6.272  12.189 -1.1436  0.6323 -1.7412
 9591TIP3    H252969   1.162   6.377  12.286  2.2952 -0.9477 -1.7328
 9592TIP3   OH252970   6.467   2.467  11.181  0.6036 -0.0260 -0.0459
 9592TIP3    H152971   6.528   2.394  11.183 -0.4112 -0.8946  1.7915
 9592TIP3    H252972   6.417   2.453  11.100  3.5975  1.4816 -2.3423
 9593TIP3   OH252973   3.601   5.837  11.263 -0.1596  0.2192 -0.4001
 9593TIP3    H152974   3.570   5.822  11.352  0.8665  2.3480  0.3946
 9593TIP3    H252975   3.697   5.835  11.271 -0.0593  0.6711 -1.3952
 9594TIP3   OH252976   0.276   4.971  11.624 -0.3570  0.1335  0.3787
 9594TIP3    H152977   0.269   4.944  11.533 -1.5813  2.1077 -0.1656
 9594TIP3    H252978   0.241   4.897  11.674 -1.0558 -0.3794 -0.8312
 9595TIP3   OH252979   3.119   4.752  12.152 -0.0796 -0.1931  0.2908
 9595TIP3    H152980   3.113   4.782  12.243  1.1156 -2.1974  1.1016
 9595TIP3    H252981   3.209   4.721  12.143 -1.3423 -4.4020 -0.0232
 9596TIP3   OH252982   6.001   2.571  11.229  0.1646 -0.1827  0.7457
 9596TIP3    H152983   6.055   2.499  11.259  0.5736 -0.9906 -1.7927
 9596TIP3    H252984   6.062   2.634  11.191 -0.4469  0.1836  0.3492
 9597TIP3   OH252985   6.064   0.372  11.691 -0.2094 -0.4069 -0.1058
 9597TIP3    H152986   6.117   0.410  11.621  1.1258 -1.4037  0.3193
 9597TIP3    H252987   6.053   0.280  11.665 -2.3636 -0.0688 -0.5255
 9598TIP3   OH252988   7.505   5.312  10.688 -0.2381 -0.5926  0.0111
 9598TIP3    H152989   7.471   5.375  10.625 -1.9188  0.0691  1.4815
 9598TIP3    H252990   7.435   5.302  10.753  1.5128 -0.9399  1.9920
 9599TIP3   OH252991   0.622   1.046  10.738  0.2365 -0.5672 -0.8461
 9599TIP3    H152992   0.671   1.071  10.660 -1.3550 -2.3317 -2.5233
 9599TIP3    H252993   0.531   1.040  10.709 -0.7646  0.7706  1.6979
 9600TIP3   OH252994   0.350   7.423  12.158  0.0646  0.7040  0.6595
 9600TIP3    H152995   0.424   7.483  12.149  0.3253  0.4038  0.8315
 9600TIP3    H252996   0.317   7.439  12.247  0.4263  0.2531  0.8760
 9601TIP3   OH252997   6.252   4.668  11.784  0.2528  0.5894 -0.3440
 9601TIP3    H152998   6.320   4.630  11.839 -1.3903 -2.1092  0.0018
 9601TIP3    H252999   6.238   4.756  11.820  2.3441  0.5980  0.5932
 9602TIP3   OH253000   3.583   1.105  11.216 -0.6634  0.3745  0.1231
 9602TIP3    H153001   3.584   1.072  11.306 -0.7573 -0.2407 -0.0978
 9602TIP3    H253002   3.674   1.105  11.189 -0.7729 -1.0508 -0.3482
 9603TIP3   OH253003   6.323   1.910  11.986 -0.1651  0.1348 -0.5656
 9603TIP3    H153004   6.411   1.893  11.952  0.9619  1.6679  1.3918
 9603TIP3    H253005   6.320   2.005  12.001 -2.4330  0.2417 -1.2511
 9604TIP3   OH253006   0.565   6.186  13.429 -0.5770 -0.5046  0.3747
 9604TIP3    H153007   0.604   6.196  13.342 -0.5783  0.1266  0.4483
 9604TIP3    H253008   0.618   6.241  13.486 -2.3615  1.4866  0.2364
 9605TIP3   OH253009   4.201   2.486  10.330  0.1383  0.3239 -0.4260
 9605TIP3    H153010   4.162   2.482  10.242 -1.9854 -1.5051  0.4810
 9605TIP3    H253011   4.126   2.477  10.389  1.6830 -0.2129  1.5331
 9606TIP3   OH253012   7.295   2.543  10.826 -0.1696 -0.2254 -0.4994
 9606TIP3    H153013   7.233   2.607  10.791 -1.3221 -0.8078  0.4030
 9606TIP3    H253014   7.343   2.590  10.894  1.7625  0.7780 -2.4029
 9607TIP3   OH253015   2.372   5.358  11.733 -0.0314  0.3902  0.1738
 9607TIP3    H153016   2.286   5.318  11.745 -0.1265  0.6731  0.4552
 9607TIP3    H253017   2.389   5.404  11.815  1.5606 -1.8066  1.1880
 9608TIP3   OH253018   6.130   3.142  13.169  0.1895  0.3047 -0.6231
 9608TIP3    H153019   6.060   3.094  13.214  1.1813  0.0645  0.7069
 9608TIP3    H253020   6.160   3.082  13.101 -0.0563 -0.0818 -0.3960
 9609TIP3   OH253021   3.520   6.479  11.774  0.8487 -0.1395  0.2803
 9609TIP3    H153022   3.429   6.450  11.784  0.3370  1.5845  0.9977
 9609TIP3    H253023   3.519   6.537  11.699  1.3178  0.0260  0.3966
 9610TIP3   OH253024   6.852   3.679  10.399  0.3748  0.1198 -0.1003
 9610TIP3    H153025   6.873   3.675  10.305 -0.5658  0.2300 -0.3218
 9610TIP3    H253026   6.761   3.708  10.402  0.9813  2.0994  0.9055
 9611TIP3   OH253027   2.074   6.845  12.339  0.4717 -0.0975 -0.4051
 9611TIP3    H153028   2.099   6.843  12.432 -0.7144 -0.6138 -0.0669
 9611TIP3    H253029   2.048   6.935  12.323  2.3544  0.4299 -0.7427
 9612TIP3   OH253030   2.151   5.351  12.326 -0.4544 -0.2901 -0.1909
 9612TIP3    H153031   2.077   5.319  12.377  0.2291  0.7213  1.5240
 9612TIP3    H253032   2.115   5.424  12.275 -0.7817 -0.2171  0.1421
 9613TIP3   OH253033   2.929   4.440  10.690 -0.0454 -0.4869  0.1958
 9613TIP3    H153034   2.977   4.410  10.766  1.0372  1.4887  0.3550
 9613TIP3    H253035   2.912   4.361  10.639  0.0736 -1.7061  1.9658
 9614TIP3   OH253036   6.030   4.129  11.726 -0.6291  0.1315 -0.2287
 9614TIP3    H153037   6.047   4.084  11.809 -0.8341 -0.8425 -0.7103
 9614TIP3    H253038   6.105   4.188  11.715  1.1945 -2.1904 -1.0272
 9615TIP3   OH253039   0.926   1.117  12.608  0.1301 -0.0124  0.0676
 9615TIP3    H153040   1.017   1.137  12.586  0.2795  0.1891  0.8452
 9615TIP3    H253041   0.926   1.022  12.621  0.5299  0.1518  1.3802
 9616TIP3   OH253042   3.000   7.398  11.874  0.5267  0.5419 -0.7266
 9616TIP3    H153043   2.991   7.311  11.836 -0.0558 -1.0616  2.6781
 9616TIP3    H253044   3.095   7.411  11.880  0.6290  0.7412 -2.3740
 9617TIP3   OH253045   2.002   6.012  12.136 -0.2244 -0.0711  0.3263
 9617TIP3    H153046   1.913   5.984  12.118 -0.1388  0.6671 -1.4107
 9617TIP3    H253047   2.054   5.974  12.066  0.2116  2.5451 -0.8952
 9618TIP3   OH253048   1.191   1.651  10.492  0.0527 -0.1892  0.4572
 9618TIP3    H153049   1.205   1.557  10.510 -0.1473 -0.3880 -0.3906
 9618TIP3    H253050   1.097   1.663  10.504  0.0617 -0.1179  0.4524
 9619TIP3   OH253051   1.386   2.826  12.150 -0.0587  0.0600  0.0813
 9619TIP3    H153052   1.365   2.737  12.179  2.3382 -1.0101 -1.2149
 9619TIP3    H253053   1.426   2.867  12.226 -1.3438  0.1192  0.7435
 9620TIP3   OH253054   0.725   0.422  12.118 -0.5027 -0.3295  0.0930
 9620TIP3    H153055   0.783   0.444  12.045  0.7848 -1.2789  0.7789
 9620TIP3    H253056   0.664   0.495  12.123 -0.0748  0.1718 -1.3763
 9621TIP3   OH253057   4.398   6.852  11.325  0.3943 -0.3470 -0.5754
 9621TIP3    H153058   4.422   6.901  11.403  0.9685 -0.7261 -0.5076
 9621TIP3    H253059   4.482   6.833  11.282  0.1819 -1.2252 -0.6164
 9622TIP3   OH253060   1.729   2.365  13.293  0.0766 -0.1496  0.1245
 9622TIP3    H153061   1.697   2.293  13.347 -0.4697 -0.5311 -0.6866
 9622TIP3    H253062   1.659   2.430  13.295  0.1477 -0.0695  0.0471
 9623TIP3   OH253063   0.746   4.650  10.403 -0.1632  0.3729 -0.0365
 9623TIP3    H153064   0.822   4.601  10.433  0.2310  1.3511  0.6051
 9623TIP3    H253065   0.733   4.718  10.469 -1.3334  0.4874 -0.3611
 9624TIP3   OH253066   1.106   7.040  11.153  0.4922  0.0558  0.4434
 9624TIP3    H153067   1.087   7.019  11.245 -0.3018  0.1571  0.3027
 9624TIP3    H253068   1.192   7.082  11.156  0.2652  0.4869  1.2032
 9625TIP3   OH253069   6.085   6.444  10.957  0.1270  0.3642  0.0150
 9625TIP3    H153070   6.101   6.451  11.052 -2.0256  0.7477  0.3897
 9625TIP3    H253071   6.173   6.438  10.919  1.0453  0.0110  2.0384
 9626TIP3   OH253072   3.805   4.081  11.400  0.1495  0.2228  0.6692
 9626TIP3    H153073   3.825   4.169  11.431  0.8800  0.1686  0.3762
 9626TIP3    H253074   3.822   4.024  11.476 -0.6870  0.3654  0.9735
 9627TIP3   OH253075   4.299   2.674  11.686 -0.0857 -0.5246  0.1583
 9627TIP3    H153076   4.330   2.642  11.601  0.2306 -0.9781  0.4436
 9627TIP3    H253077   4.233   2.610  11.713 -0.2144 -0.3585  0.2418
 9628TIP3   OH253078   3.379   0.117  12.087 -0.4617  0.2521 -0.3627
 9628TIP3    H153079   3.337   0.201  12.067 -2.2326 -0.3215  0.6522
 9628TIP3    H253080   3.306   0.056  12.096  0.7219 -1.1659 -0.0333
 9629TIP3   OH253081   6.569   1.058  12.184  0.0876 -0.0165 -0.6234
 9629TIP3    H153082   6.602   0.987  12.239  0.1450  0.1880 -0.3911
 9629TIP3    H253083   6.608   1.042  12.098 -0.7902 -0.8943 -0.8720
 9630TIP3   OH253084   6.216   4.170  11.352 -0.2345 -0.0667  0.3896
 9630TIP3    H153085   6.266   4.251  11.340 -2.0645  1.0377  0.0034
 9630TIP3    H253086   6.279   4.101  11.332  1.3964  1.2235  0.7998
 9631TIP3   OH253087   0.270   1.500  13.074 -0.0542 -0.0111  0.1378
 9631TIP3    H153088   0.230   1.561  13.012  1.1564  1.2389  0.5361
 9631TIP3    H253089   0.274   1.417  13.028  0.7024  0.8571 -1.4264
 9632TIP3   OH253090   1.286   6.163  11.853 -0.2694 -0.2253  0.0588
 9632TIP3    H153091   1.317   6.086  11.805 -1.2397  0.4253 -1.7008
 9632TIP3    H253092   1.358   6.225  11.848 -0.7131  0.2001 -1.4583
 9633TIP3   OH253093   7.470   6.866  12.097  0.5931  0.2813  0.0077
 9633TIP3    H153094   7.534   6.898  12.034 -1.6572 -0.7941 -3.0992
 9633TIP3    H253095   7.392   6.919  12.082 -1.3520 -2.6788 -1.2309
 9634TIP3   OH253096   1.557   5.955  11.844  0.2912  0.0837  0.6609
 9634TIP3    H153097   1.548   6.038  11.796 -1.8432  0.1020  1.0098
 9634TIP3    H253098   1.528   5.888  11.782  2.4554 -0.5471  0.2122
 9635TIP3   OH253099   3.757   0.823  12.604  0.1149  0.3998 -0.1587
 9635TIP3    H153100   3.723   0.911  12.617  1.1372  0.4763  2.8317
 9635TIP3    H253101   3.850   0.836  12.586  0.4404 -0.0231  1.0890
 9636TIP3   OH253102   7.115   3.596  10.961 -0.4592  0.7951  0.3245
 9636TIP3    H153103   7.198   3.600  10.914 -0.0290  1.5537  1.1335
 9636TIP3    H253104   7.062   3.533  10.911 -0.2232  1.9703 -1.4732
 9637TIP3   OH253105   5.745   0.872  12.974  0.1299  0.7722  0.3925
 9637TIP3    H153106   5.748   0.960  12.936 -2.5912  0.7428 -0.0584
 9637TIP3    H253107   5.652   0.854  12.987  0.6424 -1.7994  1.0915
 9638TIP3   OH253108   2.747   4.952  11.925  0.1995  0.4708 -0.4781
 9638TIP3    H153109   2.825   4.908  11.893  0.2379 -0.3408  0.6727
 9638TIP3    H253110   2.676   4.919  11.870  0.8196  2.2193 -2.4107
 9639TIP3   OH253111   0.132   3.146  11.064  0.0013 -0.5332  0.1357
 9639TIP3    H153112   0.144   3.209  10.993 -0.7466 -1.2075 -0.6120
 9639TIP3    H253113   0.214   3.148  11.113  0.2683  0.4479 -0.3368
 9640TIP3   OH253114   3.996   0.656  12.341 -1.2087 -0.2960  0.2049
 9640TIP3    H153115   3.958   0.708  12.270 -1.2661 -0.5116  0.0753
 9640TIP3    H253116   3.986   0.710  12.419  1.1081  1.0285 -0.3337
 9641TIP3   OH253117   1.310   1.902  10.397 -0.0475  0.3829 -0.1058
 9641TIP3    H153118   1.388   1.873  10.445 -1.2377 -0.2163  1.5401
 9641TIP3    H253119   1.256   1.824  10.390 -1.3913  1.2234  0.5643
 9642TIP3   OH253120   0.910   0.707  10.884 -0.0401  0.1936 -0.6704
 9642TIP3    H153121   0.822   0.745  10.882 -0.6821 -1.2394 -2.3987
 9642TIP3    H253122   0.948   0.732  10.800  1.4347  1.1904  0.2402
 9643TIP3   OH253123   0.349   1.404  11.810  0.2380 -0.0194  0.3168
 9643TIP3    H153124   0.391   1.339  11.866 -0.0722  0.6290  1.3325
 9643TIP3    H253125   0.334   1.359  11.728 -0.4448 -1.4114  1.1656
 9644TIP3   OH253126   0.937   4.148  11.524  0.2738 -0.3309  0.3199
 9644TIP3    H153127   0.960   4.124  11.614 -0.6958 -2.3537  0.0836
 9644TIP3    H253128   0.860   4.204  11.532 -0.3114 -1.1757  0.7443
 9645TIP3   OH253129   1.890   4.016  11.646 -0.0670  0.2802 -0.1407
 9645TIP3    H153130   1.819   4.000  11.708 -1.9806  0.2243 -2.1838
 9645TIP3    H253131   1.845   4.043  11.565  2.2601  0.2229 -1.5551
 9646TIP3   OH253132   5.228   0.489  11.002 -0.1170  0.1314 -0.3852
 9646TIP3    H153133   5.144   0.464  10.965  0.1902 -0.2936 -0.8102
 9646TIP3    H253134   5.258   0.561  10.946 -0.2939  0.4334 -0.0982
 9647TIP3   OH253135   1.068   4.222  11.141  0.4085 -0.3809 -0.0847
 9647TIP3    H153136   0.991   4.248  11.192  0.8620 -0.1121  0.4827
 9647TIP3    H253137   1.107   4.150  11.190  1.8515  1.0364  0.9499
 9648TIP3   OH253138   2.183   2.037  11.739  0.3739 -0.3623  0.2829
 9648TIP3    H153139   2.267   2.065  11.776 -0.7217  0.6683  2.1723
 9648TIP3    H253140   2.118   2.071  11.801 -1.3948 -1.8578 -0.6799
 9649TIP3   OH253141   7.131   1.435  11.457  0.3553  0.0545 -0.1521
 9649TIP3    H153142   7.094   1.504  11.512  2.4577  0.7812  0.4498
 9649TIP3    H253143   7.096   1.354  11.494 -0.1028  0.6551  0.7824
 9650TIP3   OH253144   7.058   3.719  13.639  0.2713 -0.2579  0.0522
 9650TIP3    H153145   6.993   3.748  13.704 -1.0907 -1.5629 -0.6560
 9650TIP3    H253146   7.102   3.799  13.611 -1.3647  0.7529  0.2248
 9651TIP3   OH253147   7.133   4.506  10.965  0.1452 -0.1317 -0.1956
 9651TIP3    H153148   7.173   4.522  10.880 -0.0949 -2.5284 -0.8361
 9651TIP3    H253149   7.162   4.418  10.988 -2.5410 -0.8787  0.5986
 9652TIP3   OH253150   7.111   5.462  13.968  0.1867 -0.0829  0.5954
 9652TIP3    H153151   7.083   5.550  13.942 -1.1997 -0.0630  2.0332
 9652TIP3    H253152   7.194   5.476  14.015 -0.1547  0.4968  1.0423
 9653TIP3   OH253153   7.417   7.058  11.207 -0.0338 -0.0120  0.0477
 9653TIP3    H153154   7.424   7.145  11.247 -0.9014 -0.1810  0.5923
 9653TIP3    H253155   7.325   7.050  11.182  0.4028 -0.0708 -1.6584
 9654TIP3   OH253156   2.419   5.656  12.432 -0.0024 -0.0737  0.0840
 9654TIP3    H153157   2.437   5.730  12.490 -1.9727 -1.6274  2.9441
 9654TIP3    H253158   2.339   5.680  12.386 -0.6968 -0.3884  1.0844
 9655TIP3   OH253159   4.082   0.513  12.729 -0.1882  0.2354  0.1714
 9655TIP3    H153160   4.081   0.608  12.721 -2.0152  0.3161  0.8281
 9655TIP3    H253161   4.141   0.483  12.659  1.5761  1.8823  0.8955
 9656TIP3   OH253162   0.288   2.236  11.660  0.8249  0.8363 -0.4114
 9656TIP3    H153163   0.203   2.192  11.655  1.0373  0.5237 -1.6632
 9656TIP3    H253164   0.348   2.176  11.616  2.1135  0.1332  2.1293
 9657TIP3   OH253165   0.431   6.943  11.930 -0.4526 -0.6877 -0.0079
 9657TIP3    H153166   0.507   6.899  11.967 -0.5824 -1.6845 -0.8781
 9657TIP3    H253167   0.448   7.037  11.943  0.4457 -0.9421  0.6909
 9658TIP3   OH253168   5.423   3.821  10.418 -0.1961 -0.4064  0.0193
 9658TIP3    H153169   5.491   3.871  10.464 -0.9989  1.6498 -0.8846
 9658TIP3    H253170   5.346   3.828  10.475 -0.5346  0.1031 -0.4896
 9659TIP3   OH253171   6.265   2.094  11.246  0.0497  0.0138 -0.2627
 9659TIP3    H153172   6.355   2.063  11.234  0.8822  1.6149  1.2900
 9659TIP3    H253173   6.216   2.016  11.273  1.1895 -0.7149 -0.2319
 9660TIP3   OH253174   4.982   7.069  12.369 -0.3638 -0.5112  0.0215
 9660TIP3    H153175   4.939   7.009  12.430 -1.9511  0.4997 -0.0467
 9660TIP3    H253176   4.920   7.077  12.296  0.7039 -0.2948 -0.8915
 9661TIP3   OH253177   7.225   2.726  12.705 -0.2869 -0.8663  0.0131
 9661TIP3    H153178   7.135   2.724  12.674 -0.2789 -1.1480  0.0107
 9661TIP3    H253179   7.241   2.639  12.740 -0.7461 -0.1737  2.1130
 9662TIP3   OH253180   6.409   3.382  11.150 -0.4801  0.0346  0.2119
 9662TIP3    H153181   6.347   3.412  11.217 -2.6557  0.6905 -1.9703
 9662TIP3    H253182   6.380   3.293  11.129 -0.6303  0.3099 -0.7608
 9663TIP3   OH253183   1.601   1.608  10.595  0.4741  0.2779  0.2615
 9663TIP3    H153184   1.613   1.663  10.517 -0.3417 -1.1723 -0.9269
 9663TIP3    H253185   1.563   1.667  10.660  1.4566  1.5944 -0.3061
 9664TIP3   OH253186   0.730   5.128  11.926  0.0200 -0.3821  0.5275
 9664TIP3    H153187   0.737   5.213  11.968 -1.3301  0.2079 -0.3586
 9664TIP3    H253188   0.649   5.091  11.959 -0.2352 -0.6016 -0.3163
 9665TIP3   OH253189   3.873   6.878  11.126  0.3587  0.8388 -0.3395
 9665TIP3    H153190   3.967   6.882  11.111  0.6329 -2.5081 -0.2455
 9665TIP3    H253191   3.836   6.863  11.039  0.1838 -0.2343 -0.0959
 9666TIP3   OH253192   6.277   4.581  12.375  0.2464 -0.2580 -0.2741
 9666TIP3    H153193   6.295   4.635  12.452  1.8561  0.2407 -0.9706
 9666TIP3    H253194   6.336   4.507  12.383  1.3314  0.4272 -1.6413
 9667TIP3   OH253195   0.042   5.468  12.893 -0.0827  0.3621 -0.1899
 9667TIP3    H153196   0.068   5.488  12.983  0.9657  0.5410 -0.5241
 9667TIP3    H253197  -0.034   5.411  12.903  0.5455 -0.3415  0.8328
 9668TIP3   OH253198   1.925   3.456  10.577 -0.4661 -0.3233 -0.0425
 9668TIP3    H153199   2.016   3.430  10.567 -1.4315 -4.4630  0.1525
 9668TIP3    H253200   1.900   3.424  10.664 -2.2534  0.2473 -0.2939
 9669TIP3   OH253201   5.744   1.871  11.250 -0.2420 -0.0927  0.2797
 9669TIP3    H153202   5.697   1.788  11.238 -1.1035  0.5889 -1.3482
 9669TIP3    H253203   5.787   1.887  11.166  1.4942  0.1951  1.1739
 9670TIP3   OH253204   2.109   1.550  12.683  0.2174  0.3551 -0.3302
 9670TIP3    H153205   2.036   1.604  12.710  1.1430  0.9608  1.0642
 9670TIP3    H253206   2.185   1.607  12.688  0.8466 -0.3254 -1.5058
 9671TIP3   OH253207   2.897   7.659  12.779  0.1316  0.1760 -0.2062
 9671TIP3    H153208   2.934   7.599  12.845  0.0041  1.2321  0.8611
 9671TIP3    H253209   2.821   7.698  12.822 -0.7224 -0.0341 -1.4552
 9672TIP3   OH253210   1.077   3.701  10.502 -0.1270  0.3262  0.1273
 9672TIP3    H153211   1.040   3.719  10.416 -1.9538 -1.4667  0.4588
 9672TIP3    H253212   1.153   3.758  10.508 -0.7283  1.4694 -2.1190
 9673TIP3   OH253213   6.041   6.753  12.562  0.4318 -0.7537 -0.2073
 9673TIP3    H153214   6.002   6.752  12.649  1.2831  0.1072  0.1970
 9673TIP3    H253215   6.071   6.843  12.549 -0.2362 -0.6998 -1.6498
 9674TIP3   OH253216   3.580   5.219  10.879  0.5434 -0.0343 -0.7339
 9674TIP3    H153217   3.504   5.251  10.831  0.0868  0.3393  0.1930
 9674TIP3    H253218   3.651   5.278  10.854  0.3586  0.0461 -1.0789
 9675TIP3   OH253219   4.823   2.561  13.010  0.0932 -0.4513  0.1896
 9675TIP3    H153220   4.793   2.569  13.100 -0.9225 -1.5435 -0.0199
 9675TIP3    H253221   4.752   2.513  12.966  0.7242 -0.2353 -1.1013
 9676TIP3   OH253222   6.952   0.565  10.403 -0.4402 -0.2831 -0.4761
 9676TIP3    H153223   6.878   0.509  10.380 -1.2238  0.8737 -0.8802
 9676TIP3    H253224   6.928   0.651  10.369  1.1094  0.1168 -0.6145
 9677TIP3   OH253225   1.305   2.463  13.162 -0.0272 -0.2497  0.2673
 9677TIP3    H153226   1.253   2.523  13.109 -0.6791 -1.4410 -0.4828
 9677TIP3    H253227   1.247   2.388  13.178  0.2752 -0.0846  2.3843
 9678TIP3   OH253228   6.287   3.502  13.324  0.3369  0.0361  0.7261
 9678TIP3    H153229   6.354   3.525  13.388  1.4071 -2.2696  0.5322
 9678TIP3    H253230   6.322   3.533  13.240  1.7392 -2.0486  0.4708
 9679TIP3   OH253231   3.592   2.934  12.316  0.2361  0.0514  0.2561
 9679TIP3    H153232   3.595   2.999  12.386 -0.2982 -0.5495  0.8440
 9679TIP3    H253233   3.655   2.867  12.341 -1.7830 -1.4828  1.5222
 9680TIP3   OH253234   3.093   1.843  11.684 -0.4448  0.3660 -0.3234
 9680TIP3    H153235   3.102   1.909  11.615 -0.1212  1.6585  0.8799
 9680TIP3    H253236   3.122   1.889  11.764 -0.6460 -1.1114  0.6367
 9681TIP3   OH253237   5.581   4.552  10.654  0.1877  0.2480  0.0597
 9681TIP3    H153238   5.598   4.459  10.641 -1.2940  0.0219 -0.4320
 9681TIP3    H253239   5.623   4.573  10.737 -0.1310 -1.0498  0.5665
 9682TIP3   OH253240   1.634   3.353  12.802 -0.1379 -0.2718  0.3975
 9682TIP3    H153241   1.627   3.295  12.877  0.1960  1.1215  1.5498
 9682TIP3    H253242   1.670   3.298  12.732  4.3699 -0.6209  2.6198
 9683TIP3   OH253243   6.048   3.513  10.233  0.6405 -0.4667 -0.2199
 9683TIP3    H153244   6.074   3.548  10.148 -0.3620  1.0338  0.0502
 9683TIP3    H253245   5.954   3.496  10.225  0.3498  0.5032  0.8176
 9684TIP3   OH253246   3.001   5.964  11.338  0.2604 -0.8072 -0.0379
 9684TIP3    H153247   3.055   5.953  11.416  0.2229  0.2371  0.1546
 9684TIP3    H253248   3.022   6.053  11.307 -0.3595 -0.8918 -0.7166
 9685TIP3   OH253249   1.210   3.248  12.447  0.3309 -0.4040 -0.5407
 9685TIP3    H153250   1.259   3.209  12.374  0.5223  0.1961 -0.7426
 9685TIP3    H253251   1.276   3.293  12.499  0.0307  0.2762 -0.7262
 9686TIP3   OH253252   4.865   7.250  10.874 -0.5203  0.3225 -0.4426
 9686TIP3    H153253   4.802   7.281  10.809 -2.7785  1.8701  2.2668
 9686TIP3    H253254   4.825   7.172  10.912 -0.5832  0.9932  0.9185
 9687TIP3   OH253255   3.757   1.869  11.153  0.2797  0.4962 -0.2211
 9687TIP3    H153256   3.776   1.827  11.237 -0.0401 -0.5140 -0.6358
 9687TIP3    H253257   3.745   1.962  11.175  0.4498  0.2916  0.8059
 9688TIP3   OH253258   2.392   7.429  11.329 -0.0639  0.2912  0.2002
 9688TIP3    H153259   2.356   7.341  11.337 -0.0975  0.4345  2.2405
 9688TIP3    H253260   2.342   7.470  11.258 -0.0947 -1.2860 -0.7227
 9689TIP3   OH253261   5.389   2.248  11.735 -0.2098 -0.2865  0.0012
 9689TIP3    H153262   5.452   2.199  11.682  1.4547  0.0705  1.5457
 9689TIP3    H253263   5.305   2.206  11.718  0.9325 -2.8539  0.2954
 9690TIP3   OH253264   5.291   1.604  12.867 -0.4347 -0.0480 -0.1348
 9690TIP3    H153265   5.312   1.606  12.960  0.3007 -0.1333 -0.2926
 9690TIP3    H253266   5.314   1.516  12.839  0.8622  0.4607 -0.7304
 9691TIP3   OH253267   6.021   4.013  13.012 -0.5132 -0.1836 -0.5713
 9691TIP3    H153268   5.952   4.053  13.064 -1.0321 -1.6304 -0.0702
 9691TIP3    H253269   5.982   4.001  12.926 -0.0926  1.0516 -0.9478
 9692TIP3   OH253270   3.491   7.426  12.238 -0.4440  0.0036  0.3443
 9692TIP3    H153271   3.511   7.511  12.276 -0.7224 -0.1549  0.8565
 9692TIP3    H253272   3.466   7.371  12.313 -3.1547  0.2900 -0.2281
 9693TIP3   OH253273   4.667   1.619  11.936 -0.1111 -0.0570 -0.8079
 9693TIP3    H153274   4.740   1.674  11.966  0.9002 -0.5878 -2.2112
 9693TIP3    H253275   4.688   1.598  11.845 -1.3378 -1.3578 -0.8253
 9694TIP3   OH253276   3.703   1.162  12.046  0.0665  0.0935 -0.0580
 9694TIP3    H153277   3.786   1.210  12.036 -0.8288  1.7932  0.2274
 9694TIP3    H253278   3.650   1.190  11.971  0.3751 -2.4858 -1.3620
 9695TIP3   OH253279   2.193   3.750  11.496  0.0001  0.2805  0.2855
 9695TIP3    H153280   2.158   3.762  11.408  0.9272 -0.6473 -0.2225
 9695TIP3    H253281   2.192   3.655  11.509  1.8921  0.2492  0.4158
 9696TIP3   OH253282   5.438   1.855  11.757  0.4878  0.3606  0.2748
 9696TIP3    H153283   5.494   1.827  11.830  0.4513  0.7575  0.4584
 9696TIP3    H253284   5.480   1.934  11.723 -0.3201  1.0547  0.8539
 9697TIP3   OH253285   3.423   5.322  12.076  0.2259  0.8336  0.5281
 9697TIP3    H153286   3.451   5.357  12.161  0.8172  1.0183  0.2619
 9697TIP3    H253287   3.409   5.400  12.022 -1.0654  0.7626  0.7232
 9698TIP3   OH253288   3.378   6.685  12.622 -0.0265  0.9816  0.0819
 9698TIP3    H153289   3.373   6.743  12.697 -0.4816  0.9654  0.0688
 9698TIP3    H253290   3.470   6.686  12.596 -0.0839  1.9582 -0.1212
 9699TIP3   OH253291   1.520   0.793  11.191 -0.4266  0.7667 -0.3221
 9699TIP3    H153292   1.486   0.779  11.279  0.7498  1.4764  0.2540
 9699TIP3    H253293   1.543   0.705  11.161  1.9101  0.7768  1.2286
 9700TIP3   OH253294   0.365   2.908  11.053 -0.1652  0.1733  0.7570
 9700TIP3    H153295   0.372   2.977  10.986 -1.6377  0.9487  1.3575
 9700TIP3    H253296   0.456   2.891  11.078  0.3165  0.9912 -0.3036
 9701TIP3   OH253297   7.553   2.721  12.238  0.2680 -0.4016 -0.0934
 9701TIP3    H153298   7.562   2.808  12.201  0.0612 -0.4481 -0.2606
 9701TIP3    H253299   7.458   2.706  12.241  0.3073 -0.6997 -0.2591
 9702TIP3   OH253300   0.929   7.332  10.968 -0.0905  0.0250 -0.0985
 9702TIP3    H153301   1.006   7.285  10.937 -0.6246 -1.6911  1.0338
 9702TIP3    H253302   0.925   7.410  10.913  1.5264 -0.6426 -1.2486
 9703TIP3   OH253303   6.629   2.537  11.574 -0.1536  0.1795  0.2765
 9703TIP3    H153304   6.643   2.613  11.518  0.0245  1.0415  1.4315
 9703TIP3    H253305   6.550   2.496  11.540  0.3864  0.2006 -1.0717
 9704TIP3   OH253306   4.335   1.584  10.506 -0.0932  0.8803  0.1733
 9704TIP3    H153307   4.423   1.601  10.470  0.9086 -2.3204  0.7828
 9704TIP3    H253308   4.336   1.625  10.592  0.7726  1.0217  0.1048
 9705TIP3   OH253309   4.825   2.200  10.966 -0.2176  0.2380  0.1756
 9705TIP3    H153310   4.754   2.165  10.911 -1.3066  1.5964  0.6424
 9705TIP3    H253311   4.830   2.292  10.942  0.9249  0.3186  0.6723
 9706TIP3   OH253312   2.689   0.143  11.092  0.2941 -0.5883  0.1835
 9706TIP3    H153313   2.609   0.182  11.056  0.3473 -0.4768  0.1846
 9706TIP3    H253314   2.689   0.053  11.059  0.2388 -0.5476  0.0717
 9707TIP3   OH253315   0.786   1.110  11.762  0.3838 -0.3215 -0.1287
 9707TIP3    H153316   0.704   1.083  11.721 -0.4420 -0.5501  1.5891
 9707TIP3    H253317   0.779   1.205  11.771  0.5333 -0.2800 -0.4322
 9708TIP3   OH253318   4.178   3.579  13.040  0.3367  0.2527  0.0093
 9708TIP3    H153319   4.136   3.575  12.954  0.9121  0.7065 -0.2999
 9708TIP3    H253320   4.183   3.672  13.061 -0.8912  0.1162  1.1028
 9709TIP3   OH253321   0.027   1.711  11.125  0.6617  0.0760 -0.4198
 9709TIP3    H153322   0.034   1.674  11.037 -0.6071 -3.3930  0.7760
 9709TIP3    H253323  -0.066   1.735  11.133  0.8814  0.8813 -0.1634
 9710TIP3   OH253324   4.319   2.980  11.942  0.0539  0.2673 -0.4329
 9710TIP3    H153325   4.267   3.045  11.989  0.7143  0.0296  0.6770
 9710TIP3    H253326   4.401   3.025  11.921 -0.1795  0.3226 -1.2293
 9711TIP3   OH253327   7.671   3.533  11.612  0.2684 -0.0323 -0.1951
 9711TIP3    H153328   7.749   3.588  11.624  0.1360  0.7214 -2.2928
 9711TIP3    H253329   7.700   3.462  11.555  0.6379 -2.7809  3.1064
 9712TIP3   OH253330   3.296   0.733  10.807  0.0495  0.4392  0.7136
 9712TIP3    H153331   3.287   0.640  10.828 -0.7465  0.0066 -1.2750
 9712TIP3    H253332   3.383   0.739  10.766 -0.2711  0.3703  0.0060
 9713TIP3   OH253333   3.254   0.695  11.702  0.1196  0.7087  0.2572
 9713TIP3    H153334   3.180   0.639  11.728  0.1215  0.5126 -0.1450
 9713TIP3    H253335   3.254   0.766  11.766  0.5184 -0.0930  1.1699
 9714TIP3   OH253336   3.953   5.182  12.958 -0.0034  0.4216 -0.1501
 9714TIP3    H153337   4.031   5.228  12.988  1.0138  1.0595 -3.3403
 9714TIP3    H253338   3.975   5.090  12.965  1.3025  0.5956 -1.4304
 9715TIP3   OH253339   2.842   1.764  11.622  0.2666  0.5242  0.1724
 9715TIP3    H153340   2.854   1.724  11.536 -1.3455 -0.2158  0.2632
 9715TIP3    H253341   2.930   1.790  11.649  0.5356  3.9832 -3.1931
 9716TIP3   OH253342   2.885   1.072  12.243 -0.4672 -0.2055 -0.0324
 9716TIP3    H153343   2.953   1.005  12.228  0.6927  1.1365 -1.0747
 9716TIP3    H253344   2.917   1.121  12.318 -0.1218  0.5827 -0.6758
 9717TIP3   OH253345   2.158   2.411  12.242 -0.0345  0.2357  0.7297
 9717TIP3    H153346   2.241   2.369  12.265 -0.6061 -0.7024  1.1965
 9717TIP3    H253347   2.105   2.340  12.206 -0.1627  1.1105 -0.8574
 9718TIP3   OH253348   4.829   3.562  12.085 -0.7824  0.0469 -0.3030
 9718TIP3    H153349   4.781   3.488  12.047 -1.2852  0.4571 -0.4801
 9718TIP3    H253350   4.834   3.626  12.014  0.6568 -0.2709 -0.5094
 9719TIP3   OH253351   5.118   1.936  12.902 -0.3637 -0.1746  0.3142
 9719TIP3    H153352   5.159   2.002  12.957 -1.7878  0.3214  0.8306
 9719TIP3    H253353   5.183   1.867  12.895  0.8136  0.8679  0.5206
 9720TIP3   OH253354   5.450   7.608  11.961 -0.3481  0.1795  0.2605
 9720TIP3    H153355   5.542   7.606  11.987  0.2750  1.0590 -1.7301
 9720TIP3    H253356   5.442   7.684  11.904 -2.1943 -0.2127 -0.0809
 9721TIP3   OH253357   3.437   1.955  11.077 -0.0196 -0.4322  0.1286
 9721TIP3    H153358   3.459   2.011  11.151 -0.1884  0.7735 -0.7118
 9721TIP3    H253359   3.387   1.883  11.116  0.2770 -0.0558  1.2412
 9722TIP3   OH253360   2.915   1.335  10.966  0.0816 -0.2675 -0.0131
 9722TIP3    H153361   2.951   1.347  11.053 -0.7073 -0.5141  0.3611
 9722TIP3    H253362   2.832   1.288  10.981 -1.1694  1.6087 -0.6730
 9723TIP3   OH253363   4.114   2.417  11.741  0.2431  0.3019 -0.5343
 9723TIP3    H153364   4.047   2.482  11.721 -2.0766 -1.8450 -0.2761
 9723TIP3    H253365   4.123   2.421  11.836 -1.2753 -0.9020 -0.2933
 9724TIP3   OH253366   3.676   3.832  11.099 -0.2563  0.0735 -0.1332
 9724TIP3    H153367   3.695   3.800  11.011  0.7041 -1.9040  0.7475
 9724TIP3    H253368   3.593   3.791  11.123  0.7690 -1.5199  0.8391
 9725TIP3   OH253369   3.277   2.863  10.849 -0.2190 -0.7400  0.1065
 9725TIP3    H153370   3.192   2.903  10.827 -0.5448 -1.9899 -1.0609
 9725TIP3    H253371   3.292   2.889  10.940 -0.1624  2.3881 -0.6743
 9726TIP3   OH253372   4.548   7.077  11.240  0.0042  0.1837  0.3538
 9726TIP3    H153373   4.497   7.060  11.319 -0.2509 -1.3980 -0.0997
 9726TIP3    H253374   4.526   7.166  11.215 -0.6914  0.3489  1.5036
 9727TIP3   OH253375   6.138   0.259  12.703  0.4296 -0.3137  0.0282
 9727TIP3    H153376   6.086   0.182  12.679  1.3820 -1.9053  2.5895
 9727TIP3    H253377   6.227   0.224  12.716  1.8363  1.9645 -2.3781
 9728TIP3   OH253378   2.944   5.435  11.750 -0.3621  0.5878 -0.1911
 9728TIP3    H153379   2.889   5.424  11.827  0.5179 -2.8012  0.1117
 9728TIP3    H253380   2.956   5.346  11.716  1.5370  1.6580 -2.6518
 9729TIP3   OH253381   1.978   6.050  12.823 -0.2273 -0.7026  0.0115
 9729TIP3    H153382   2.026   6.054  12.741  0.3637 -2.0379  0.2597
 9729TIP3    H253383   1.977   5.957  12.846  1.1832 -0.2408  2.3833
 9730TIP3   OH253384   7.385   2.852  11.282  0.3091 -0.1843 -0.1002
 9730TIP3    H153385   7.453   2.795  11.318  0.8752  0.5500  0.0095
 9730TIP3    H253386   7.407   2.939  11.314 -1.1123 -0.0413  0.5451
 9731TIP3   OH253387   3.648   4.560  11.397 -0.4108 -0.1903 -0.2181
 9731TIP3    H153388   3.567   4.524  11.359 -1.0225  1.5830 -0.6770
 9731TIP3    H253389   3.655   4.517  11.482 -1.4743 -0.8764 -0.4550
 9732TIP3   OH253390   2.711   3.369  10.746  0.3357  0.0150  0.1128
 9732TIP3    H153391   2.747   3.436  10.688  2.4587 -0.2168  1.0919
 9732TIP3    H253392   2.674   3.418  10.820 -0.3194  0.1892 -0.3175
 9733TIP3   OH253393   7.490   5.046  11.880  0.0983 -0.3955 -0.6478
 9733TIP3    H153394   7.502   4.951  11.875 -0.8843 -0.7178  1.6519
 9733TIP3    H253395   7.410   5.057  11.932  0.4402  1.6886 -0.4762
 9734TIP3   OH253396   5.561   6.136  13.277  0.4570  0.1364  0.4964
 9734TIP3    H153397   5.520   6.060  13.318  0.8757  0.0493  0.7686
 9734TIP3    H253398   5.645   6.103  13.244  0.9256  0.6140  1.1761
 9735TIP3   OH253399   2.249   2.374  11.671  0.0579  0.2239  0.1657
 9735TIP3    H153400   2.310   2.310  11.706 -0.7015  0.7998  2.7710
 9735TIP3    H253401   2.211   2.416  11.749 -1.6449  1.7539 -1.3942
 9736TIP3   OH253402   2.561   5.166  12.487  0.6202  0.1919  0.3477
 9736TIP3    H153403   2.563   5.232  12.556 -0.4170  1.2725 -0.6303
 9736TIP3    H253404   2.518   5.208  12.413 -0.9351 -1.8336 -0.0176
 9737TIP3   OH253405   6.762   7.221  12.524  0.1059  0.2478  0.3232
 9737TIP3    H153406   6.685   7.192  12.573 -0.0993 -0.6117 -0.4802
 9737TIP3    H253407   6.730   7.234  12.434  0.8503  0.1091  0.0333
 9738TIP3   OH253408   3.748   7.619  11.767  0.2002 -0.7180  0.4542
 9738TIP3    H153409   3.653   7.629  11.760  0.3317  1.3012  0.8671
 9738TIP3    H253410   3.782   7.649  11.683  0.5246 -0.0278  0.8180
 9739TIP3   OH253411   0.735   0.605  12.901 -0.1301  0.3150  0.3360
 9739TIP3    H153412   0.823   0.566  12.901 -0.4332 -0.3830  0.0699
 9739TIP3    H253413   0.727   0.644  12.988  0.8297  1.3016  0.0095
 9740TIP3   OH253414   3.164   3.635  11.866 -0.0384  0.1962  0.4919
 9740TIP3    H153415   3.075   3.667  11.877 -0.6786 -1.8640  1.7974
 9740TIP3    H253416   3.161   3.579  11.789 -0.0955 -0.5353  1.0161
 9741TIP3   OH253417   7.374   6.775  12.674 -0.2127  0.0075 -0.0368
 9741TIP3    H153418   7.350   6.864  12.699  0.6233  1.1094 -2.7625
 9741TIP3    H253419   7.464   6.782  12.643 -0.5846 -1.4586 -1.6140
 9742TIP3   OH253420   4.754   4.061  10.872  0.3286 -0.5753 -0.3501
 9742TIP3    H153421   4.674   4.030  10.829 -2.0173  1.4161  2.1971
 9742TIP3    H253422   4.764   4.003  10.947  1.2772 -0.7827 -0.6347
 9743TIP3   OH253423   2.232   6.957  12.882 -0.8462 -0.1709  0.2791
 9743TIP3    H153424   2.282   6.928  12.806  1.1963 -1.3087  1.9487
 9743TIP3    H253425   2.250   7.051  12.889  0.2381 -0.3591  0.2177
 9744TIP3   OH253426   3.606   3.647  13.040  0.1614  0.1661 -0.1768
 9744TIP3    H153427   3.518   3.681  13.025 -0.1396  0.1466  1.3890
 9744TIP3    H253428   3.603   3.557  13.008 -1.0267 -0.5158  1.7394
 9745TIP3   OH253429   7.236   3.186  12.769 -0.3221 -0.3394 -0.3052
 9745TIP3    H153430   7.250   3.118  12.704  0.1347  0.6888 -1.3306
 9745TIP3    H253431   7.324   3.211  12.798 -0.5160 -0.7592  0.7160
 9746TIP3   OH253432   5.084   4.727  10.900 -0.2274 -0.5194  0.4487
 9746TIP3    H153433   5.143   4.707  10.973  0.6934 -1.1935 -0.4558
 9746TIP3    H253434   5.114   4.671  10.829 -1.1925  0.0335 -0.4195
 9747TIP3   OH253435   6.030   6.027  11.574 -0.0593  0.5135 -0.0403
 9747TIP3    H153436   6.110   6.073  11.599 -0.8207  1.4597  0.7303
 9747TIP3    H253437   5.979   6.022  11.655 -1.5002  1.3974 -0.8464
 9748TIP3   OH253438   4.464   0.159  12.958  0.2244  0.9526 -0.1456
 9748TIP3    H153439   4.380   0.140  12.914  0.5090  1.4430 -0.9233
 9748TIP3    H253440   4.506   0.224  12.902  1.0442  0.8600  0.3491
 9749TIP3   OH253441   4.514   0.372  12.595  0.3214 -0.2934 -0.1396
 9749TIP3    H153442   4.607   0.362  12.576  0.4200 -0.5776  0.4599
 9749TIP3    H253443   4.511   0.392  12.689 -0.2961 -1.6717  0.1500
 9750TIP3   OH253444   5.721   3.992  13.398  0.0270  0.4422  0.0446
 9750TIP3    H153445   5.678   3.946  13.326  0.4236  2.3281 -1.4735
 9750TIP3    H253446   5.775   3.925  13.441 -1.1250 -0.9787 -0.6565
 9751TIP3   OH253447   6.963   6.980  10.701 -0.0322  0.2097 -0.2495
 9751TIP3    H153448   7.028   6.912  10.684  0.1780 -0.3149  2.2358
 9751TIP3    H253449   6.999   7.058  10.659  1.0331 -0.6038 -0.9093
 9752TIP3   OH253450   6.557   3.536  13.451 -0.0967  0.1631 -0.2597
 9752TIP3    H153451   6.577   3.448  13.482 -0.5175  0.4887  1.0231
 9752TIP3    H253452   6.573   3.593  13.527 -2.1883  0.8770 -0.2659
 9753TIP3   OH253453   3.341   0.462  11.786  0.2334 -0.4088  0.4454
 9753TIP3    H153454   3.395   0.486  11.861 -1.8728  0.3093  1.8069
 9753TIP3    H253455   3.323   0.545  11.742 -1.5440 -0.3030  1.2994
 9754TIP3   OH253456   3.044   6.229  12.562  0.3461  0.0047 -0.4695
 9754TIP3    H153457   3.133   6.246  12.594 -0.2010  0.2988  0.9613
 9754TIP3    H253458   3.016   6.313  12.525  0.4025  0.1159 -0.2637
 9755TIP3   OH253459   4.385   7.378  12.491  0.3396 -0.0837  0.1299
 9755TIP3    H153460   4.346   7.465  12.504  1.2060  0.3407 -0.0699
 9755TIP3    H253461   4.386   7.340  12.579 -0.9048 -0.2731  0.0780
 9756TIP3   OH253462   7.120   0.416  10.567 -0.7960  0.0330  0.1226
 9756TIP3    H153463   7.174   0.487  10.600 -0.8295 -0.3397  0.9941
 9756TIP3    H253464   7.056   0.459  10.509 -0.5207  0.6476  0.2739
 9757TIP3   OH253465   3.657   0.387  10.514 -0.9499  0.2428  0.4571
 9757TIP3    H153466   3.740   0.434  10.522 -0.5593 -0.5851  1.5287
 9757TIP3    H253467   3.602   0.444  10.460  1.0309 -0.1614 -2.1613
 9758TIP3   OH253468   1.839   2.998  12.582  0.7439 -0.2422  0.1995
 9758TIP3    H153469   1.908   2.981  12.646  0.2396  0.8649  1.0755
 9758TIP3    H253470   1.853   2.932  12.514 -0.1511 -3.0977  2.5505
 9759TIP3   OH253471   0.536   2.004  10.573 -0.2468  0.1128  0.5973
 9759TIP3    H153472   0.488   2.068  10.522  0.9112  1.2702  0.9079
 9759TIP3    H253473   0.518   1.920  10.530 -0.5456  0.8480 -0.7634
 9760TIP3   OH253474   5.017   7.056  11.338  0.0506 -0.3876 -0.5970
 9760TIP3    H153475   4.927   7.062  11.371  0.5063  2.0824  0.3923
 9760TIP3    H253476   5.068   7.030  11.414  0.1021 -3.1381 -1.4584
 9761TIP3   OH253477   3.856   3.101  12.128  0.0827  0.3010 -0.0662
 9761TIP3    H153478   3.775   3.075  12.084 -0.4834  1.9963 -0.1072
 9761TIP3    H253479   3.874   3.030  12.189 -1.3808 -0.1606 -0.1336
 9762TIP3   OH253480   6.762   0.775  10.433 -0.6425 -0.6104  0.1326
 9762TIP3    H153481   6.741   0.684  10.414 -1.8505 -0.4939  0.8539
 9762TIP3    H253482   6.777   0.778  10.528  1.5415 -0.4475 -0.1539
 9763TIP3   OH253483   1.930   7.201  12.796  0.7390  0.0087 -0.5375
 9763TIP3    H153484   1.866   7.272  12.786 -1.1904 -1.0319  2.8683
 9763TIP3    H253485   1.982   7.225  12.872  1.2376 -1.3877 -0.4091
 9764TIP3   OH253486   4.963   0.807  11.768  0.3804 -0.6301  0.8135
 9764TIP3    H153487   4.898   0.736  11.766  0.4442 -0.6939  1.0120
 9764TIP3    H253488   4.956   0.847  11.682 -1.1540  0.4577  1.3930
 9765TIP3   OH253489   2.654   5.854  12.540 -0.4697 -0.0735 -0.1360
 9765TIP3    H153490   2.684   5.850  12.449 -1.1317 -0.9568 -0.3327
 9765TIP3    H253491   2.703   5.926  12.579  1.6237 -1.1912 -0.5434
 9766TIP3   OH253492   6.925   0.549  12.695  0.1067 -0.1117 -0.1148
 9766TIP3    H153493   6.892   0.622  12.748  0.8389 -0.4812  0.8688
 9766TIP3    H253494   6.990   0.589  12.637 -1.1420  0.4033 -1.2126
 9767TIP3   OH253495   2.633   0.513  11.003 -0.4246  0.0134 -0.5046
 9767TIP3    H153496   2.703   0.565  10.964 -0.3650  1.1533  1.0332
 9767TIP3    H253497   2.665   0.492  11.091 -1.3721 -0.7588 -0.3347
 9768TIP3   OH253498   1.582   2.853  12.607  0.1087 -0.2986  0.2192
 9768TIP3    H153499   1.666   2.857  12.653 -0.0329 -0.3347  0.4838
 9768TIP3    H253500   1.556   2.762  12.613 -0.8026  0.0260  1.7044
 9769TIP3   OH253501   5.099   2.329  12.472  0.7400  0.3013  0.7186
 9769TIP3    H153502   5.138   2.371  12.549 -1.3882  1.6058  1.1829
 9769TIP3    H253503   5.005   2.328  12.491  0.1137  0.9061 -1.9823
 9770TIP3   OH253504   7.207   1.534  12.314 -0.1668  0.1769  0.3909
 9770TIP3    H153505   7.297   1.513  12.288  0.4285 -0.9444  3.0394
 9770TIP3    H253506   7.190   1.478  12.390 -3.6924 -0.7673 -0.9027
 9771TIP3   OH253507   3.769   4.824  12.374 -0.0409  0.3497  0.3656
 9771TIP3    H153508   3.780   4.902  12.319 -0.5143 -0.2402 -0.5902
 9771TIP3    H253509   3.755   4.858  12.462  0.0402  1.3393  0.0056
 9772TIP3   OH253510   6.724   4.862  11.077 -0.2826 -0.0209  0.3075
 9772TIP3    H153511   6.693   4.902  10.995  0.5276  0.6951  0.3344
 9772TIP3    H253512   6.724   4.933  11.140 -0.7862 -0.5458  0.9096
 9773TIP3   OH253513   6.322   2.868  13.189 -0.1515  0.3226  0.4748
 9773TIP3    H153514   6.273   2.905  13.117  0.5074  1.0609  0.3932
 9773TIP3    H253515   6.256   2.837  13.251 -0.7166  1.0826  0.2585
 9774TIP3   OH253516   5.807   5.932  11.722  0.1455 -0.1376 -0.7069
 9774TIP3    H153517   5.831   5.840  11.707  2.0844  0.2363 -0.2744
 9774TIP3    H253518   5.723   5.943  11.678  0.1539 -1.9685 -1.2681
 9775TIP3   OH253519   5.187   3.895  11.784 -0.1072 -0.0243 -0.5188
 9775TIP3    H153520   5.116   3.841  11.748 -0.3613 -0.5134  0.6599
 9775TIP3    H253521   5.194   3.867  11.876  0.0917  1.6137 -0.0008
 9776TIP3   OH253522   5.975   4.755  12.667  0.0668  0.1314  0.2380
 9776TIP3    H153523   6.010   4.749  12.756  0.0856  0.5309  0.2577
 9776TIP3    H253524   5.895   4.703  12.670  0.1528  0.0074  0.4465
 9777TIP3   OH253525   1.483   6.534  12.370 -0.3559 -0.8012  0.0777
 9777TIP3    H153526   1.572   6.523  12.404  1.4053  0.3632 -3.6532
 9777TIP3    H253527   1.453   6.445  12.351 -0.0005 -1.1934  1.2338
 9778TIP3   OH253528   0.777   5.146  11.124  0.0532 -0.3534  0.1345
 9778TIP3    H153529   0.789   5.084  11.195 -1.3861 -0.9829 -0.1203
 9778TIP3    H253530   0.862   5.188  11.113  0.2540 -0.0890  2.3433
 9779TIP3   OH253531   1.765   2.100  12.331  0.3925  0.2099 -0.5854
 9779TIP3    H153532   1.670   2.096  12.342  0.3926  0.5695 -0.4494
 9779TIP3    H253533   1.796   2.013  12.357 -0.0260 -0.3467 -1.8604
 9780TIP3   OH253534   2.193   2.732  11.770  0.0754 -0.3958  0.3431
 9780TIP3    H153535   2.227   2.688  11.848  2.4341 -1.4674 -1.1879
 9780TIP3    H253536   2.153   2.812  11.804 -1.7596 -2.2661  2.9216
 9781TIP3   OH253537   0.419   7.209  11.979 -0.6261  0.0807 -1.0994
 9781TIP3    H153538   0.387   7.283  12.031  1.6857 -0.7317  1.7651
 9781TIP3    H253539   0.478   7.249  11.915  1.0295  0.8094  0.7605
 9782TIP3   OH253540   0.136   1.961  10.579  0.2701  0.2744  0.1524
 9782TIP3    H153541   0.046   1.951  10.549  0.2484 -2.2096  0.7789
 9782TIP3    H253542   0.129   1.995  10.668 -0.1287 -0.8548  0.5693
 9783TIP3   OH253543   5.275   6.222  11.078 -0.2566 -0.3005 -0.0987
 9783TIP3    H153544   5.184   6.203  11.055 -0.5844  0.0886  0.8275
 9783TIP3    H253545   5.286   6.314  11.058 -0.6692  0.1489  1.6008
 9784TIP3   OH253546   3.785   7.528  12.033  0.1018 -0.6275  0.4320
 9784TIP3    H153547   3.796   7.558  11.943  1.0463 -0.8597  0.4604
 9784TIP3    H253548   3.716   7.584  12.069  0.4636  0.1838 -0.1176
 9785TIP3   OH253549   3.006   6.764  11.563 -0.1588 -0.5547  0.4341
 9785TIP3    H153550   3.095   6.797  11.568  0.1952 -1.2814 -0.5515
 9785TIP3    H253551   2.970   6.775  11.651  0.5910  0.5854  0.6117
 9786TIP3   OH253552   0.532   6.538  11.035  0.0559 -0.0260  0.0556
 9786TIP3    H153553   0.519   6.625  11.073 -1.2694  0.2056 -0.8878
 9786TIP3    H253554   0.481   6.539  10.955 -1.3626 -2.2313  0.8444
 9787TIP3   OH253555   3.291   2.151  11.284  0.6419  0.1590 -0.4724
 9787TIP3    H153556   3.201   2.145  11.315  0.3059 -1.1511 -1.5719
 9787TIP3    H253557   3.282   2.157  11.188  1.7255 -0.3096 -0.6123
 9788TIP3   OH253558   4.613   2.766  11.267 -0.0926  0.2339 -0.5113
 9788TIP3    H153559   4.640   2.683  11.228 -0.0722  0.6048 -1.2951
 9788TIP3    H253560   4.573   2.815  11.195 -2.9689 -0.3107  0.5552
 9789TIP3   OH253561   7.493   3.857  11.012 -0.1120 -0.0697  0.2078
 9789TIP3    H153562   7.467   3.859  11.105  0.6816  2.0893  0.4431
 9789TIP3    H253563   7.569   3.915  11.007 -0.8603  0.8409 -1.9935
 9790TIP3   OH253564   5.861   3.686  10.443  0.5291  0.1018  0.3591
 9790TIP3    H153565   5.920   3.660  10.372  0.4998 -0.2029  0.4467
 9790TIP3    H253566   5.848   3.606  10.494 -0.4219  0.0130  0.0015
 9791TIP3   OH253567   1.361   3.595  11.174  0.3354  0.2887 -0.4638
 9791TIP3    H153568   1.361   3.560  11.263  1.8630  0.7022 -0.2711
 9791TIP3    H253569   1.372   3.518  11.118  1.8563  0.2516 -0.1457
 9792TIP3   OH253570   7.087   0.216  10.764 -0.1849  0.6169  1.0117
 9792TIP3    H153571   7.177   0.231  10.792  0.2359  0.6857 -0.2967
 9792TIP3    H253572   7.071   0.283  10.697 -0.4687 -0.6733 -0.2815
 9793TIP3   OH253573   0.707   4.955  10.892  0.0227 -0.2787  0.2144
 9793TIP3    H153574   0.762   5.004  10.831 -1.3047 -0.2496 -1.0087
 9793TIP3    H253575   0.731   4.988  10.978  0.6953  0.9481 -0.4212
 9794TIP3   OH253576   7.482   1.362  12.741  0.1008  0.1791  0.5032
 9794TIP3    H153577   7.457   1.454  12.744  3.3799  1.1881  1.1624
 9794TIP3    H253578   7.400   1.316  12.722 -1.9299  3.0523  1.4858
 9795TIP3   OH253579   2.796   5.867  11.742 -0.4353 -0.3263 -0.1723
 9795TIP3    H153580   2.826   5.943  11.790 -1.4462 -1.5109  2.5180
 9795TIP3    H253581   2.876   5.820  11.717  0.1420  0.9261 -0.7257
 9796TIP3   OH253582   3.372   1.646  12.626 -0.0901 -0.0363  0.4691
 9796TIP3    H153583   3.319   1.717  12.590  0.7751  0.6288  0.4700
 9796TIP3    H253584   3.406   1.600  12.549 -0.2757 -0.1620  0.4622
 9797TIP3   OH253585   0.798   5.460  13.080 -0.0373 -0.4464  0.0060
 9797TIP3    H153586   0.778   5.428  12.993 -0.7748 -1.2092  0.4447
 9797TIP3    H253587   0.753   5.399  13.139  0.9634 -0.3194  0.9317
 9798TIP3   OH253588   7.418   4.134  11.665 -0.2466 -0.2287 -0.5221
 9798TIP3    H153589   7.352   4.188  11.620 -0.4509 -0.2716 -0.2792
 9798TIP3    H253590   7.499   4.185  11.659 -0.4629  0.1650 -0.1908
 9799TIP3   OH253591   4.245   7.563  11.762 -0.0471 -0.1764  0.3930
 9799TIP3    H153592   4.235   7.565  11.857 -0.5292 -2.7625  0.4756
 9799TIP3    H253593   4.333   7.597  11.746  0.1365  0.0565  1.7867
 9800TIP3   OH253594   0.546   5.815  11.266  0.1082  0.1967  0.2972
 9800TIP3    H153595   0.601   5.743  11.297 -2.5041 -0.7506  3.2523
 9800TIP3    H253596   0.559   5.884  11.331 -0.4679  0.7971 -0.2186
 9801TIP3   OH253597   7.093   3.425  12.799 -0.0797 -0.0623 -0.0318
 9801TIP3    H153598   7.176   3.474  12.794 -0.5035  1.3680  3.6156
 9801TIP3    H253599   7.119   3.333  12.796  1.4893  0.3647 -0.3631
 9802TIP3   OH253600   6.102   2.031  10.699  0.3729  0.7374  0.1166
 9802TIP3    H153601   6.030   2.015  10.638  1.9544 -0.2492 -1.6078
 9802TIP3    H253602   6.103   1.955  10.756  0.5037  0.3899 -0.3440
 9803TIP3   OH253603   1.287   0.789  12.027  0.1284 -0.1738 -0.4828
 9803TIP3    H153604   1.203   0.834  12.018 -0.5001 -1.2056  0.0724
 9803TIP3    H253605   1.303   0.788  12.122  1.2580  0.8738 -0.6397
 9804TIP3   OH253606   7.582   7.463  12.744 -0.4225 -0.1691  0.2707
 9804TIP3    H153607   7.574   7.446  12.650  1.3115 -0.1464  0.0840
 9804TIP3    H253608   7.599   7.557  12.749  0.1765 -0.2912  0.5498
 9805TIP3   OH253609   1.122   1.839  11.604 -0.4035  0.2721 -0.0942
 9805TIP3    H153610   1.047   1.788  11.638 -0.5954 -0.1162 -1.0614
 9805TIP3    H253611   1.190   1.773  11.591 -0.3910  0.3875 -0.6121
 9806TIP3   OH253612   3.435   2.892  11.917  0.3497 -0.4626 -0.1271
 9806TIP3    H153613   3.467   2.819  11.970  0.4721 -0.3752 -0.0789
 9806TIP3    H253614   3.421   2.854  11.830  0.1654 -0.6025 -0.0374
 9807TIP3   OH253615   5.623   2.966  12.574 -0.5279 -0.0699  0.4100
 9807TIP3    H153616   5.537   2.997  12.544  0.3337 -0.4359 -2.7710
 9807TIP3    H253617   5.616   2.871  12.571  0.4447 -0.1382 -1.6696
 9808TIP3   OH253618   7.054   2.616  12.402  0.6451 -0.2388  0.0388
 9808TIP3    H153619   7.008   2.546  12.448  0.7038 -0.7080 -0.5955
 9808TIP3    H253620   6.988   2.656  12.346 -0.1062  2.1077  2.4297
 9809TIP3   OH253621   4.917   0.738  11.315 -0.2336  0.4918  0.3658
 9809TIP3    H153622   4.964   0.664  11.353  0.4449  1.6941  2.0181
 9809TIP3    H253623   4.933   0.732  11.221 -0.8691 -1.8711  0.3537
 9810TIP3   OH253624   0.944   7.470  11.484  0.6789 -0.1539  0.2923
 9810TIP3    H153625   0.860   7.487  11.527  0.9815 -0.1735  0.9017
 9810TIP3    H253626   0.920   7.428  11.401  0.1341 -2.6691  1.6113
 9811TIP3   OH253627   1.023   2.606  10.259 -0.1642  0.4295 -0.4533
 9811TIP3    H153628   0.976   2.635  10.181 -0.3347  0.3382 -0.3870
 9811TIP3    H253629   1.094   2.552  10.226 -1.2360 -1.0388 -0.5007
 9812TIP3   OH253630   5.600   5.301  11.662  0.2017 -0.1676  0.3198
 9812TIP3    H153631   5.677   5.277  11.610  0.0491 -1.1802  0.5469
 9812TIP3    H253632   5.539   5.229  11.651 -1.2325  1.1438 -0.7906
 9813TIP3   OH253633   1.899   4.523  10.834  0.1482  0.0081 -0.5041
 9813TIP3    H153634   1.888   4.469  10.912 -0.1978  0.2690 -0.3688
 9813TIP3    H253635   1.968   4.480  10.784  0.4872 -0.0703  0.0273
 9814TIP3   OH253636   4.020   7.443  12.185 -0.0412  0.4530 -0.2644
 9814TIP3    H153637   3.948   7.480  12.133 -0.6216 -2.2532 -1.5841
 9814TIP3    H253638   4.091   7.430  12.122  0.3977  0.0323  0.3031
 9815TIP3   OH253639   5.849   4.369  11.701  0.4879 -0.0416 -0.2791
 9815TIP3    H153640   5.939   4.376  11.668  1.1363 -0.1042  1.3981
 9815TIP3    H253641   5.856   4.316  11.780 -0.9426  0.4305  0.2032
 9816TIP3   OH253642   0.239   6.789  10.507 -0.5093 -0.5157 -0.5702
 9816TIP3    H153643   0.262   6.698  10.493 -1.2321 -0.8027  0.0538
 9816TIP3    H253644   0.148   6.796  10.476  0.1516  0.4494 -2.4228
 9817TIP3   OH253645   6.342   0.957  12.105  0.0198  0.3119  0.0252
 9817TIP3    H153646   6.408   1.006  12.154 -0.1298 -0.9149  1.4992
 9817TIP3    H253647   6.292   1.025  12.060 -0.1317  1.5692  1.9458
 9818TIP3   OH253648   0.660   7.116  11.776  0.5824 -0.4652 -0.3424
 9818TIP3    H153649   0.742   7.147  11.737  0.2776 -0.8075 -1.2832
 9818TIP3    H253650   0.616   7.070  11.705  0.1804 -1.4424  0.5212
 9819TIP3   OH253651   2.230   2.893  11.019  0.4843  0.1641  0.7256
 9819TIP3    H153652   2.214   2.972  11.070  0.5901  0.5390  0.1880
 9819TIP3    H253653   2.260   2.925  10.934 -0.9212 -0.4238 -0.0082
 9820TIP3   OH253654   6.601   2.297  10.553 -0.5476  0.2998  0.2112
 9820TIP3    H153655   6.568   2.215  10.589 -1.2753  0.0625 -0.9413
 9820TIP3    H253656   6.665   2.270  10.487 -1.6175  0.6044 -0.9798
 9821TIP3   OH253657   0.835   2.308  13.236  0.4697 -0.4853 -0.2198
 9821TIP3    H153658   0.820   2.218  13.207 -0.3461 -0.3553 -0.2320
 9821TIP3    H253659   0.771   2.360  13.187  1.0552  0.1276 -0.3440
 9822TIP3   OH253660   5.789   6.006  13.229 -0.2712  0.5110 -0.0368
 9822TIP3    H153661   5.829   6.073  13.174  1.1296 -0.0323  0.2962
 9822TIP3    H253662   5.797   5.926  13.178  0.1452  0.1821  0.5454
 9823TIP3   OH253663   1.880   1.141  10.492 -0.0021  0.1540 -0.2617
 9823TIP3    H153664   1.874   1.180  10.405  0.0225 -0.9877 -0.8022
 9823TIP3    H253665   1.796   1.161  10.534  0.3469  1.5117 -0.1795
 9824TIP3   OH253666   2.068   5.757  10.483 -0.0597  0.6729  0.2061
 9824TIP3    H153667   2.041   5.677  10.439 -1.7049  1.1922  0.2152
 9824TIP3    H253668   2.142   5.731  10.538 -0.5063 -0.8153  0.1336
 9825TIP3   OH253669   3.395   3.878  11.351  0.5557  0.3413 -0.1795
 9825TIP3    H153670   3.372   3.953  11.296 -1.1948 -0.8618 -1.2051
 9825TIP3    H253671   3.386   3.910  11.440 -2.1993  0.9006 -0.5582
 9826TIP3   OH253672   2.548   0.929  12.855 -0.3954  0.1167 -0.0134
 9826TIP3    H153673   2.632   0.895  12.885 -0.1197 -0.4630 -1.3579
 9826TIP3    H253674   2.559   0.941  12.761 -1.5951  0.7126 -0.1003
 9827TIP3   OH253675   3.418   1.002  11.744  0.2026 -0.8670  0.1177
 9827TIP3    H153676   3.430   1.053  11.825 -1.0059  0.5163 -0.5414
 9827TIP3    H253677   3.364   0.928  11.771  0.0479 -0.5709  0.6500
 9828TIP3   OH253678   6.895   6.786  10.928 -0.1013 -0.6759  0.0037
 9828TIP3    H153679   6.920   6.848  10.861  0.5460 -1.9358 -0.9637
 9828TIP3    H253680   6.816   6.743  10.893  0.1276 -1.2015  0.1159
 9829TIP3   OH253681   4.382   0.781  10.853  0.2132 -0.8753  0.0573
 9829TIP3    H153682   4.356   0.772  10.944  2.3313 -2.0750  0.6147
 9829TIP3    H253683   4.477   0.795  10.856 -0.0175  2.0789 -1.8476
 9830TIP3   OH253684   0.300   5.843  12.477 -0.5652  0.0612 -0.2148
 9830TIP3    H153685   0.337   5.918  12.523  0.2064 -1.3672  1.6407
 9830TIP3    H253686   0.223   5.818  12.528 -0.8404 -0.3796 -0.8290
 9831TIP3   OH253687   6.606   7.325  11.082  0.2011  0.4649 -0.5179
 9831TIP3    H153688   6.526   7.371  11.106 -1.0020 -1.0852 -1.3403
 9831TIP3    H253689   6.669   7.394  11.061 -1.4562  1.7175 -1.5436
 9832TIP3   OH253690   4.872   6.282  11.314 -0.3395 -0.3639  0.5487
 9832TIP3    H153691   4.833   6.238  11.239  0.6179  0.4236 -0.4598
 9832TIP3    H253692   4.822   6.363  11.323 -1.6139 -1.2494  1.9293
 9833TIP3   OH253693   6.023   5.280  11.592  0.2889 -0.2456  0.1629
 9833TIP3    H153694   6.110   5.244  11.576  0.6510  0.9577 -0.6553
 9833TIP3    H253695   6.003   5.254  11.682  0.7040 -2.0867 -0.2502
 9834TIP3   OH253696   0.706   1.570  11.882  0.4660 -0.0235 -0.3058
 9834TIP3    H153697   0.783   1.532  11.840  0.8792  0.9674 -0.4669
 9834TIP3    H253698   0.728   1.574  11.975 -0.4962 -2.3331  0.1014
 9835TIP3   OH253699   2.577   4.184  10.713  0.0968  0.2821  0.1042
 9835TIP3    H153700   2.519   4.238  10.767 -1.5661 -1.1982 -0.1471
 9835TIP3    H253701   2.595   4.106  10.766  0.6924  0.0596 -0.4090
 9836TIP3   OH253702   5.324   2.746  13.112 -0.0234  0.3940 -0.2497
 9836TIP3    H153703   5.232   2.774  13.103 -0.2114  0.2046  0.8836
 9836TIP3    H253704   5.371   2.827  13.133 -0.1332  0.3089  0.3489
 9837TIP3   OH253705   4.101   1.475  11.361 -0.5311 -0.0009  0.4900
 9837TIP3    H153706   4.098   1.566  11.392  0.3201  0.2223 -0.0528
 9837TIP3    H253707   4.157   1.430  11.424 -0.0148  0.1200  0.1285
 9838TIP3   OH253708   3.197   6.234  11.921 -0.6582  0.5377 -0.5308
 9838TIP3    H153709   3.161   6.236  12.009 -0.6352  0.3641 -0.5168
 9838TIP3    H253710   3.250   6.313  11.914 -0.2764  0.3115 -0.2277
 9839TIP3   OH253711   0.064   5.431  10.916  0.6861  0.1062  0.4614
 9839TIP3    H153712   0.087   5.360  10.855  2.1654 -1.0208  2.2248
 9839TIP3    H253713   0.050   5.507  10.859  1.4912 -1.0029 -1.3340
 9840TIP3   OH253714   7.605   3.666  11.195 -0.5216  0.7713  0.0839
 9840TIP3    H153715   7.549   3.723  11.247 -0.8480  0.8172 -0.3158
 9840TIP3    H253716   7.554   3.586  11.182 -0.6218  0.9330 -0.5382
 9841TIP3   OH253717   7.618   3.948  12.817 -0.6742 -0.3344 -0.2859
 9841TIP3    H153718   7.522   3.944  12.815 -0.6568 -0.6434 -1.5365
 9841TIP3    H253719   7.645   3.892  12.744  0.4118  1.2370 -1.1449
 9842TIP3   OH253720   4.151   0.025  12.680 -0.1142  0.4190  0.3633
 9842TIP3    H153721   4.142   0.103  12.734  0.3301 -0.3305  1.5678
 9842TIP3    H253722   4.187  -0.041  12.739 -0.3603 -0.6641 -0.6536
 9843TIP3   OH253723   3.065   2.619  11.455  0.0701 -0.0370  0.7489
 9843TIP3    H153724   3.129   2.677  11.497 -0.0848 -0.1897  1.2042
 9843TIP3    H253725   2.983   2.667  11.460 -0.1982 -0.5675  1.7402
 9844TIP3   OH253726   6.615   6.758  12.479  0.0519  0.2501  0.3920
 9844TIP3    H153727   6.591   6.666  12.491 -0.5826  0.5532  1.6826
 9844TIP3    H253728   6.538   6.806  12.506  1.2943  1.2147  2.4878
 9845TIP3   OH253729   0.604   7.398  11.818  0.1810 -0.1252 -0.4758
 9845TIP3    H153730   0.657   7.473  11.844  0.4663  0.0096 -1.4148
 9845TIP3    H253731   0.656   7.353  11.752 -0.5377 -0.4188 -0.8593
 9846TIP3   OH253732   4.531   3.836  12.070 -0.3658 -0.4055  0.5307
 9846TIP3    H153733   4.533   3.925  12.104 -1.8503 -0.3422  0.5334
 9846TIP3    H253734   4.461   3.837  12.004 -0.2220 -1.4963  0.3345
 9847TIP3   OH253735   6.934   2.696  13.749 -0.1406  0.4130  0.2531
 9847TIP3    H153736   6.898   2.620  13.704  0.3541  0.3500 -0.0461
 9847TIP3    H253737   6.887   2.771  13.713  0.0547  0.3363 -0.1689
 9848TIP3   OH253738   7.592   3.010  12.540  0.0173 -0.2009 -0.4166
 9848TIP3    H153739   7.674   3.057  12.524  0.4954 -1.0995 -0.7009
 9848TIP3    H253740   7.525   3.077  12.539  0.8641  0.7118  0.8284
 9849TIP3   OH253741   5.787   2.243  10.659 -0.0418 -0.0386  0.2455
 9849TIP3    H153742   5.880   2.262  10.644 -0.2550 -0.9104 -2.9172
 9849TIP3    H253743   5.787   2.160  10.706  0.7264  0.6548  1.5496
 9850TIP3   OH253744   4.104   7.594  10.797  0.2323  0.0547 -0.7243
 9850TIP3    H153745   4.032   7.655  10.786  0.5304  0.4711 -0.4018
 9850TIP3    H253746   4.157   7.604  10.718  0.2297  0.1517 -0.7137
 9851TIP3   OH253747   4.670   2.037  12.757 -0.3549  0.7852  0.1948
 9851TIP3    H153748   4.729   1.999  12.692 -0.0885  0.9534  0.3388
 9851TIP3    H253749   4.595   2.068  12.705 -0.9500 -0.6273  0.1455
 9852TIP3   OH253750   3.332   0.494  11.419  0.9432  0.2473  0.0414
 9852TIP3    H153751   3.316   0.437  11.345  2.3004 -1.2948  0.8674
 9852TIP3    H253752   3.263   0.472  11.482  1.6984 -0.8142  0.5203
 9853TIP3   OH253753   7.308   0.073  11.307  0.0714 -0.1144 -0.0298
 9853TIP3    H153754   7.389   0.043  11.264  1.0851  0.2203  1.5870
 9853TIP3    H253755   7.243   0.073  11.236  1.6955  0.5647 -1.6089
 9854TIP3   OH253756   1.044   5.289  12.579 -0.1591  0.9462 -0.0163
 9854TIP3    H153757   0.963   5.327  12.545 -0.2676  1.6498  1.0019
 9854TIP3    H253758   1.025   5.270  12.671  0.8828  1.2690  0.2740
 9855TIP3   OH253759   5.750   4.617  11.577  0.0697  0.4481  0.3524
 9855TIP3    H153760   5.771   4.526  11.558  2.0984  1.0704 -0.6478
 9855TIP3    H253761   5.707   4.649  11.498 -1.1137  0.2392  0.8983
 9856TIP3   OH253762   3.412   5.146  12.683  0.5242  0.3902 -0.0997
 9856TIP3    H153763   3.343   5.086  12.654  0.4270  0.7863 -0.7147
 9856TIP3    H253764   3.368   5.206  12.743  0.5002  0.1739  0.0967
 9857TIP3   OH253765   1.292   6.058  12.676  0.1000  0.1998  0.2608
 9857TIP3    H153766   1.360   6.065  12.743 -0.6878  0.8515  1.0142
 9857TIP3    H253767   1.319   5.984  12.622  0.3247 -0.8994  1.8042
 9858TIP3   OH253768   6.885   1.129  11.246 -0.3511  0.8293  0.3440
 9858TIP3    H153769   6.934   1.127  11.328  0.1054 -2.6794  0.1364
 9858TIP3    H253770   6.948   1.105  11.179 -0.7156  3.6452 -1.1776
 9859TIP3   OH253771   1.041   2.929  11.328 -0.1116 -0.2882 -0.1475
 9859TIP3    H153772   1.079   2.969  11.406  0.9503  0.0047 -0.7903
 9859TIP3    H253773   1.056   2.836  11.339 -0.3283 -0.2807  0.1946
 9860TIP3   OH253774   0.779   6.142  11.639 -0.5117  0.6134  0.1713
 9860TIP3    H153775   0.870   6.119  11.655 -0.5365 -0.1846 -0.7543
 9860TIP3    H253776   0.740   6.148  11.727 -0.2561 -1.9536  0.5548
 9861TIP3   OH253777   4.404   0.291  11.186 -0.2774  0.0660 -0.2097
 9861TIP3    H153778   4.319   0.288  11.230 -0.3443 -0.4287 -0.3650
 9861TIP3    H253779   4.449   0.212  11.215 -0.4838 -0.4874 -1.3336
 9862TIP3   OH253780   6.524   1.606  13.374 -0.0727 -0.3300  0.1140
 9862TIP3    H153781   6.592   1.645  13.429 -0.4578 -0.1171  0.4516
 9862TIP3    H253782   6.552   1.623  13.284 -1.2338  2.6588  0.1703
 9863TIP3   OH253783   3.849   2.537  10.958  0.1572  0.5538  0.3630
 9863TIP3    H153784   3.846   2.506  10.867  2.4475 -1.1301  0.7805
 9863TIP3    H253785   3.758   2.540  10.985 -0.6410  1.6242 -2.1283
 9864TIP3   OH253786   1.009   3.749  11.326  0.1732  0.5925 -0.3070
 9864TIP3    H153787   0.927   3.797  11.312  0.1588  0.4492 -0.7266
 9864TIP3    H253788   1.008   3.728  11.420  0.2127  1.4586 -0.1021
 9865TIP3   OH253789   0.663   6.848  12.049  0.0546 -0.1201  0.4480
 9865TIP3    H153790   0.732   6.866  11.984  0.1380  1.3847  0.9199
 9865TIP3    H253791   0.645   6.754  12.039  0.6762 -0.1080 -1.1459
 9866TIP3   OH253792   0.149   7.544  13.103 -0.1080  0.0177  0.0810
 9866TIP3    H153793   0.173   7.453  13.121 -1.0508 -0.2570  0.0322
 9866TIP3    H253794   0.055   7.548  13.124 -0.4372  0.5734 -1.4264
 9867TIP3   OH253795   1.835   3.570  12.028 -0.0162 -0.0117 -0.3619
 9867TIP3    H153796   1.902   3.556  11.962  0.9801 -0.0656  0.6378
 9867TIP3    H253797   1.865   3.520  12.104 -1.1099  0.0877  0.1556
 9868TIP3   OH253798   7.545   7.568  11.538 -0.0258 -0.6526  0.1229
 9868TIP3    H153799   7.602   7.520  11.478  1.8624  0.9883  0.4588
 9868TIP3    H253800   7.456   7.544  11.512  0.7559 -1.4438 -2.0810
 9869TIP3   OH253801   6.666   4.497  10.645 -0.0116 -0.1106 -0.6334
 9869TIP3    H153802   6.749   4.496  10.692 -1.0127  0.9619  1.2470
 9869TIP3    H253803   6.689   4.465  10.557  2.4323  0.4838 -0.2965
 9870TIP3   OH253804   2.206   6.481  12.278 -0.0617  0.1470 -0.8040
 9870TIP3    H153805   2.242   6.534  12.349 -1.5845  0.5025 -0.2657
 9870TIP3    H253806   2.270   6.490  12.207  1.1220  0.3668  0.2531
 9871TIP3   OH253807   3.027   3.267  11.808  0.1134 -0.0481  0.0563
 9871TIP3    H153808   3.005   3.354  11.776  0.7463  0.4145  0.8584
 9871TIP3    H253809   3.122   3.260  11.799  0.2630 -0.0417  1.4636
 9872TIP3   OH253810   5.108   5.438  11.339  0.4483 -0.0654 -0.4062
 9872TIP3    H153811   5.111   5.491  11.419  1.0882  0.6521 -0.8890
 9872TIP3    H253812   5.107   5.503  11.268  2.0780 -0.6781 -1.0313
 9873TIP3   OH253813   7.285   0.638  10.667 -0.1223  0.2336 -0.0988
 9873TIP3    H153814   7.371   0.631  10.708 -0.7208 -0.5034  1.0974
 9873TIP3    H253815   7.260   0.730  10.680 -0.3906 -0.0288  1.4463
 9874TIP3   OH253816   3.735   4.409  11.648  0.2351  0.2136 -0.4764
 9874TIP3    H153817   3.736   4.494  11.692  3.4269  0.2658 -0.4258
 9874TIP3    H253818   3.760   4.347  11.716 -0.0383 -0.4635 -0.9877
 9875TIP3   OH253819   5.083   3.388  10.848 -0.5402 -0.6189  0.2653
 9875TIP3    H153820   5.160   3.362  10.798 -1.1392  0.5210 -1.3749
 9875TIP3    H253821   5.014   3.327  10.821 -0.7093 -0.3744  0.1274
 9876TIP3   OH253822   4.787   3.685  12.982 -0.5015 -0.1762  0.2108
 9876TIP3    H153823   4.781   3.597  13.018 -1.9331 -0.7408 -1.2723
 9876TIP3    H253824   4.701   3.724  12.999 -0.2550  0.5458 -0.1368
 9877TIP3   OH253825   3.613   6.294  10.554  0.0727 -0.6489  0.1104
 9877TIP3    H153826   3.531   6.312  10.600  0.4952  0.0934  0.5896
 9877TIP3    H253827   3.591   6.303  10.461 -0.3118 -0.0914  0.2514
 9878TIP3   OH253828   2.607   2.903  12.631  0.4640  0.2104  0.0660
 9878TIP3    H153829   2.665   2.978  12.642  0.6387 -0.0863  1.3454
 9878TIP3    H253830   2.538   2.934  12.573  0.0719  1.6380  1.2272
 9879TIP3   OH253831   2.295   0.057  12.725  0.2658 -0.6402  0.7994
 9879TIP3    H153832   2.282   0.150  12.711 -1.6875 -1.1321 -1.2766
 9879TIP3    H253833   2.281   0.044  12.819 -1.2895  0.8986  0.8115
 9880TIP3   OH253834   4.190   4.066  13.297  0.1222  0.0430 -0.2160
 9880TIP3    H153835   4.201   4.120  13.218 -0.8155 -1.8509 -1.7204
 9880TIP3    H253836   4.130   3.996  13.270  0.0855 -0.9028  2.0887
 9881TIP3   OH253837   3.267   5.989  11.452 -0.0004  0.2016 -0.0246
 9881TIP3    H153838   3.257   5.896  11.430  1.6626  0.3048 -1.5092
 9881TIP3    H253839   3.321   5.989  11.532  2.2283 -0.1733 -1.4244
 9882TIP3   OH253840   1.200   7.074  12.029 -0.2811  0.4902  0.4935
 9882TIP3    H153841   1.229   7.132  12.099 -0.7720  1.1327  0.1847
 9882TIP3    H253842   1.150   7.131  11.971  0.2662  0.0062 -0.4753
 9883TIP3   OH253843   2.960   1.001  11.158  0.0395  0.2651  0.4073
 9883TIP3    H153844   3.053   0.996  11.179  0.3331 -1.5253 -1.0937
 9883TIP3    H253845   2.956   1.007  11.063 -1.3823  0.1883  0.4337
 9884TIP3   OH253846   6.673   0.531  12.489  0.3463  0.1411  0.2691
 9884TIP3    H153847   6.735   0.564  12.424  0.3604  0.5597  0.4913
 9884TIP3    H253848   6.726   0.521  12.568 -0.2553  2.4173  1.0356
 9885TIP3   OH253849   3.971   3.061  11.671  0.2513  0.0430 -0.3889
 9885TIP3    H153850   4.016   3.137  11.633  1.3088 -0.5104 -0.2936
 9885TIP3    H253851   4.039   2.994  11.677 -1.0927 -1.6847 -2.5097
 9886TIP3   OH253852   3.544   6.777  11.937  0.6937 -0.4260  0.5919
 9886TIP3    H153853   3.528   6.842  11.868  0.7321 -2.0617 -1.0447
 9886TIP3    H253854   3.639   6.771  11.943  0.7262  1.0683  2.1831
 9887TIP3   OH253855   0.621   0.025  12.761  0.4832 -0.3730 -0.0741
 9887TIP3    H153856   0.696   0.073  12.727 -0.1700  0.7107 -0.0323
 9887TIP3    H253857   0.545   0.064  12.717 -0.0647 -1.4119 -0.0820
 9888TIP3   OH253858   5.193   5.909  11.762 -0.0584  0.1342  0.2305
 9888TIP3    H153859   5.196   5.912  11.857  1.3126  1.0151  0.1858
 9888TIP3    H253860   5.265   5.853  11.736 -1.3232 -1.3212 -0.2797
 9889TIP3   OH253861   1.042   0.997  11.246 -0.3901 -0.2679 -0.6505
 9889TIP3    H153862   0.956   1.034  11.266  0.2581  0.6345  0.6943
 9889TIP3    H253863   1.047   0.919  11.301  0.6009  1.1030  1.3596
 9890TIP3   OH253864   4.616   2.933  10.731  0.1526 -0.3388  0.0500
 9890TIP3    H153865   4.586   2.870  10.666  1.7556 -0.3501 -0.7213
 9890TIP3    H253866   4.605   3.018  10.688  2.7503 -0.4324 -0.9723
 9891TIP3   OH253867   2.724   3.672  10.656 -0.0943 -0.5939  0.3292
 9891TIP3    H153868   2.799   3.731  10.641 -0.4499 -0.6483 -2.2126
 9891TIP3    H253869   2.651   3.715  10.611 -0.3264 -2.9536 -1.7829
 9892TIP3   OH253870   7.278   1.125  10.824  0.3358 -1.1963 -0.0846
 9892TIP3    H153871   7.328   1.206  10.814 -0.0589 -0.9525 -0.0946
 9892TIP3    H253872   7.192   1.153  10.856  0.5422 -1.7049  0.9435
 9893TIP3   OH253873   7.113   4.425  12.147  0.0639 -0.4208  0.0077
 9893TIP3    H153874   7.050   4.491  12.118  1.0943  2.3086  3.3777
 9893TIP3    H253875   7.197   4.456  12.113  0.1662 -2.0217 -1.3228
 9894TIP3   OH253876   5.705   7.044  10.942 -0.3942  0.6324 -0.0247
 9894TIP3    H153877   5.712   6.992  11.022  2.3635  1.7307  0.5684
 9894TIP3    H253878   5.645   7.115  10.965  0.2314  0.8366  1.0094
 9895TIP3   OH253879   3.989   5.299  11.608 -0.7300 -0.5192 -0.2551
 9895TIP3    H153880   3.930   5.374  11.595 -0.2367 -0.1229 -0.2388
 9895TIP3    H253881   4.049   5.303  11.533 -0.5938 -0.7940 -0.1606
 9896TIP3   OH253882   4.936   7.617  13.175 -0.4814  0.3268  0.4288
 9896TIP3    H153883   4.967   7.696  13.131  0.2384  0.3253  0.9071
 9896TIP3    H253884   4.969   7.545  13.122 -0.9258  0.3364  0.1311
 9897TIP3   OH253885   5.359   3.294  11.056  0.4797 -0.0551 -0.0905
 9897TIP3    H153886   5.367   3.375  11.108 -0.9714 -0.2550  0.4919
 9897TIP3    H253887   5.290   3.313  10.992  0.0454 -0.8590  0.1245
 9898TIP3   OH253888   4.857   2.785  13.348  0.7431 -0.8548  0.3682
 9898TIP3    H153889   4.837   2.871  13.312  2.4309 -0.6314 -0.1703
 9898TIP3    H253890   4.898   2.803  13.432  2.2546 -1.0021 -0.2886
 9899TIP3   OH253891   1.576   3.632  11.875 -0.1504 -0.8565 -0.0482
 9899TIP3    H153892   1.575   3.658  11.783  1.7051 -0.4436  0.0072
 9899TIP3    H253893   1.667   3.643  11.902 -0.4819 -1.8352  1.6019
 9900TIP3   OH253894   2.129   3.656  12.851 -0.4381 -0.8516 -0.2319
 9900TIP3    H153895   2.047   3.609  12.844 -0.2540 -1.6025  1.9509
 9900TIP3    H253896   2.196   3.588  12.861 -0.0732 -0.2541  2.1079
 9901TIP3   OH253897   5.231   3.003  11.336  0.4359  0.2102 -0.1742
 9901TIP3    H153898   5.257   3.013  11.427  1.0126 -0.7532 -0.2174
 9901TIP3    H253899   5.300   3.047  11.286  1.2854 -1.1296 -0.2253
 9902TIP3   OH253900   1.966   1.881  10.673  0.1344 -0.1150  0.1890
 9902TIP3    H153901   1.992   1.796  10.639 -0.9984 -1.6475  2.8476
 9902TIP3    H253902   1.875   1.891  10.644  0.7174  1.0025 -1.4260
 9903TIP3   OH253903   6.747   5.954  12.640  0.4422 -0.1847  0.1738
 9903TIP3    H153904   6.732   5.875  12.692  1.8789 -1.2887 -0.9970
 9903TIP3    H253905   6.664   5.968  12.593 -1.1379  1.2391  3.1337
 9904TIP3   OH253906   7.490   0.948  10.861 -0.3154  0.1691 -0.2933
 9904TIP3    H153907   7.420   1.013  10.853 -0.2764  0.1587 -0.7407
 9904TIP3    H253908   7.445   0.864  10.865 -0.3141  0.1125 -1.2031
 9905TIP3   OH253909   6.418   2.428  11.463  0.0071  0.2143 -0.1774
 9905TIP3    H153910   6.435   2.439  11.370  1.0925  0.8264  0.0659
 9905TIP3    H253911   6.432   2.335  11.480 -0.5670  0.0317 -0.6886
 9906TIP3   OH253912   6.451   3.970  11.532 -0.1486 -0.3970  0.0129
 9906TIP3    H153913   6.446   4.060  11.564 -0.9940 -0.3900 -0.1269
 9906TIP3    H253914   6.431   3.976  11.439  2.7778 -0.3586 -0.7067
 9907TIP3   OH253915   0.603   4.227  10.425  0.2951  0.1606  0.0279
 9907TIP3    H153916   0.649   4.238  10.342  2.3579  0.6524  1.1683
 9907TIP3    H253917   0.513   4.255  10.407  0.4928 -0.4791 -2.2052
 9908TIP3   OH253918   6.129   3.814  10.698 -0.4675  0.0826 -0.4652
 9908TIP3    H153919   6.052   3.760  10.680 -0.5271 -0.2713  0.7438
 9908TIP3    H253920   6.107   3.861  10.778  0.3099  0.4909 -0.4809
 9909TIP3   OH253921   3.362   6.174  12.637 -0.2333 -0.1984  1.0556
 9909TIP3    H153922   3.365   6.103  12.701  3.5446  0.1178  1.4294
 9909TIP3    H253923   3.445   6.220  12.648 -0.8644  1.9117 -1.8668
 9910TIP3   OH253924   6.765   1.842  11.574  0.6639  0.4229 -0.5499
 9910TIP3    H153925   6.768   1.800  11.488 -0.8480 -1.4864  0.2354
 9910TIP3    H253926   6.831   1.797  11.626 -0.9412 -1.1139  0.2879
 9911TIP3   OH253927   7.394   6.190  11.213  0.2230 -0.1425 -0.0616
 9911TIP3    H153928   7.388   6.235  11.298  1.6322  0.0392 -0.0280
 9911TIP3    H253929   7.389   6.097  11.235 -1.2678 -0.0739  0.0125
 9912TIP3   OH253930   4.622   4.809  10.829  0.4248 -0.1417 -0.2402
 9912TIP3    H153931   4.674   4.771  10.759 -1.6771 -2.1340 -0.8378
 9912TIP3    H253932   4.556   4.862  10.784  1.3865  1.7849  0.4734
 9913TIP3   OH253933   1.026   2.322  11.569 -0.0646  0.4390  0.0509
 9913TIP3    H153934   1.011   2.377  11.492  1.2108 -0.2827 -0.7480
 9913TIP3    H253935   1.016   2.232  11.537 -0.7986  0.1480  1.0315
 9914TIP3   OH253936   7.277   0.280  12.261 -0.6957 -0.3670  0.4637
 9914TIP3    H153937   7.221   0.229  12.320  0.9772 -0.9968  1.5677
 9914TIP3    H253938   7.312   0.215  12.200 -0.2646 -0.1718  0.5044
 9915TIP3   OH253939   6.739   6.257  12.681  0.4799 -0.1501  0.1646
 9915TIP3    H153940   6.801   6.218  12.619  0.8199  0.8759 -0.1679
 9915TIP3    H253941   6.732   6.193  12.752  0.7722 -0.9422 -0.5137
 9916TIP3   OH253942   6.834   7.385  11.871  0.5144  0.7179 -0.1304
 9916TIP3    H153943   6.927   7.386  11.846  0.5035  0.1158 -0.2116
 9916TIP3    H253944   6.823   7.463  11.924  1.5039 -0.1130  1.3875
 9917TIP3   OH253945   3.511   4.991  11.296  0.4321  0.1137  0.3685
 9917TIP3    H153946   3.544   5.029  11.377 -0.2202  2.8477 -0.5289
 9917TIP3    H253947   3.503   5.065  11.236 -0.2048 -1.6149 -1.8468
 9918TIP3   OH253948   1.736   5.946  12.096 -0.0553 -0.3457 -0.1811
 9918TIP3    H153949   1.720   5.890  12.020  0.0817  0.1319 -0.5573
 9918TIP3    H253950   1.744   6.034  12.061 -0.8029 -0.0055  0.4721
 9919TIP3   OH253951   1.865   2.803  12.392  0.2894 -0.8620 -0.0216
 9919TIP3    H153952   1.910   2.723  12.418  0.9488 -0.2518  0.7692
 9919TIP3    H253953   1.903   2.826  12.307 -0.0208 -1.4605 -0.3326
 9920TIP3   OH253954   7.654   1.846  12.659 -0.1244  0.1201  0.4261
 9920TIP3    H153955   7.747   1.833  12.641 -0.0653 -0.8406  1.3032
 9920TIP3    H253956   7.652   1.898  12.740 -0.3268 -0.9870  1.1488
 9921TIP3   OH253957   5.292   5.656  12.240 -0.1731  0.1984 -0.2954
 9921TIP3    H153958   5.218   5.596  12.248  0.1953 -0.1693  0.5447
 9921TIP3    H253959   5.329   5.660  12.328  0.5243  0.7378 -0.6025
 9922TIP3   OH253960   2.835   6.265  10.955  0.3349  0.0305  0.0963
 9922TIP3    H153961   2.910   6.245  10.900  0.2657 -0.4377  0.1734
 9922TIP3    H253962   2.760   6.227  10.909 -0.3869  3.1654 -1.6577
 9923TIP3   OH253963   5.105   5.681  11.233  1.2715  0.3546 -0.4618
 9923TIP3    H153964   5.125   5.700  11.141  2.5618  2.1719  0.1337
 9923TIP3    H253965   5.165   5.737  11.283 -0.5372  0.7016  1.4946
 9924TIP3   OH253966   6.415   3.554  11.750 -0.3470 -0.0545  0.0103
 9924TIP3    H153967   6.496   3.577  11.796 -0.5615 -0.6901  0.7335
 9924TIP3    H253968   6.364   3.635  11.748  0.0583  0.2056  0.0568
 9925TIP3   OH253969   7.607   6.472  12.795  0.3706  0.5779  0.0173
 9925TIP3    H153970   7.544   6.415  12.839 -0.2530  1.2475  0.0186
 9925TIP3    H253971   7.682   6.474  12.854  0.4964 -0.4100 -0.0916
 9926TIP3   OH253972   3.061   5.175  10.665  0.1380  0.1452  0.1733
 9926TIP3    H153973   3.030   5.181  10.756  0.9635 -1.6641  0.6213
 9926TIP3    H253974   2.983   5.157  10.614 -0.1672 -0.0169  0.6922
 9927TIP3   OH253975   5.549   4.660  12.432 -0.2003 -0.1378 -0.6262
 9927TIP3    H153976   5.598   4.742  12.436  1.2099 -0.9578 -0.4616
 9927TIP3    H253977   5.458   4.687  12.419  0.0435  1.4811  0.7113
 9928TIP3   OH253978   3.471   2.301  12.379 -0.2085 -0.1671 -0.3949
 9928TIP3    H153979   3.403   2.325  12.315 -0.0657 -0.7699 -0.7737
 9928TIP3    H253980   3.482   2.380  12.432 -0.4169  0.2948 -1.0345
 9929TIP3   OH253981   6.906   7.473  12.575  0.3089 -0.4587  0.4051
 9929TIP3    H153982   6.896   7.543  12.510  0.5191 -0.3685  0.4680
 9929TIP3    H253983   6.849   7.403  12.544  0.9817 -0.7112 -0.2912
 9930TIP3   OH253984   0.512   7.430  12.758  0.4372 -0.8470  0.5457
 9930TIP3    H153985   0.569   7.455  12.831  1.1723 -1.7900  0.3175
 9930TIP3    H253986   0.454   7.363  12.795  0.5137 -1.0029  0.3870
 9931TIP3   OH253987   2.777   6.187  12.524  0.1210  0.4268  0.2686
 9931TIP3    H153988   2.762   6.272  12.484  2.4790  1.3882  1.2123
 9931TIP3    H253989   2.873   6.179  12.526  0.0384 -3.2049 -1.7048
 9932TIP3   OH253990   0.272   3.469  13.484  0.0455  0.2475  0.5089
 9932TIP3    H153991   0.205   3.448  13.418 -0.0218 -0.8322  0.9092
 9932TIP3    H253992   0.243   3.425  13.563  1.3303 -0.3995  0.6437
 9933TIP3   OH253993   6.841   1.373  10.926  0.1786  0.1377 -0.0042
 9933TIP3    H153994   6.854   1.349  10.834 -1.0732 -1.7894  0.2563
 9933TIP3    H253995   6.829   1.468  10.925  1.1363  0.2779 -1.6959
 9934TIP3   OH253996   6.016   5.412  12.967 -0.6574  0.0881  0.3517
 9934TIP3    H153997   5.952   5.479  12.944 -0.4886  0.4023  0.7749
 9934TIP3    H253998   6.070   5.453  13.035  0.8483  0.3264 -0.9347
 9935TIP3   OH253999   6.205   3.435  12.019 -0.2444 -0.0984 -0.1860
 9935TIP3    H154000   6.225   3.527  12.036 -0.2617  0.1568 -1.4735
 9935TIP3    H254001   6.151   3.436  11.940 -2.0055 -1.0782  0.9460
 9936TIP3   OH254002   7.327   5.660  11.947  0.1994 -0.2909  0.0088
 9936TIP3    H154003   7.421   5.642  11.956  0.1723 -1.2203 -1.3493
 9936TIP3    H254004   7.320   5.714  11.869 -0.2889  1.0717  0.9489
 9937TIP3   OH254005   0.131   3.490  10.786  0.0667 -0.2627  0.1981
 9937TIP3    H154006   0.201   3.541  10.746 -1.2481  1.8093  0.3833
 9937TIP3    H254007   0.086   3.551  10.845 -1.5448 -1.6546  0.5217
 9938TIP3   OH254008   1.352   2.049  13.288 -0.3046  0.3407 -0.1548
 9938TIP3    H154009   1.257   2.044  13.290 -0.2638 -1.7004 -0.9222
 9938TIP3    H254010   1.378   1.986  13.222  1.5877  1.0584 -0.1515
 9939TIP3   OH254011   2.649   0.818  11.747  0.3466 -0.6692 -0.0904
 9939TIP3    H154012   2.629   0.911  11.757  0.4647 -0.6318 -0.2067
 9939TIP3    H254013   2.639   0.782  11.835  0.1838 -0.5686 -0.0669
 9940TIP3   OH254014   4.802   2.871  12.083  0.6392 -0.2801 -0.5264
 9940TIP3    H154015   4.825   2.907  11.998  0.9047  0.9758  0.0455
 9940TIP3    H254016   4.870   2.905  12.142 -0.2823 -0.0274  0.4174
 9941TIP3   OH254017   1.885   1.564  12.318 -0.0720 -0.2688  0.1428
 9941TIP3    H154018   1.831   1.502  12.367  1.6446 -0.7555  1.5006
 9941TIP3    H254019   1.949   1.509  12.273  0.6550  0.4458  0.3053
 9942TIP3   OH254020   3.087   7.047  12.836 -0.0650 -0.5658 -0.3063
 9942TIP3    H154021   3.060   7.087  12.919 -0.3390  0.5532 -0.9076
 9942TIP3    H254022   3.005   7.016  12.797  0.1611 -1.8747  0.2131
 9943TIP3   OH254023   6.404   6.517  12.260  0.2673  0.0048  0.3585
 9943TIP3    H154024   6.335   6.451  12.251  0.2959  0.1203 -0.7497
 9943TIP3    H254025   6.368   6.581  12.321 -0.2201 -0.4354  0.5420
 9944TIP3   OH254026   7.448   6.782  10.561 -0.3505 -0.3169  0.3087
 9944TIP3    H154027   7.381   6.834  10.516 -1.9934 -2.3267  0.2880
 9944TIP3    H254028   7.434   6.800  10.654  0.4681  0.8164  0.2386
 9945TIP3   OH254029   6.481   3.369  10.678  0.2487  0.4704  0.2739
 9945TIP3    H154030   6.404   3.319  10.705  0.0922  0.7272  0.3080
 9945TIP3    H254031   6.548   3.348  10.744  0.5122 -0.4880 -0.2840
 9946TIP3   OH254032   2.343   6.528  11.231 -0.4636  0.0387 -0.2774
 9946TIP3    H154033   2.298   6.468  11.291  0.1958  0.2033  0.4009
 9946TIP3    H254034   2.428   6.488  11.215  0.5397  1.3919  1.2747
 9947TIP3   OH254035   6.921   5.604  12.412 -0.4773 -0.0924  0.5679
 9947TIP3    H154036   6.900   5.590  12.505 -3.1105  1.7232  0.3438
 9947TIP3    H254037   6.878   5.531  12.367 -1.7094  0.6173  0.5671
 9948TIP3   OH254038   1.195   6.446  11.634  0.2552  0.4361 -0.0387
 9948TIP3    H154039   1.212   6.370  11.578 -0.0490 -0.6587  1.3113
 9948TIP3    H254040   1.277   6.495  11.634  0.8230 -0.4872 -0.0421
 9949TIP3   OH254041   1.547   3.457  11.524 -0.0852 -0.3417 -0.5878
 9949TIP3    H154042   1.594   3.512  11.586 -1.1837 -0.9398  0.8065
 9949TIP3    H254043   1.614   3.430  11.461  1.2550 -0.4479  0.8295
 9950TIP3   OH254044   0.600   1.331  10.375  0.1735 -0.1275 -0.2645
 9950TIP3    H154045   0.515   1.296  10.403 -0.9389  1.7340 -1.1704
 9950TIP3    H254046   0.648   1.342  10.457 -0.9752  0.0837  0.4114
 9951TIP3   OH254047   1.803   6.706  11.400  0.2820 -0.1816  0.0922
 9951TIP3    H154048   1.767   6.622  11.374 -0.4124  0.2738 -0.4527
 9951TIP3    H254049   1.727   6.760  11.421  0.6988  0.4115  0.1288
 9952TIP3   OH254050   5.568   3.233  11.222 -0.4909  0.1852  0.1364
 9952TIP3    H154051   5.506   3.212  11.152 -0.1312 -0.4137 -0.0093
 9952TIP3    H254052   5.581   3.327  11.216 -0.3054  0.1092 -0.7416
 9953TIP3   OH254053   4.894   4.248  13.220  0.0915  0.1961 -0.8288
 9953TIP3    H154054   4.889   4.320  13.284  0.9038  0.0646 -0.6007
 9953TIP3    H254055   4.803   4.222  13.207 -0.1397  0.6143 -0.1597
 9954TIP3   OH254056   3.617   7.158  12.540  0.1271 -0.1052  0.6470
 9954TIP3    H154057   3.592   7.079  12.586 -1.8117  0.1988  0.1948
 9954TIP3    H254058   3.549   7.222  12.562 -1.2758 -0.1165 -3.0446
 9955TIP3   OH254059   1.473   6.332  12.660  0.5073 -0.1979 -0.1351
 9955TIP3    H154060   1.524   6.284  12.595  1.1105  2.3063 -1.6297
 9955TIP3    H254061   1.500   6.295  12.744 -0.2676 -3.5131 -1.2062
 9956TIP3   OH254062   5.288   2.608  10.940  0.2413  0.0063 -0.7158
 9956TIP3    H154063   5.201   2.567  10.938  0.3923 -0.3261 -0.5622
 9956TIP3    H254064   5.342   2.547  10.991  0.3875  0.5592 -0.1968
 9957TIP3   OH254065   4.729   4.467  12.407  0.1192 -0.3559  0.2498
 9957TIP3    H154066   4.649   4.416  12.422 -0.2667  0.6270  1.8655
 9957TIP3    H254067   4.784   4.411  12.352 -0.5708 -2.2060  1.3469
 9958TIP3   OH254068   4.828   3.436  13.365  0.1578  0.3187  0.2457
 9958TIP3    H154069   4.918   3.402  13.357  0.1047  0.4698 -1.3548
 9958TIP3    H254070   4.783   3.371  13.418  1.1646  0.1542  0.9388
 9959TIP3   OH254071   1.333   3.228  12.194 -0.2302 -0.0821 -0.0646
 9959TIP3    H154072   1.362   3.312  12.158  1.8394 -0.3206  0.8669
 9959TIP3    H254073   1.341   3.166  12.121 -1.0300  0.3860 -0.5528
 9960TIP3   OH254074   6.034   1.994  12.396 -0.0486 -0.1974  0.1203
 9960TIP3    H154075   5.964   1.966  12.455  0.0794 -1.7683 -0.4251
 9960TIP3    H254076   6.005   1.966  12.309  0.9023 -0.2065 -0.2074
 9961TIP3   OH254077   5.673   3.392  11.647  0.7195  0.3360 -0.5041
 9961TIP3    H154078   5.629   3.473  11.671  0.0093 -0.5170  1.1967
 9961TIP3    H254079   5.605   3.325  11.652  2.0025 -0.9272  1.6077
 9962TIP3   OH254080   6.454   3.410  10.395 -0.5546 -0.2630 -0.5141
 9962TIP3    H154081   6.447   3.383  10.487  0.1890  0.4425 -0.2315
 9962TIP3    H254082   6.484   3.332  10.349 -0.1329 -0.4015 -0.0139
 9963TIP3   OH254083   5.238   6.906  10.718  0.4857  0.2660  0.2546
 9963TIP3    H154084   5.150   6.868  10.716  0.5822  0.0514  0.0536
 9963TIP3    H254085   5.225   6.996  10.749  0.4009 -0.3708  2.2165
 9964TIP3   OH254086   1.800   4.250  12.895 -0.1836  0.1150  0.4509
 9964TIP3    H154087   1.881   4.289  12.927  0.2665 -0.9769  0.6776
 9964TIP3    H254088   1.752   4.224  12.974 -1.2832  1.7030  0.3734
 9965TIP3   OH254089   2.432   1.997  11.211 -0.0954  0.1055 -0.1602
 9965TIP3    H154090   2.422   1.990  11.116  0.6255  0.6648 -0.2829
 9965TIP3    H254091   2.483   1.919  11.235  1.8783  1.1853 -0.5924
 9966TIP3   OH254092   6.698   5.982  11.354  0.0503 -0.1123 -0.1261
 9966TIP3    H154093   6.678   6.066  11.313  0.4196  0.4054  0.7032
 9966TIP3    H254094   6.637   5.976  11.427  0.3233 -0.3521  0.0852
 9967TIP3   OH254095   2.172   6.742  13.354 -0.0868 -1.1918 -0.3144
 9967TIP3    H154096   2.178   6.777  13.443  1.1719 -0.1242 -0.7897
 9967TIP3    H254097   2.078   6.741  13.335 -0.2389  1.6970 -0.1293
 9968TIP3   OH254098   4.148   4.081  11.307 -0.0585  1.0982  0.5678
 9968TIP3    H154099   4.140   4.049  11.217  1.7690  1.9809  0.0248
 9968TIP3    H254100   4.090   4.156  11.312  0.3061  1.4299 -0.0890
 9969TIP3   OH254101   0.042   1.084  11.195 -0.1251 -0.3912 -0.5593
 9969TIP3    H154102   0.062   1.152  11.259 -1.6718 -1.8909  1.6344
 9969TIP3    H254103   0.120   1.081  11.139  1.7714  0.2673  1.8793
 9970TIP3   OH254104   5.033   7.036  11.059  0.7286  0.3246 -0.2656
 9970TIP3    H154105   5.060   7.059  11.147  0.8145 -0.8125  0.0165
 9970TIP3    H254106   5.115   7.024  11.011  0.6870  0.5401 -0.3901
 9971TIP3   OH254107   2.572   2.375  12.108 -0.5308  0.1825 -0.4143
 9971TIP3    H154108   2.644   2.317  12.083  0.1826  1.1571 -0.6896
 9971TIP3    H254109   2.556   2.429  12.030 -0.7349  0.7932  0.0414
 9972TIP3   OH254110   6.004   7.421  12.585  0.2152  0.5725  0.1520
 9972TIP3    H154111   6.057   7.352  12.624  1.1526  0.7254 -0.8127
 9972TIP3    H254112   6.064   7.469  12.528 -0.8208  1.0914 -0.5476
 9973TIP3   OH254113   5.165   2.993  13.526  0.0187 -0.2190 -0.0841
 9973TIP3    H154114   5.224   3.061  13.560 -0.6860  0.4370 -0.1548
 9973TIP3    H254115   5.158   3.011  13.433 -0.4766 -0.1556 -0.0361
 9974TIP3   OH254116   1.003   7.280  11.955  0.6348 -0.3562  0.0527
 9974TIP3    H154117   0.940   7.309  11.890  0.6866 -2.5036 -1.0537
 9974TIP3    H254118   0.953   7.276  12.037  0.2226  1.0579 -0.1068
 9975TIP3   OH254119   3.894   0.096  11.563 -0.2432 -0.2592 -0.0958
 9975TIP3    H154120   3.960   0.146  11.611 -0.6801  0.1071  0.1350
 9975TIP3    H254121   3.838   0.163  11.524 -0.0003 -0.5523 -0.9754
 9976TIP3   OH254122   5.468   2.238  12.030  0.1126 -0.1980 -0.0813
 9976TIP3    H154123   5.443   2.239  11.938  1.8329  0.7221 -0.5793
 9976TIP3    H254124   5.491   2.328  12.050  1.8441 -0.7510  0.6145
 9977TIP3   OH254125   1.280   0.857  10.708  0.3799 -0.2959  0.0368
 9977TIP3    H154126   1.373   0.848  10.691  0.1318 -1.0736 -1.0784
 9977TIP3    H254127   1.264   0.951  10.710  1.1003 -0.1612 -0.2868
 9978TIP3   OH254128   6.619   7.617  11.751 -0.1663 -0.0512 -0.3072
 9978TIP3    H154129   6.602   7.626  11.845 -0.3875  1.5553 -0.4585
 9978TIP3    H254130   6.699   7.668  11.736 -0.9425  0.9759 -1.1845
 9979TIP3   OH254131   0.006   5.487  11.172 -0.5363 -0.1244 -0.4832
 9979TIP3    H154132   0.090   5.474  11.216 -0.4733  0.5294 -0.4036
 9979TIP3    H254133   0.026   5.476  11.079  0.2734  2.8122 -0.7736
 9980TIP3   OH254134   2.378   2.239  12.286 -0.1673 -0.4140  0.3040
 9980TIP3    H154135   2.415   2.154  12.260 -1.1877 -0.8966  0.3677
 9980TIP3    H254136   2.444   2.303  12.259 -0.7231 -0.9524 -2.6876
 9981TIP3   OH254137   4.514   5.636  11.279 -0.0480 -0.0876 -0.0240
 9981TIP3    H154138   4.607   5.651  11.298  0.0431 -0.0251 -0.5077
 9981TIP3    H254139   4.499   5.681  11.196 -0.7547  0.7631  0.5486
 9982TIP3   OH254140   1.165   2.230  10.136 -0.4592  0.5034  0.1040
 9982TIP3    H154141   1.109   2.199  10.207  0.6659  0.0856  0.8422
 9982TIP3    H254142   1.129   2.189  10.058 -0.6254 -0.5271  0.6990
 9983TIP3   OH254143   2.710   1.964  12.418  0.5893  0.3704  0.0431
 9983TIP3    H154144   2.771   1.909  12.467  0.0457 -0.2269  0.0631
 9983TIP3    H254145   2.706   1.925  12.331 -0.9661 -0.5697  0.4957
 9984TIP3   OH254146   3.129   3.679  12.157 -0.1079 -0.2525  0.1393
 9984TIP3    H154147   3.182   3.636  12.224  1.7899  1.6676 -0.0086
 9984TIP3    H254148   3.170   3.654  12.074  1.9334  2.6832  0.0963
 9985TIP3   OH254149   4.795   5.650  11.278  0.5420 -0.1104 -0.2714
 9985TIP3    H154150   4.809   5.667  11.185  0.5571  0.1060 -0.2292
 9985TIP3    H254151   4.881   5.662  11.317  0.7545 -1.1711 -0.3727
 9986TIP3   OH254152   7.033   4.927  13.147  0.0313 -0.7294 -0.0205
 9986TIP3    H154153   7.077   5.001  13.104 -0.0781 -0.5668  0.1477
 9986TIP3    H254154   6.957   4.966  13.190  0.9810 -0.6227  1.6521
 9987TIP3   OH254155   0.850   5.012  12.206  0.4104 -0.1777  0.0520
 9987TIP3    H154156   0.809   5.034  12.122 -0.0987  0.2915  0.4235
 9987TIP3    H254157   0.935   5.056  12.202  0.2033  0.2192 -0.0323
 9988TIP3   OH254158   5.103   7.309  10.533 -0.3169 -0.4032  0.0954
 9988TIP3    H154159   5.148   7.392  10.515  0.0363 -0.2390  1.6684
 9988TIP3    H254160   5.169   7.242  10.517 -0.6314 -0.4295 -1.2792
 9989TIP3   OH254161   5.605   7.144  10.690 -0.4612 -0.3006 -0.5377
 9989TIP3    H154162   5.632   7.094  10.767 -2.1269 -0.7198 -0.1890
 9989TIP3    H254163   5.539   7.089  10.648 -0.2622  0.3489 -1.7514
 9990TIP3   OH254164   5.959   7.519  11.148  0.2213 -0.2389 -0.0457
 9990TIP3    H154165   6.029   7.541  11.209  0.3278 -0.9706  0.0962
 9990TIP3    H254166   5.995   7.539  11.062  0.4796 -0.2837  0.0512
 9991TIP3   OH254167   6.992   7.416  10.848 -0.9679 -0.2851 -0.9162
 9991TIP3    H154168   6.984   7.510  10.833  0.6175 -0.1606 -1.0624
 9991TIP3    H254169   7.085   7.401  10.866 -0.9624 -1.9809 -2.0547
 9992TIP3   OH254170   0.820   4.294  10.961 -0.3982 -0.1868 -0.1169
 9992TIP3    H154171   0.914   4.276  10.964 -0.4562 -0.3599  1.0299
 9992TIP3    H254172   0.782   4.213  10.926 -0.0603  0.2399 -1.5752
 9993TIP3   OH254173   7.094   7.008  11.166  0.0234 -0.2231 -0.0962
 9993TIP3    H154174   7.056   7.065  11.233  0.7850 -0.5760  0.6510
 9993TIP3    H254175   7.047   7.031  11.086  0.1474  1.3015  0.2364
 9994TIP3   OH254176   0.765   0.285  10.303 -0.7028  0.0941 -0.0863
 9994TIP3    H154177   0.777   0.368  10.349 -1.4270  0.4756 -0.5663
 9994TIP3    H254178   0.726   0.309  10.219 -2.6978 -0.8513  0.4990
 9995TIP3   OH254179   5.835   1.475  11.525  0.0421 -0.5440  0.5935
 9995TIP3    H154180   5.800   1.411  11.463 -0.4717  0.2178  0.0711
 9995TIP3    H254181   5.785   1.555  11.507  2.3436  0.7287 -0.5131
 9996TIP3   OH254182   4.731   0.322  11.646  0.3930  0.2324  0.1644
 9996TIP3    H154183   4.814   0.343  11.689  0.7671  2.6834 -1.5763
 9996TIP3    H254184   4.699   0.406  11.612 -1.6707 -1.0146 -1.2012
 9997TIP3   OH254185   2.108   0.803  12.711 -0.5868 -0.1457  0.1808
 9997TIP3    H154186   2.189   0.752  12.702 -0.3142  0.4285 -0.8028
 9997TIP3    H254187   2.039   0.737  12.723 -0.1965 -0.7284 -0.6897
 9998TIP3   OH254188   7.593   0.055  12.743  0.0248  0.4054  0.1235
 9998TIP3    H154189   7.538   0.119  12.697 -0.2241 -0.1395 -0.3612
 9998TIP3    H254190   7.623   0.100  12.821 -0.7291  0.8766  0.1498
 9999TIP3   OH254191   1.094   6.225  12.626 -0.3018  0.4584 -0.3851
 9999TIP3    H154192   1.025   6.163  12.601 -0.2396 -0.1585  0.9095
 9999TIP3    H254193   1.170   6.170  12.645 -0.0050  0.9987  0.0059
10000TIP3   OH254194   7.431   5.118  12.926  0.6303 -0.1371  0.5404
10000TIP3    H154195   7.469   5.185  12.983 -0.0298 -1.2051  2.3413
10000TIP3    H254196   7.454   5.035  12.968  1.1743 -1.0653 -1.4689
10001TIP3   OH254197   0.766   4.688  13.674  0.2056 -0.5020  0.0572
10001TIP3    H154198   0.694   4.732  13.629  0.6872  1.2928  0.9170
10001TIP3    H254199   0.804   4.629  13.609 -0.5213  0.3406 -1.1652
10002TIP3   OH254200   5.807   2.076  11.713 -0.2246 -0.8342  0.1396
10002TIP3    H154201   5.804   2.117  11.800  0.6043  0.5341 -0.4297
10002TIP3    H254202   5.892   2.032  11.711 -0.2790 -0.9354  0.0605
10003TIP3   OH254203   7.110   1.732  10.775 -0.3737  0.7549  0.3737
10003TIP3    H154204   7.194   1.752  10.818  1.5678 -3.1132 -1.1000
10003TIP3    H254205   7.105   1.794  10.703  2.8803 -0.6202 -1.2677
10004TIP3   OH254206   2.421   7.329  10.530 -0.4198 -0.3991 -0.2767
10004TIP3    H154207   2.371   7.323  10.450 -1.1146  0.0344  0.1197
10004TIP3    H254208   2.412   7.242  10.571 -0.7785 -0.3436 -0.2415
10005TIP3   OH254209   6.922   2.066  10.812  0.1468  0.3007 -0.1628
10005TIP3    H154210   6.880   2.150  10.831 -2.0025 -0.8824  0.6127
10005TIP3    H254211   6.935   2.067  10.717 -0.6109  1.1901 -0.2692
10006TIP3   OH254212   1.651   3.359  11.979  0.5870 -0.6352 -0.4521
10006TIP3    H154213   1.711   3.433  11.970  1.8794 -1.6333 -0.2621
10006TIP3    H254214   1.578   3.394  12.031  2.0449  0.0090  1.2418
10007TIP3   OH254215   2.267   3.886  10.600 -0.2089 -0.1376 -0.1872
10007TIP3    H154216   2.279   3.936  10.680  1.5997 -0.2429 -0.3516
10007TIP3    H254217   2.174   3.891  10.582 -0.5151  0.5920  1.4602
10008TIP3   OH254218   6.115   5.706  11.712 -0.0049  0.2288  0.3600
10008TIP3    H154219   6.137   5.639  11.776  1.1098  0.3307  0.1069
10008TIP3    H254220   6.022   5.694  11.695  0.1994 -1.3385  0.2264
10009TIP3   OH254221   3.140   0.674  10.406  0.7261 -0.3270  0.0918
10009TIP3    H154222   3.067   0.613  10.409  1.9020 -1.8930 -0.9227
10009TIP3    H254223   3.177   0.672  10.494  0.8551 -1.2615  0.0268
10010TIP3   OH254224   1.684   2.694  13.347 -0.1438  0.0396 -0.0544
10010TIP3    H154225   1.655   2.785  13.344 -0.9646 -0.1964  0.2748
10010TIP3    H254226   1.611   2.648  13.387 -0.6979 -1.1418 -2.2580
10011TIP3   OH254227   5.879   2.600  13.146 -0.3077  0.6065  0.2281
10011TIP3    H154228   5.817   2.669  13.167  1.3284  1.6068  2.1815
10011TIP3    H254229   5.956   2.647  13.113  0.3548 -0.3720  0.3388
10012TIP3   OH254230   5.332   0.566  11.620 -0.4697  0.1019  0.2531
10012TIP3    H154231   5.338   0.491  11.561 -0.5309 -0.3964  0.8672
10012TIP3    H254232   5.371   0.535  11.702  3.0246  1.9075 -0.5380
10013TIP3   OH254233   4.022   0.407  11.565  0.0902  0.2307 -0.0847
10013TIP3    H154234   3.933   0.415  11.530  0.5388  3.0826 -0.8232
10013TIP3    H254235   4.010   0.418  11.660 -0.3436  1.1118 -0.2231
10014TIP3   OH254236   7.512   1.696  12.069 -0.5740 -0.3972  0.2739
10014TIP3    H154237   7.543   1.619  12.021  2.0367  1.8585 -2.0688
10014TIP3    H254238   7.583   1.715  12.131  0.5666  1.9252 -1.5688
10015TIP3   OH254239   7.622   2.280  12.070 -0.2710 -0.2816 -0.0678
10015TIP3    H154240   7.535   2.242  12.063 -0.0248 -0.9519  0.4446
10015TIP3    H254241   7.682   2.207  12.057  0.2084 -0.0167  0.5862
10016TIP3   OH254242   3.551   6.975  12.716 -0.4769 -0.1004  0.1759
10016TIP3    H154243   3.464   6.946  12.743  0.1527 -1.0209  1.3416
10016TIP3    H254244   3.610   6.908  12.750  0.5504 -0.6446 -2.4189
10017TIP3   OH254245   3.362   1.259  11.155 -0.0870 -0.3763 -0.1424
10017TIP3    H154246   3.296   1.189  11.155 -0.0137 -0.4573  0.8238
10017TIP3    H254247   3.442   1.216  11.187 -0.0838  0.1767  0.6207
10018TIP3   OH254248   1.905   1.848  11.897 -0.3917 -0.1805 -0.0486
10018TIP3    H154249   1.912   1.808  11.984 -1.1815  1.0526  0.6032
10018TIP3    H254250   1.928   1.940  11.910  3.8224 -0.7171 -1.9405
10019TIP3   OH254251   1.974   7.426  11.246 -0.2409  0.4815  0.0969
10019TIP3    H154252   2.017   7.476  11.316 -2.6306  0.3894  1.7099
10019TIP3    H254253   1.982   7.335  11.272 -0.3344  0.3694 -0.2542
10020TIP3   OH254254   0.383   5.640  12.099 -0.2035  0.2402 -0.0295
10020TIP3    H154255   0.416   5.665  12.012  2.0937 -2.0270  0.0485
10020TIP3    H254256   0.289   5.659  12.096  0.0270  1.3698 -2.5566
10021TIP3   OH254257   5.632   2.386  11.511 -0.0450 -0.0828  0.7270
10021TIP3    H154258   5.697   2.341  11.457  0.8158  1.2315  0.6331
10021TIP3    H254259   5.550   2.374  11.463  0.7093  1.1772 -1.0167
10022TIP3   OH254260   0.294   5.290  12.032  0.3301 -0.5012 -0.8780
10022TIP3    H154261   0.306   5.204  11.993  0.4032 -0.3436 -1.2071
10022TIP3    H254262   0.356   5.346  11.986  0.0843 -0.2124 -0.8595
10023TIP3   OH254263   6.828   0.780  13.160  0.9909  0.0736  0.3192
10023TIP3    H154264   6.823   0.721  13.236 -0.8654 -2.7138 -1.7780
10023TIP3    H254265   6.737   0.807  13.144  0.7621 -2.0266 -2.7042
10024TIP3   OH254266   6.790   0.869  12.058  0.7361  0.0532 -0.2277
10024TIP3    H154267   6.877   0.855  12.096  0.4109 -0.9904  0.1625
10024TIP3    H254268   6.774   0.791  12.006  0.5177  0.7818 -1.2751
10025TIP3   OH254269   1.204   6.842  10.584 -0.0251  0.0973  0.4365
10025TIP3    H154270   1.209   6.930  10.548 -0.5952  0.0740  0.2897
10025TIP3    H254271   1.154   6.852  10.665 -1.9939 -0.3890 -0.6547
10026TIP3   OH254272   2.403   5.146  12.112  0.5068 -0.0115 -0.1705
10026TIP3    H154273   2.395   5.051  12.124 -0.9029  0.2509  1.3204
10026TIP3    H254274   2.387   5.160  12.018  0.6131 -1.2339 -0.3876
10027TIP3   OH254275   7.375   4.665  11.159 -0.2610  0.1135 -0.0074
10027TIP3    H154276   7.366   4.645  11.065  0.2452 -0.6116  0.0862
10027TIP3    H254277   7.311   4.608  11.202  0.5615 -0.6778  0.1953
10028TIP3   OH254278   0.903   2.685  11.610 -0.2241  0.3393 -0.0720
10028TIP3    H154279   0.857   2.767  11.590 -1.7671 -0.6344 -0.7573
10028TIP3    H254280   0.948   2.662  11.529 -0.9969 -0.2120 -0.3576
10029TIP3   OH254281   4.755   7.420  12.815 -0.1801 -0.0273 -0.2613
10029TIP3    H154282   4.749   7.515  12.819 -0.6671 -0.0829  0.6031
10029TIP3    H254283   4.702   7.390  12.889  2.7331 -0.8657  1.6981
10030TIP3   OH254284   5.222   7.428  11.185  0.4982  0.5396  0.2438
10030TIP3    H154285   5.126   7.425  11.180  0.5280 -0.1317 -0.1188
10030TIP3    H254286   5.244   7.519  11.166 -0.0900  0.8030  0.7938
10031TIP3   OH254287   4.475   0.699  11.215 -0.2061 -0.0145 -0.0579
10031TIP3    H154288   4.479   0.745  11.299 -1.2931  0.2318 -0.1262
10031TIP3    H254289   4.462   0.607  11.238  0.9130 -0.1538  0.0588
10032TIP3   OH254290   1.613   5.442  12.837 -0.3999 -0.8737  0.1229
10032TIP3    H154291   1.579   5.502  12.903 -0.8472 -1.3006  0.2885
10032TIP3    H254292   1.660   5.375  12.886 -2.7660 -2.5574  0.2629
10033TIP3   OH254293   1.540   0.780  10.680  0.2130 -0.0135 -0.1257
10033TIP3    H154294   1.546   0.684  10.675 -0.7057 -0.1445  0.9122
10033TIP3    H254295   1.599   0.804  10.750  0.7834  0.2328 -0.6862
10034TIP3   OH254296   5.811   6.434  12.915  0.1836 -0.3265  0.0172
10034TIP3    H154297   5.797   6.467  12.826  0.8621 -0.4589 -0.1449
10034TIP3    H254298   5.762   6.495  12.971  0.1357  0.0300 -0.4063
10035TIP3   OH254299   3.490   4.390  11.537 -0.3939 -0.3895 -0.2646
10035TIP3    H154300   3.577   4.382  11.575 -0.5221 -1.3424 -0.1406
10035TIP3    H254301   3.461   4.300  11.525 -0.4349 -0.1245 -2.4737
10036TIP3   OH254302   1.870   5.673  11.862 -0.1039 -0.7276 -0.5484
10036TIP3    H154303   1.846   5.610  11.930  0.9035 -0.5866 -0.0426
10036TIP3    H254304   1.856   5.626  11.780  1.3647 -1.9177 -0.1711
10037TIP3   OH254305   3.399   3.521  11.681 -0.0206 -0.3557  0.3370
10037TIP3    H154306   3.362   3.433  11.682 -0.7681 -0.1026 -1.2784
10037TIP3    H254307   3.493   3.507  11.667  0.4688 -0.9653  3.4998
10038TIP3   OH254308   1.414   5.129  13.200  0.0118  0.3692  0.0026
10038TIP3    H154309   1.484   5.194  13.211  0.6923 -0.3198 -0.1697
10038TIP3    H254310   1.357   5.142  13.276  0.0191  1.2989 -0.1296
10039TIP3   OH254311   0.152   2.096  13.353  0.4933 -0.2055 -0.4878
10039TIP3    H154312   0.133   2.163  13.418  1.3645  1.5777 -1.9852
10039TIP3    H254313   0.198   2.142  13.283  2.1053 -2.5876 -1.1097
10040TIP3   OH254314   1.932   6.836  11.877  0.6487  1.2140  0.5309
10040TIP3    H154315   1.909   6.892  11.803  0.4594 -0.2521 -0.5546
10040TIP3    H254316   1.941   6.748  11.840  0.3708  0.3952  2.2702
10041TIP3   OH254317   6.569   6.704  12.131 -0.5637  0.2618  0.0169
10041TIP3    H154318   6.522   6.630  12.168 -1.1468  0.8017  0.3719
10041TIP3    H254319   6.653   6.704  12.178 -0.1030 -0.8177 -0.7628
10042TIP3   OH254320   2.280   1.730  12.080 -0.4030 -0.8181  0.6345
10042TIP3    H154321   2.191   1.749  12.049 -0.3181  1.3134  1.5215
10042TIP3    H254322   2.300   1.802  12.139  2.3164 -0.7158 -0.3127
10043TIP3   OH254323   3.376   5.579  10.954 -0.0127 -0.8805 -0.0460
10043TIP3    H154324   3.414   5.537  11.031 -0.4699 -0.5479  0.3712
10043TIP3    H254325   3.419   5.664  10.949  1.5417 -1.7108 -1.3978
10044TIP3   OH254326   5.476   5.407  11.987 -0.2601  0.3665 -0.6518
10044TIP3    H154327   5.398   5.462  11.979 -1.8471 -1.8391 -1.1389
10044TIP3    H254328   5.515   5.433  12.071 -2.6936  0.1414  0.6496
10045TIP3   OH254329   3.142   7.589  12.146 -0.2865  0.2173  0.2647
10045TIP3    H154330   3.127   7.622  12.057  0.4976 -0.0967  0.0045
10045TIP3    H254331   3.097   7.505  12.149  2.0260 -1.1628 -0.8104
10046TIP3   OH254332   7.269   4.057  11.333  0.0714 -0.0796  0.2001
10046TIP3    H154333   7.195   4.044  11.392 -1.0626 -1.5042 -1.4441
10046TIP3    H254334   7.234   4.111  11.262  0.3666 -1.3033 -0.9260
10047TIP3   OH254335   5.146   3.290  12.493  0.2180 -0.0927 -0.0632
10047TIP3    H154336   5.198   3.261  12.418  0.1220 -2.3374  0.6843
10047TIP3    H254337   5.061   3.314  12.455 -0.3068 -2.5061 -0.5989
10048TIP3   OH254338   1.315   0.038  11.595 -0.2578  0.4227 -0.7577
10048TIP3    H154339   1.351  -0.045  11.627 -0.7711  1.0273  1.5327
10048TIP3    H254340   1.221   0.026  11.598 -0.3338  1.0514 -0.4818
10049TIP3   OH254341   4.090   7.096  10.885  0.6066 -0.5947 -0.2642
10049TIP3    H154342   4.138   7.041  10.947  1.2018  0.3769  0.1708
10049TIP3    H254343   4.022   7.137  10.938  0.9543  0.0365 -0.2940
10050TIP3   OH254344   5.606   7.387  13.282  0.1523 -0.1735 -0.1834
10050TIP3    H154345   5.558   7.449  13.229  0.6030  1.0959  0.8360
10050TIP3    H254346   5.635   7.437  13.358 -0.3603 -1.8736  1.2105
10051TIP3   OH254347   0.460   6.291  10.553 -0.0205  0.2996 -0.1936
10051TIP3    H154348   0.493   6.260  10.637 -1.4532 -1.9952 -0.4010
10051TIP3    H254349   0.525   6.262  10.489 -0.8304 -1.4987 -0.2624
10052TIP3   OH254350   7.502   5.376  11.794 -0.0327 -0.2843 -0.3409
10052TIP3    H154351   7.412   5.380  11.827  0.3409  0.8103  0.5801
10052TIP3    H254352   7.510   5.287  11.759 -0.7607 -1.2246  1.6870
10053TIP3   OH254353   6.253   0.535  11.547  0.2892 -0.1357 -0.2875
10053TIP3    H154354   6.263   0.615  11.496  0.3994 -0.5342 -0.9075
10053TIP3    H254355   6.271   0.464  11.484 -1.8866 -0.7386 -0.2907
10054TIP3   OH254356   7.592   2.994  11.728  0.1343 -0.0101 -0.2400
10054TIP3    H154357   7.577   2.900  11.740  1.2599 -0.2285 -0.4834
10054TIP3    H254358   7.687   3.002  11.717  0.1554  1.2568  0.7058
10055TIP3   OH254359   5.921   5.195  11.853 -0.0171  0.4943 -0.3266
10055TIP3    H154360   5.838   5.215  11.895  0.2243 -1.2496  1.1283
10055TIP3    H254361   5.905   5.112  11.806  1.2649 -0.7825  1.3624
10056TIP3   OH254362   2.074   4.183  11.579 -0.4619  0.2053  0.0998
10056TIP3    H154363   2.031   4.264  11.609 -0.0913  0.4589 -0.0500
10056TIP3    H254364   2.011   4.114  11.600 -1.2579  0.6501 -0.7799
10057TIP3   OH254365   1.305   2.550  12.785 -0.1575  0.2336  0.1097
10057TIP3    H154366   1.282   2.573  12.875  1.5137 -2.6365  1.4166
10057TIP3    H254367   1.286   2.457  12.778  1.3167  0.0016 -1.9541
10058TIP3   OH254368   7.174   5.449  12.309 -0.0446  0.1060  0.2593
10058TIP3    H154369   7.114   5.486  12.374 -1.0967  1.2421 -1.2843
10058TIP3    H254370   7.128   5.459  12.226  0.8237 -2.2296 -0.5902
10059TIP3   OH254371   0.104   3.074  13.442  0.1722  0.2375  0.1737
10059TIP3    H154372   0.158   3.032  13.375  0.1158  1.2995 -0.5556
10059TIP3    H254373   0.112   3.017  13.518 -1.2113 -2.0295 -1.2552
10060TIP3   OH254374   0.602   2.973  12.205  0.1219 -0.5280  0.5958
10060TIP3    H154375   0.669   2.930  12.153 -1.7912 -1.3999 -1.2767
10060TIP3    H254376   0.560   2.902  12.254 -0.8861 -0.3366  0.0290
10061TIP3   OH254377   7.371   5.705  10.917 -0.4060  0.3675 -0.4112
10061TIP3    H154378   7.427   5.696  10.840  0.2085  3.0255 -0.3723
10061TIP3    H254379   7.282   5.694  10.884 -0.2169  2.4051 -1.7712
10062TIP3   OH254380   5.899   6.492  11.542  0.7887 -0.1359  0.1920
10062TIP3    H154381   5.953   6.416  11.566  0.2599 -0.7420 -0.4631
10062TIP3    H254382   5.909   6.499  11.447  0.0166 -0.0314  0.1102
10063TIP3   OH254383   0.786   5.422  12.575 -0.4755 -0.1225 -0.1784
10063TIP3    H154384   0.691   5.432  12.581 -0.4870  0.7048 -1.2529
10063TIP3    H254385   0.821   5.503  12.614 -0.2754  0.2546 -1.1106
10064TIP3   OH254386   0.159   5.258  11.354  0.4861 -0.5726  0.3973
10064TIP3    H154387   0.232   5.310  11.321 -0.4950 -0.3073 -1.4680
10064TIP3    H254388   0.171   5.172  11.313  1.3320 -1.4594  2.3824
10065TIP3   OH254389   0.423   5.926  11.532 -0.2075  0.3964  0.2836
10065TIP3    H154390   0.368   5.999  11.560  0.5274  0.1217  2.6622
10065TIP3    H254391   0.511   5.949  11.562  0.7208  0.0381 -1.9236
10066TIP3   OH254392   2.839   2.850  11.682 -0.2919 -0.6561 -0.4016
10066TIP3    H154393   2.766   2.798  11.648 -0.7162  0.2049 -0.8265
10066TIP3    H254394   2.798   2.919  11.734  0.3218 -1.6209  1.4633
10067TIP3   OH254395   2.675   3.614  12.820  0.7957 -0.0565 -0.4706
10067TIP3    H154396   2.631   3.638  12.902 -0.0329  0.6382 -1.1013
10067TIP3    H254397   2.605   3.581  12.764  1.5420 -1.7456 -0.4878
10068TIP3   OH254398   2.934   4.945  10.907  0.3082 -0.0466 -0.8180
10068TIP3    H154399   2.932   5.031  10.950  0.1041 -0.6242  0.3782
10068TIP3    H254400   3.027   4.927  10.893  0.4972 -0.4406  0.6894
10069TIP3   OH254401   3.006   2.600  12.386  0.1651  0.6302  0.1288
10069TIP3    H154402   2.993   2.529  12.323  1.3441  1.0935 -0.6820
10069TIP3    H254403   2.924   2.649  12.386  0.5479  1.3701 -2.0430
10070TIP3   OH254404   5.364   0.660  12.761  0.0993  0.1918 -0.2473
10070TIP3    H154405   5.412   0.742  12.751  0.1812  0.0736 -0.9238
10070TIP3    H254406   5.411   0.597  12.705 -0.8208  0.0783 -0.9345
10071TIP3   OH254407   1.005   6.649  11.670  0.3850  0.1290 -0.2059
10071TIP3    H154408   1.069   6.705  11.714  1.2480 -0.0036 -1.2501
10071TIP3    H254409   1.053   6.568  11.652  0.8417  1.0102 -3.4854
10072TIP3   OH254410   4.971   0.342  11.789  0.0428 -0.4885 -0.2802
10072TIP3    H154411   5.011   0.257  11.770 -0.0449 -0.6633  0.2874
10072TIP3    H254412   4.940   0.334  11.879 -1.4614 -0.4349 -0.7647
10073TIP3   OH254413   7.319   5.172  11.289 -0.2333 -0.3862  0.4435
10073TIP3    H154414   7.260   5.114  11.241  1.4343 -1.3352 -0.5497
10073TIP3    H254415   7.359   5.227  11.222  1.4541 -1.1110  0.7891
10074TIP3   OH254416   6.341   7.073  11.691 -0.7745  0.6627  0.3951
10074TIP3    H154417   6.397   7.093  11.616 -1.1142 -0.1435 -0.0955
10074TIP3    H254418   6.363   7.139  11.756  0.3131  0.7199 -0.0053
10075TIP3   OH254419   6.360   5.395  10.981 -0.4944 -0.1814 -0.3575
10075TIP3    H154420   6.275   5.389  10.939  0.2579 -0.3446 -1.9380
10075TIP3    H254421   6.418   5.341  10.926  0.5772 -0.2828  0.8133
10076TIP3   OH254422   4.118   0.152  13.467 -0.6462 -0.0298 -0.1655
10076TIP3    H154423   4.075   0.229  13.430  0.3760  0.8928  0.5082
10076TIP3    H254424   4.150   0.103  13.391  0.1721  1.0904 -0.5713
10077TIP3   OH254425   3.982   4.038  12.996 -0.4884  0.6068  0.0896
10077TIP3    H154426   3.963   4.118  12.947 -1.2463  0.0483 -0.5553
10077TIP3    H254427   3.904   3.983  12.984  0.3650 -0.5881 -0.2021
10078TIP3   OH254428   2.209   1.014  13.017 -0.3058  0.1558  0.0188
10078TIP3    H154429   2.128   1.050  13.053 -0.0685  0.6038  0.1153
10078TIP3    H254430   2.216   0.927  13.055 -0.4347  0.3471  0.4909
10079TIP3   OH254431   6.514   5.630  11.571  0.3336  0.2032  0.1722
10079TIP3    H154432   6.593   5.650  11.520 -0.0527  0.8577 -0.1854
10079TIP3    H254433   6.476   5.555  11.527  0.3343  0.3815 -0.1370
10080TIP3   OH254434   2.829   7.196  12.137  0.1506  0.0591 -0.5730
10080TIP3    H154435   2.794   7.196  12.048 -0.7655 -2.0245 -0.2693
10080TIP3    H254436   2.868   7.109  12.147 -1.1187 -0.3429  1.5167
10081TIP3   OH254437   2.036   4.346  13.022  0.0258 -0.1611 -0.5849
10081TIP3    H154438   2.086   4.273  13.059 -1.6309  0.3021  2.9629
10081TIP3    H254439   2.094   4.421  13.030  0.3451 -0.3991 -0.6467
10082TIP3   OH254440   2.141   0.761  10.639  0.5323 -0.5113 -0.2370
10082TIP3    H154441   2.060   0.725  10.676  0.6508 -0.4585  0.0748
10082TIP3    H254442   2.195   0.684  10.620 -0.7372 -0.8120 -3.2516
10083TIP3   OH254443   5.544   6.278  12.769  0.1435  0.4275 -0.1791
10083TIP3    H154444   5.462   6.318  12.739  0.0669 -0.1834 -0.7899
10083TIP3    H254445   5.559   6.318  12.855  0.6483  2.6327 -1.2105
10084TIP3   OH254446   2.574   6.154  12.710  0.5846 -0.3371 -0.0163
10084TIP3    H154447   2.531   6.239  12.715 -0.1263 -0.3075 -3.5158
10084TIP3    H254448   2.636   6.162  12.637  3.5463 -1.6887  2.1422
10085TIP3   OH254449   0.071   0.307  11.513  0.6532 -0.0752 -0.0574
10085TIP3    H154450   0.144   0.275  11.461 -0.0924  0.3706 -1.4292
10085TIP3    H254451   0.052   0.394  11.478  1.2212  0.9908  2.1365
10086TIP3   OH254452   2.649   5.667  11.947 -0.1756  0.1590  0.1336
10086TIP3    H154453   2.699   5.703  11.874 -1.6363  1.4830 -0.2680
10086TIP3    H254454   2.616   5.744  11.994 -1.7220 -0.6311  0.4244
10087TIP3   OH254455   1.821   7.302  11.981  0.2306 -0.0855  0.0105
10087TIP3    H154456   1.900   7.256  12.008  0.5119  1.8583  2.9549
10087TIP3    H254457   1.837   7.326  11.890  3.3334  0.7804  0.6684
10088TIP3   OH254458   0.742   1.415  10.886 -0.3776 -0.5327  0.0237
10088TIP3    H154459   0.785   1.333  10.909 -0.9842 -0.6909  0.6609
10088TIP3    H254460   0.792   1.482  10.933  0.3866 -0.4709 -0.8475
10089TIP3   OH254461   2.172   7.160  11.746 -0.1583  0.0775 -0.0603
10089TIP3    H154462   2.093   7.137  11.698  0.5795  0.3587 -1.4458
10089TIP3    H254463   2.161   7.118  11.832 -2.1220  0.7245  0.0517
10090TIP3   OH254464   7.339   5.499  10.544  0.1867 -0.0376 -0.2322
10090TIP3    H154465   7.286   5.573  10.573  0.2793 -0.7899  2.0337
10090TIP3    H254466   7.283   5.450  10.483 -0.7944  0.5141  0.2255
10091TIP3   OH254467   1.766   0.703  11.305 -0.2386 -0.2101 -0.4374
10091TIP3    H154468   1.738   0.779  11.354  1.1429 -0.0049  0.0920
10091TIP3    H254469   1.862   0.709  11.303 -0.0449 -2.2095  0.0943
10092TIP3   OH254470   2.302   6.070  11.494 -0.0854  0.2469 -0.2839
10092TIP3    H154471   2.293   6.138  11.561 -0.5629 -0.2501  0.1585
10092TIP3    H254472   2.371   6.103  11.436  0.4040  0.6275  0.5080
10093TIP3   OH254473   6.363   1.030  12.518  0.2377  0.6576 -0.0336
10093TIP3    H154474   6.313   1.095  12.470  0.7613  1.1798  0.1249
10093TIP3    H254475   6.321   1.026  12.604  0.1074  0.6698 -0.0972
10094TIP3   OH254476   7.156   2.486  13.153 -0.1680 -0.2587  0.4052
10094TIP3    H154477   7.190   2.398  13.169  0.0313 -0.3694 -0.5902
10094TIP3    H254478   7.133   2.519  13.240 -0.0232 -1.2015  0.8082
10095TIP3   OH254479   2.172   4.755  12.820 -0.3139 -0.2924 -0.0164
10095TIP3    H154480   2.129   4.758  12.735 -0.8724  1.4906  0.2984
10095TIP3    H254481   2.265   4.764  12.800 -0.4236 -0.1249 -0.4627
10096TIP3   OH254482   0.579   3.666  13.742 -0.0868 -0.2048  0.4105
10096TIP3    H154483   0.569   3.570  13.738 -0.3362 -0.1376 -2.0880
10096TIP3    H254484   0.653   3.679  13.802  0.8519 -2.0541 -0.2474
10097TIP3   OH254485   5.167   1.442  11.093  0.3593 -0.3040  0.1569
10097TIP3    H154486   5.203   1.389  11.164  1.6250 -2.5748 -2.0242
10097TIP3    H254487   5.102   1.385  11.052 -0.2635  0.9163 -0.6111
10098TIP3   OH254488   6.815   5.700  13.734 -0.0985  0.0772 -0.1952
10098TIP3    H154489   6.852   5.735  13.653 -2.0220  2.9555  0.0222
10098TIP3    H254490   6.732   5.661  13.708 -0.4685  0.5164  0.3033
10099TIP3   OH254491   1.095   2.379  11.817 -0.3784  0.2558  0.2588
10099TIP3    H154492   1.108   2.471  11.795 -1.0196  0.3657  0.3413
10099TIP3    H254493   1.073   2.337  11.733  1.3966 -0.1190 -0.0753
10100TIP3   OH254494   7.036   2.839  10.956 -0.1860  0.0136 -0.0766
10100TIP3    H154495   7.092   2.813  10.883 -1.0293 -0.2919 -0.6234
10100TIP3    H254496   6.963   2.777  10.954 -0.4921  0.3329  0.6998
10101TIP3   OH254497   2.740   3.750  11.546  0.8202 -0.0657  0.7422
10101TIP3    H154498   2.782   3.827  11.586 -0.7631  0.1188  2.1330
10101TIP3    H254499   2.772   3.751  11.455  0.6466  2.3991  0.6388
10102TIP3   OH254500   3.523   7.570  11.424 -0.3626  0.3337 -0.6946
10102TIP3    H154501   3.551   7.496  11.479  0.3065  1.5050  0.5975
10102TIP3    H254502   3.470   7.624  11.483  0.1907  1.5253 -1.2691
10103TIP3   OH254503   5.536   5.550  11.754 -0.0960  0.3080  0.2962
10103TIP3    H154504   5.590   5.478  11.720  0.4016  0.8363 -0.0336
10103TIP3    H254505   5.485   5.509  11.824 -0.2896 -0.5182 -0.3174
10104TIP3   OH254506   4.235   0.322  10.694  0.2416  0.4935 -0.4268
10104TIP3    H154507   4.161   0.313  10.755  0.0521 -1.2574 -0.8859
10104TIP3    H254508   4.305   0.272  10.735  0.4710  0.2631 -1.1037
10105TIP3   OH254509   1.311   5.429  13.120 -0.0716  0.3050  0.2069
10105TIP3    H154510   1.277   5.471  13.199  0.4314  0.3942  0.3780
10105TIP3    H254511   1.389   5.381  13.150 -0.1580 -0.0649 -0.1416
10106TIP3   OH254512   5.573   6.219  12.044  0.2999  0.5054 -0.3872
10106TIP3    H154513   5.556   6.163  11.969 -0.7978  1.5750 -0.9827
10106TIP3    H254514   5.606   6.301  12.006  1.5335  0.4160  0.4289
10107TIP3   OH254515   1.585   5.643  11.484 -0.0042 -0.4803 -0.2366
10107TIP3    H154516   1.607   5.658  11.576 -0.8492 -2.1876  0.3039
10107TIP3    H254517   1.609   5.552  11.469 -0.3533 -0.3675 -1.5666
10108TIP3   OH254518   3.401   3.788  11.889  0.7145  0.6376 -0.0553
10108TIP3    H154519   3.326   3.729  11.893  0.4890  0.9840  1.6611
10108TIP3    H254520   3.477   3.730  11.894  0.4996  0.4281  1.2565
10109TIP3   OH254521   0.811   3.803  12.604  0.5108  0.2988  0.4230
10109TIP3    H154522   0.844   3.780  12.516 -0.3639  0.1496  0.1307
10109TIP3    H254523   0.826   3.897  12.610 -1.8113  0.8359 -0.9581
10110TIP3   OH254524   6.554   4.639  11.039  0.1534 -0.3390 -0.2797
10110TIP3    H154525   6.537   4.690  10.960 -0.8943 -1.6913 -0.9701
10110TIP3    H254526   6.618   4.691  11.088 -0.3321  1.2714 -1.2705
10111TIP3   OH254527   2.753   3.900  12.865  0.5744 -0.1181 -0.5627
10111TIP3    H154528   2.735   3.806  12.859 -1.1737  0.2556 -2.0813
10111TIP3    H254529   2.667   3.940  12.876  1.4041  1.2579  1.4487
10112TIP3   OH254530   4.416   4.383  12.132 -0.1940  0.0204  0.2858
10112TIP3    H154531   4.400   4.349  12.220  0.6913 -0.8678  0.1224
10112TIP3    H254532   4.396   4.477  12.138 -0.6351 -0.1287  1.2920
10113TIP3   OH254533   5.759   5.208  12.316 -0.2715  0.1373 -0.1769
10113TIP3    H154534   5.852   5.225  12.325 -0.4367  0.3971  1.3528
10113TIP3    H254535   5.744   5.201  12.222  1.3394 -0.2538 -0.4250
10114TIP3   OH254536   1.610   0.524  10.709 -0.0323  0.2832 -0.0324
10114TIP3    H154537   1.587   0.495  10.797  3.1578  0.6514  1.0761
10114TIP3    H254538   1.645   0.445  10.666 -2.1743 -0.0576 -1.2971
10115TIP3   OH254539   2.443   1.084  11.693 -0.0245 -0.3152 -0.1867
10115TIP3    H154540   2.468   1.090  11.601  0.6130 -0.2095 -0.0121
10115TIP3    H254541   2.519   1.117  11.741  0.1316 -1.5045  0.4266
10116TIP3   OH254542   7.577   5.917  12.775  0.3000 -0.1194  0.0808
10116TIP3    H154543   7.525   5.850  12.820  0.7811 -0.3752  0.2626
10116TIP3    H254544   7.554   5.999  12.818 -0.5696 -0.1078 -0.3847
10117TIP3   OH254545   5.863   0.305  11.899  0.0399 -0.1509 -0.3402
10117TIP3    H154546   5.927   0.305  11.827 -1.5344 -0.4190 -1.8160
10117TIP3    H254547   5.864   0.395  11.932 -0.7556  0.5931 -2.2018
10118TIP3   OH254548   6.901   4.244  12.104 -0.8864 -0.5754 -0.8522
10118TIP3    H154549   6.974   4.304  12.098 -1.4443  0.3793  1.0265
10118TIP3    H254550   6.826   4.292  12.068 -1.1850 -0.4003 -0.0171
10119TIP3   OH254551   6.798   1.526  12.466  1.0395  0.4731 -0.1418
10119TIP3    H154552   6.846   1.443  12.463  0.3184  0.0206  0.3964
10119TIP3    H254553   6.817   1.561  12.553 -1.4297 -0.8729  1.0482
10120TIP3   OH254554   3.728   4.994  12.677 -0.4916 -0.0782  0.5133
10120TIP3    H154555   3.654   5.055  12.678 -0.3904  0.0437  0.6664
10120TIP3    H254556   3.804   5.051  12.665 -0.4746 -0.2575 -0.3010
10121TIP3   OH254557   5.786   3.892  10.615 -0.2106 -0.3830  0.3612
10121TIP3    H154558   5.829   3.875  10.698  1.3787  0.5117 -0.2227
10121TIP3    H254559   5.818   3.823  10.557  0.1791  0.0719  0.0215
10122TIP3   OH254560   7.653   6.034  12.541 -0.2902  0.6759  0.0351
10122TIP3    H154561   7.611   5.988  12.614 -0.4992  1.6724  0.5638
10122TIP3    H254562   7.580   6.061  12.485 -0.3008  1.5200  0.4311
10123TIP3   OH254563   6.039   0.326  10.832 -0.2341  0.1261 -0.3876
10123TIP3    H154564   5.951   0.326  10.870 -0.5533 -0.3125 -1.1099
10123TIP3    H254565   6.081   0.405  10.867 -1.5095  1.3072 -1.4223
10124TIP3   OH254566   7.380   6.118  11.661  0.2060  0.5104  0.1702
10124TIP3    H154567   7.425   6.158  11.736 -0.0162  0.8166  0.1451
10124TIP3    H254568   7.407   6.027  11.662  0.9052  0.7160  0.0895
10125TIP3   OH254569   4.494   0.490  11.503 -0.2601 -0.2093 -0.1081
10125TIP3    H154570   4.473   0.572  11.547  2.3597 -0.0996  1.1629
10125TIP3    H254571   4.573   0.510  11.453 -0.3689 -1.6190 -0.8817
10126TIP3   OH254572   2.402   0.615  11.993  0.2639 -0.0973 -0.5422
10126TIP3    H154573   2.321   0.590  12.038  0.4116 -1.8229 -1.1609
10126TIP3    H254574   2.383   0.602  11.900  1.3929 -1.0746 -0.6605
10127TIP3   OH254575   1.879   1.124  12.125 -0.4419 -0.1157  0.1503
10127TIP3    H154576   1.973   1.141  12.120 -0.2936 -1.1811 -1.4431
10127TIP3    H254577   1.856   1.144  12.216  1.4153 -0.3047  0.7119
10128TIP3   OH254578   6.410   2.130  12.860 -0.0016 -0.1660 -0.4555
10128TIP3    H154579   6.419   2.170  12.946 -0.4775  0.3347 -0.6322
10128TIP3    H254580   6.359   2.193  12.809 -1.3791 -1.2980 -0.5378
10129TIP3   OH254581   2.570   5.368  12.709 -0.2256  0.4360  0.1406
10129TIP3    H154582   2.545   5.355  12.800  0.9590  0.8897  0.5481
10129TIP3    H254583   2.595   5.460  12.704 -1.0597  0.6209 -0.8446
10130TIP3   OH254584   3.358   4.952  12.042 -1.1245  0.9057  0.1190
10130TIP3    H154585   3.424   4.998  12.094  0.5515 -0.2404 -0.9189
10130TIP3    H254586   3.369   4.860  12.064 -2.7904  0.7186  0.3349
10131TIP3   OH254587   6.373   1.820  12.315 -0.5283  0.5470  0.1102
10131TIP3    H154588   6.464   1.818  12.286 -0.0166 -1.9690  1.5860
10131TIP3    H254589   6.330   1.750  12.266 -0.4623 -1.4125  2.6145
10132TIP3   OH254590   3.649   2.768  12.754  0.1665  0.1185  0.2869
10132TIP3    H154591   3.565   2.793  12.793 -0.9760 -1.5565 -0.9412
10132TIP3    H254592   3.657   2.674  12.774  2.0196  0.3367  0.7958
10133TIP3   OH254593   0.104   3.989  11.003 -0.7725 -0.5519  0.4266
10133TIP3    H154594   0.180   4.010  10.950 -0.4933 -1.9279  0.2294
10133TIP3    H254595   0.101   4.057  11.070 -0.3035  0.4082 -0.4998
10134TIP3   OH254596   6.174   2.762  12.239 -0.3518 -0.1960 -0.0722
10134TIP3    H154597   6.174   2.858  12.237 -1.2474 -0.1436  0.9310
10134TIP3    H254598   6.083   2.738  12.220 -0.0800 -0.8635 -0.5573
10135TIP3   OH254599   2.090   2.621  11.311  0.1395 -0.0818 -0.2008
10135TIP3    H154600   2.006   2.627  11.266  0.1998  0.9758 -0.2002
10135TIP3    H254601   2.097   2.703  11.361  1.1896 -0.1163 -0.2607
10136TIP3   OH254602   2.446   3.545  12.714 -0.0990 -0.0924  0.3929
10136TIP3    H154603   2.442   3.532  12.619  0.0713 -2.0640  0.6181
10136TIP3    H254604   2.356   3.530  12.744  0.3526 -2.2351  0.8086
10137TIP3   OH254605   0.435   0.276  11.640 -0.2483  0.5486  0.1964
10137TIP3    H154606   0.509   0.216  11.649  1.0654  2.3708  3.5654
10137TIP3    H254607   0.460   0.336  11.570  1.2901  0.8177  0.9345
10138TIP3   OH254608   1.083   1.643  10.794  0.1208 -0.8570 -0.2109
10138TIP3    H154609   1.102   1.723  10.841 -0.3457 -1.3830  0.9003
10138TIP3    H254610   1.021   1.669  10.726 -0.8136 -0.4407  0.7811
10139TIP3   OH254611   0.446   3.086  13.025 -0.2246  0.4133 -0.5054
10139TIP3    H154612   0.379   3.150  13.049 -0.4577 -0.4334  1.2488
10139TIP3    H254613   0.397   3.007  13.002  0.1313 -0.0191  0.1819
10140TIP3   OH254614   4.854   4.314  10.810  0.2585  0.6572  0.0089
10140TIP3    H154615   4.797   4.242  10.837 -1.8273  1.5478 -1.6665
10140TIP3    H254616   4.942   4.285  10.831 -0.5735 -2.0014  0.1679
10141TIP3   OH254617   3.840   1.869  11.463 -0.2631  0.1035  0.3659
10141TIP3    H154618   3.837   1.962  11.440  2.1514  0.0852 -0.2570
10141TIP3    H254619   3.796   1.864  11.547 -1.1134  1.6758  0.0525
10142TIP3   OH254620   1.096   1.385  10.880 -0.1657  0.6169 -0.1577
10142TIP3    H154621   1.077   1.378  10.974 -0.1965 -1.7915 -0.2941
10142TIP3    H254622   1.095   1.480  10.863 -3.9465  1.0870  1.4944
10143TIP3   OH254623   0.828   3.391  11.992 -0.4416  0.4442  0.3312
10143TIP3    H154624   0.842   3.400  12.087  0.0580  2.6968  0.0825
10143TIP3    H254625   0.734   3.385  11.982 -0.4540 -1.6245  1.0516
10144TIP3   OH254626   3.295   2.598  12.112 -0.0643 -0.1269 -0.3074
10144TIP3    H154627   3.294   2.505  12.138  0.3598 -0.0022  0.1690
10144TIP3    H254628   3.385   2.626  12.130 -0.0294  0.2209 -1.0134
10145TIP3   OH254629   1.187   1.677  11.242  0.4863  0.3656 -0.2908
10145TIP3    H154630   1.094   1.690  11.259  0.8127  0.3045  1.8806
10145TIP3    H254631   1.212   1.606  11.301  1.8166  0.0961 -1.1555
10146TIP3   OH254632   4.788   2.335  12.225  0.1253  0.0009  0.1866
10146TIP3    H154633   4.815   2.355  12.315  0.3459 -1.3109  0.4375
10146TIP3    H254634   4.867   2.299  12.184 -0.0121  0.4691 -0.4928
10147TIP3   OH254635   1.149   6.398  11.039  0.2484  0.2867 -0.3751
10147TIP3    H154636   1.232   6.354  11.059  0.7178  0.7481 -1.2278
10147TIP3    H254637   1.111   6.418  11.124 -0.6264 -2.8946  0.1378
10148TIP3   OH254638   4.195   7.660  13.265 -0.0330 -0.1284 -0.1806
10148TIP3    H154639   4.114   7.608  13.273 -0.3384  0.1993 -0.9790
10148TIP3    H254640   4.265   7.597  13.281 -0.4018 -0.7631 -0.9605
10149TIP3   OH254641   5.145   1.788  10.766 -0.1725 -0.3406 -0.0113
10149TIP3    H154642   5.176   1.705  10.731  2.0784 -0.5093  2.1349
10149TIP3    H254643   5.075   1.763  10.827  0.9011 -0.7853  1.0852
10150TIP3   OH254644   7.117   6.244  12.189  0.2787  0.0346  0.2227
10150TIP3    H154645   7.196   6.276  12.232 -0.4960  0.9318  1.0025
10150TIP3    H254646   7.139   6.243  12.096  1.5484 -0.7279  0.4996
10151TIP3   OH254647   7.557   1.936  10.470  0.3243 -0.5208 -0.1996
10151TIP3    H154648   7.526   2.022  10.442 -1.2293 -0.1995  2.1818
10151TIP3    H254649   7.478   1.882  10.473  1.0519 -1.6314 -0.2291
10152TIP3   OH254650   3.031   0.848  10.877  0.3116  0.0481  0.5988
10152TIP3    H154651   3.031   0.926  10.821  0.8528  0.1068  0.6795
10152TIP3    H254652   3.097   0.791  10.838  0.7193  0.1020  1.1920
10153TIP3   OH254653   0.820   5.727  12.033 -0.0625  0.2381 -0.5948
10153TIP3    H154654   0.821   5.633  12.047 -0.4470  0.3721  0.4522
10153TIP3    H254655   0.908   5.748  12.002  0.4166 -0.3045  0.3423
10154TIP3   OH254656   5.302   2.190  11.180 -0.0460  0.1760  0.2725
10154TIP3    H154657   5.208   2.173  11.186 -0.1539  0.7552  0.2803
10154TIP3    H254658   5.331   2.140  11.104 -0.4561  0.3946 -0.0311
10155TIP3   OH254659   0.113   4.597  10.688 -0.2347 -0.4294 -0.3767
10155TIP3    H154660   0.108   4.598  10.783  1.9080  0.2219 -0.2274
10155TIP3    H254661   0.108   4.689  10.662  0.5742 -0.4892 -0.7750
10156TIP3   OH254662   6.097   4.757  10.632  0.1028  0.3466 -0.1034
10156TIP3    H154663   6.143   4.775  10.714 -1.2658  0.1822  0.7197
10156TIP3    H254664   6.114   4.664  10.615 -0.3145  0.1671  0.4531
10157TIP3   OH254665   2.378   3.829  11.118  0.3683  0.3084  0.3360
10157TIP3    H154666   2.368   3.845  11.212  1.2066 -0.4702  0.5685
10157TIP3    H254667   2.436   3.754  11.112 -0.2565 -0.1190 -0.7999
10158TIP3   OH254668   7.073   5.437  10.730  0.2189 -0.2551 -0.2714
10158TIP3    H154669   7.136   5.374  10.767 -0.1133 -0.0205  0.7197
10158TIP3    H254670   7.095   5.520  10.771 -2.3111 -0.6252  2.1022
10159TIP3   OH254671   2.010   1.312  12.587  0.3434  0.2157 -0.3445
10159TIP3    H154672   1.989   1.272  12.671 -1.3587  0.1668 -0.7509
10159TIP3    H254673   2.033   1.402  12.608  1.5957 -0.2267  0.3104
10160TIP3   OH254674   5.109   1.770  11.986  0.0891 -0.2457  0.1660
10160TIP3    H154675   5.169   1.841  12.009 -0.2708 -0.0568  0.5399
10160TIP3    H254676   5.073   1.741  12.070 -1.8099  0.9492 -0.1732
10161TIP3   OH254677   5.644   2.715  11.610  0.1435 -0.3260  0.5437
10161TIP3    H154678   5.684   2.739  11.527 -2.9182  0.2289 -0.9191
10161TIP3    H254679   5.623   2.622  11.601  0.6144 -0.4874  1.0717
10162TIP3   OH254680   5.777   0.489  11.547  0.2195 -0.3596  0.0087
10162TIP3    H154681   5.824   0.470  11.628 -0.3694 -0.3334  0.3613
10162TIP3    H254682   5.830   0.556  11.504  0.4997 -0.3242  0.4034
10163TIP3   OH254683   1.140   4.447  10.369  0.2757 -0.3666 -0.0769
10163TIP3    H154684   1.218   4.480  10.414  3.0008 -2.1090 -3.0284
10163TIP3    H254685   1.100   4.386  10.431  1.6788  0.0524  1.3124
10164TIP3   OH254686   5.162   7.296  12.771 -0.3117 -0.0458 -0.3940
10164TIP3    H154687   5.142   7.341  12.688 -0.4342  0.2016 -0.2309
10164TIP3    H254688   5.222   7.225  12.746 -1.2816 -0.7273 -0.8836
10165TIP3   OH254689   1.942   1.011  11.027  0.2231  0.1403  0.0472
10165TIP3    H154690   1.986   0.937  11.069  0.5130  0.0429 -0.4254
10165TIP3    H254691   1.949   0.993  10.933  0.3162  0.7766 -0.0699
10166TIP3   OH254692   1.060   4.306  13.044  0.3271  0.5817 -0.7246
10166TIP3    H154693   1.129   4.250  13.009  0.2627 -0.5317  0.8037
10166TIP3    H254694   0.989   4.245  13.066  0.7724  0.9903  2.2767
10167TIP3   OH254695   3.522   3.240  12.233  0.4768 -0.3031  0.4842
10167TIP3    H154696   3.429   3.259  12.245  0.4064 -0.1994 -0.1719
10167TIP3    H254697   3.553   3.211  12.319  0.3494  1.7599  1.2940
10168TIP3   OH254698   2.718   0.607  12.538 -0.0313 -0.1767 -0.3838
10168TIP3    H154699   2.659   0.589  12.464  1.4662 -2.2997 -1.1761
10168TIP3    H254700   2.769   0.683  12.510  1.0449 -1.3941 -1.9949
10169TIP3   OH254701   6.665   5.153  10.993 -0.1582 -0.2980  0.0440
10169TIP3    H154702   6.617   5.184  11.070  0.2278 -0.5802  0.4063
10169TIP3    H254703   6.752   5.133  11.026 -0.2113 -1.1524 -0.3094
10170TIP3   OH254704   1.435   6.624  13.239 -0.1570 -0.0739  0.2854
10170TIP3    H154705   1.345   6.624  13.206 -0.2526  0.0684  0.5387
10170TIP3    H254706   1.488   6.593  13.166 -0.5058 -0.9337  0.3908
10171TIP3   OH254707   1.122   4.907  11.083  0.3180  0.2729  0.1671
10171TIP3    H154708   1.113   4.981  11.143 -0.5922  0.8049 -0.5885
10171TIP3    H254709   1.078   4.835  11.128 -1.5944  1.0239 -0.4013
10172TIP3   OH254710   6.518   7.585  12.011  0.0760  0.0060  0.4770
10172TIP3    H154711   6.466   7.508  11.986  0.7375 -1.1910  2.4662
10172TIP3    H254712   6.454   7.645  12.049 -0.4382  0.4378 -1.0209
10173TIP3   OH254713   5.499   6.614  12.379 -0.1915 -0.1888  0.3494
10173TIP3    H154714   5.566   6.635  12.445  0.6892 -1.1267 -0.2176
10173TIP3    H254715   5.421   6.661  12.409  0.8118  1.2803  0.8183
10174TIP3   OH254716   3.744   5.589  11.193  0.1845  0.1951  0.0385
10174TIP3    H154717   3.652   5.583  11.219  0.5020 -1.2230  0.9753
10174TIP3    H254718   3.773   5.498  11.189  2.4861  0.5825  3.4568
10175TIP3   OH254719   0.529   3.298  11.386 -0.1491 -0.0978 -0.5781
10175TIP3    H154720   0.575   3.282  11.469  0.2513  0.6375 -0.6439
10175TIP3    H254721   0.503   3.390  11.391  0.8813  0.2807 -1.7380
10176TIP3   OH254722   1.956   1.540  11.686 -0.2821  0.7259 -0.5758
10176TIP3    H154723   1.906   1.621  11.671  0.0248  0.8853 -0.7452
10176TIP3    H254724   2.010   1.559  11.763 -0.4633  0.5606 -0.4056
10177TIP3   OH254725   3.643   1.718  12.204 -0.0011  0.9044  0.3656
10177TIP3    H154726   3.670   1.632  12.172 -0.5301  0.3534  1.3463
10177TIP3    H254727   3.722   1.772  12.196  0.9682 -0.2209  1.6208
10178TIP3   OH254728   2.083   7.129  10.566  0.0466  0.1681 -0.8652
10178TIP3    H154729   2.117   7.203  10.516 -1.5426  0.9013 -0.9126
10178TIP3    H254730   1.990   7.125  10.544 -0.9253  0.9689  2.5267
10179TIP3   OH254731   3.731   6.756  11.318  0.0064 -0.1424  0.7663
10179TIP3    H154732   3.773   6.821  11.261  0.6704 -0.5882  0.7361
10179TIP3    H254733   3.637   6.771  11.306  0.1139 -0.5633 -0.8648
10180TIP3   OH254734   3.569   0.734  11.098  0.3121  0.1478 -0.6685
10180TIP3    H154735   3.586   0.640  11.087  0.5068  0.1666 -0.5262
10180TIP3    H254736   3.639   0.765  11.156  0.5977  0.5018 -1.1948
10181TIP3   OH254737   3.477   6.801  11.261 -0.4615  0.1790 -0.1893
10181TIP3    H154738   3.442   6.765  11.179 -0.3467 -0.5024  0.0551
10181TIP3    H254739   3.402   6.838  11.306 -0.5914  0.1999 -0.4236
10182TIP3   OH254740   2.632   6.491  11.322 -0.1968  0.3837 -0.2926
10182TIP3    H154741   2.705   6.539  11.285 -0.1624 -0.3795 -1.2613
10182TIP3    H254742   2.652   6.484  11.416  1.6999 -1.0097 -0.7439
10183TIP3   OH254743   1.960   4.450  11.656  0.7311  0.4393 -0.2381
10183TIP3    H154744   1.952   4.537  11.615 -0.7141  0.6745  0.4977
10183TIP3    H254745   1.900   4.452  11.730  1.9983 -0.5956  0.8744
10184TIP3   OH254746   2.941   4.935  11.185 -0.4445 -0.1076 -0.5117
10184TIP3    H154747   2.976   4.939  11.096  0.8258 -0.8297 -0.0666
10184TIP3    H254748   2.876   4.864  11.182  0.6514 -1.1269 -0.5248
10185TIP3   OH254749   1.208   0.059  11.918  0.3118 -0.1930 -0.1267
10185TIP3    H154750   1.227  -0.033  11.900 -0.9183 -0.2115 -1.5219
10185TIP3    H254751   1.293   0.103  11.914  0.6048 -0.8483 -2.2229
10186TIP3   OH254752   0.106   4.858  10.640 -0.0523 -0.0534 -0.9500
10186TIP3    H154753   0.020   4.891  10.613 -0.4086  1.2829  1.5451
10186TIP3    H254754   0.167   4.924  10.607 -0.2330  0.2289 -0.7344
10187TIP3   OH254755   7.124   6.396  11.613 -0.3196  0.4275 -0.8264
10187TIP3    H154756   7.126   6.346  11.695 -1.5120  0.0655 -1.0019
10187TIP3    H254757   7.172   6.476  11.633 -2.4019  1.3579  0.9327
10188TIP3   OH254758   4.943   1.971  11.669  0.0682  0.5604  0.2579
10188TIP3    H154759   5.002   1.896  11.665  0.7019  1.0828 -0.8993
10188TIP3    H254760   4.857   1.935  11.647  0.5314  0.2880 -1.2842
10189TIP3   OH254761   2.979   0.587  11.438 -0.4910  0.0037  0.1080
10189TIP3    H154762   3.038   0.518  11.467 -1.1261 -0.6812 -0.2076
10189TIP3    H254763   2.945   0.626  11.519  1.2896  1.2319  0.3316
10190TIP3   OH254764   4.488   5.779  12.118  0.3799 -0.7942 -0.0339
10190TIP3    H154765   4.437   5.852  12.081  1.2274 -0.3034 -0.2558
10190TIP3    H254766   4.500   5.719  12.045  1.7654  0.0153 -0.4961
10191TIP3   OH254767   1.878   7.360  10.706 -0.0603 -0.3827 -0.7409
10191TIP3    H154768   1.798   7.365  10.757 -0.9070 -0.8893 -1.9608
10191TIP3    H254769   1.936   7.303  10.757 -0.5583 -0.1996  0.0415
10192TIP3   OH254770   1.707   6.268  10.800 -0.6054  0.1923  0.4155
10192TIP3    H154771   1.785   6.220  10.828 -1.3224 -1.1251  0.2426
10192TIP3    H254772   1.740   6.353  10.772  1.1093 -1.0516 -1.7289
10193TIP3   OH254773   2.404   2.254  11.174 -0.0937 -0.2698  0.6735
10193TIP3    H154774   2.324   2.278  11.220 -0.7918  0.0336 -0.6784
10193TIP3    H254775   2.407   2.158  11.179 -0.7439 -0.3040  0.3897
10194TIP3   OH254776   6.842   1.268  10.669  0.0658  0.1102 -0.5331
10194TIP3    H154777   6.887   1.186  10.688  0.9996  1.0877  1.9160
10194TIP3    H254778   6.763   1.243  10.623  0.7936 -2.0736 -0.6785
10195TIP3   OH254779   7.334   4.163  10.529  0.2322 -0.4329  0.5451
10195TIP3    H154780   7.248   4.166  10.487  0.1923  0.0936  0.6527
10195TIP3    H254781   7.316   4.156  10.622  0.3082 -0.6428  0.5434
10196TIP3   OH254782   4.298   6.727  11.574 -0.2669  0.2344  0.7677
10196TIP3    H154783   4.221   6.673  11.591 -0.0184 -0.5449 -0.4398
10196TIP3    H254784   4.288   6.755  11.483  0.4023  0.9216  0.8968
10197TIP3   OH254785   3.455   1.575  11.711 -1.0671 -0.3512 -0.3899
10197TIP3    H154786   3.535   1.600  11.665 -1.5094 -0.1080 -1.0387
10197TIP3    H254787   3.433   1.489  11.677 -1.1330 -0.3789 -0.2785
10198TIP3   OH254788   5.978   5.423  12.148  0.1188 -0.7167  0.6396
10198TIP3    H154789   6.020   5.346  12.109  1.4108  0.5253 -0.5796
10198TIP3    H254790   6.044   5.458  12.208 -0.4220 -0.5255  1.1183
10199TIP3   OH254791   5.969   1.156  11.456 -1.0273  0.0241 -0.5034
10199TIP3    H154792   5.986   1.086  11.394 -1.6679 -0.0444 -0.6081
10199TIP3    H254793   5.942   1.230  11.402 -2.8624 -0.4144 -0.2569
10200TIP3   OH254794   3.608   5.212  11.886  0.0307  0.5197 -0.3061
10200TIP3    H154795   3.665   5.283  11.858  0.3637  0.8461  1.1193
10200TIP3    H254796   3.557   5.249  11.958 -1.3804 -0.0248 -0.9847
10201TIP3   OH254797   6.417   6.256  11.300  0.0274 -0.3862 -0.1915
10201TIP3    H154798   6.499   6.296  11.272  0.5856 -1.3339  0.0657
10201TIP3    H254799   6.440   6.205  11.377 -0.6676 -1.1934 -0.5002
10202TIP3   OH254800   3.917   6.720  11.521 -0.2042  0.0126  0.4281
10202TIP3    H154801   3.883   6.634  11.548  2.8854 -2.3894 -2.5610
10202TIP3    H254802   3.859   6.747  11.450 -1.1150  0.4064  1.2958
10203TIP3   OH254803   1.029   0.176  11.203 -0.4388  0.4210 -0.2438
10203TIP3    H154804   1.122   0.174  11.227 -0.2415  1.6353 -0.8454
10203TIP3    H254805   1.023   0.121  11.126 -0.3632 -0.2812  0.2436
10204TIP3   OH254806   6.626   3.891  12.940 -0.1972  0.2923 -0.1247
10204TIP3    H154807   6.614   3.962  12.877  0.5298  0.4200 -0.1272
10204TIP3    H254808   6.558   3.905  13.005 -1.5447 -0.3514 -1.3407
10205TIP3   OH254809   0.607   4.729  12.231 -0.3686  1.0062  0.2909
10205TIP3    H154810   0.623   4.824  12.225  1.9220  0.7885  1.7645
10205TIP3    H254811   0.567   4.718  12.318 -1.6031  0.6854 -0.2942
10206TIP3   OH254812   0.444   1.009  12.262 -0.2370 -0.1714  0.2142
10206TIP3    H154813   0.432   0.981  12.171 -0.1309  2.6562 -0.7784
10206TIP3    H254814   0.468   0.929  12.309  1.3996 -1.4657 -2.5624
10207TIP3   OH254815   2.451   3.878  11.615 -0.0551  0.4336 -0.4846
10207TIP3    H154816   2.534   3.856  11.573  0.8011 -0.3539  1.4803
10207TIP3    H254817   2.387   3.820  11.573  0.5514  0.3931 -1.3796
10208TIP3   OH254818   2.455   1.482  11.381 -0.2450  0.1455  0.2439
10208TIP3    H154819   2.517   1.432  11.433 -1.1836 -0.4328  0.8368
10208TIP3    H254820   2.493   1.485  11.294  1.5222  1.4036  0.9882
10209TIP3   OH254821   5.374   7.259  10.478 -0.4215  0.5782 -0.4934
10209TIP3    H154822   5.443   7.215  10.528 -2.7246 -1.8377  0.8403
10209TIP3    H254823   5.406   7.258  10.388  0.6376 -2.0082 -0.1866
10210TIP3   OH254824   2.359   0.919  12.402 -0.6390  0.1537  0.1013
10210TIP3    H154825   2.442   0.888  12.439 -0.4024  0.6519 -0.0009
10210TIP3    H254826   2.377   0.925  12.308 -0.2493  1.8857  0.2610
10211TIP3   OH254827   0.301   5.055  10.610 -0.0418 -0.4623 -0.0654
10211TIP3    H154828   0.320   5.093  10.524  2.6299 -1.0629  0.1572
10211TIP3    H254829   0.244   5.119  10.652 -1.1490  0.0160 -2.1163
10212TIP3   OH254830   6.317   1.331  11.808  0.4471 -0.3686 -0.1049
10212TIP3    H154831   6.333   1.247  11.766 -1.3186 -1.2601  0.8852
10212TIP3    H254832   6.277   1.386  11.740  2.0179 -0.1370 -0.8816
10213TIP3   OH254833   6.256   3.270  11.545  0.2666 -0.4038 -0.9032
10213TIP3    H154834   6.341   3.312  11.549 -0.1380  0.3438  0.0885
10213TIP3    H254835   6.208   3.320  11.478  0.4977 -0.6351 -1.2445
10214TIP3   OH254836   5.701   1.320  11.327 -0.3710  0.3146  0.0324
10214TIP3    H154837   5.679   1.259  11.397  1.0345 -1.1011 -0.6924
10214TIP3    H254838   5.626   1.316  11.267 -1.6375  1.6295  1.4372
10215TIP3   OH254839   2.666   7.013  10.853  0.6444 -0.1137  0.5600
10215TIP3    H154840   2.633   7.093  10.894  0.8342  0.3384 -0.1461
10215TIP3    H254841   2.591   6.976  10.808  0.6217 -0.1882  0.6579
10216TIP3   OH254842   2.183   6.080  11.076  0.0357  0.2824 -0.3294
10216TIP3    H154843   2.278   6.093  11.069  0.1405 -0.5529 -0.5090
10216TIP3    H254844   2.165   6.081  11.170  0.6159 -2.1294 -0.1367
10217TIP3   OH254845   7.089   6.371  13.418  0.2106  0.1776 -0.0746
10217TIP3    H154846   7.144   6.449  13.418  1.5471 -0.7212 -1.1966
10217TIP3    H254847   7.143   6.304  13.460  0.3608 -0.9337 -1.9217
10218TIP3   OH254848   0.912   0.144  10.758 -0.2065 -0.7721 -0.7267
10218TIP3    H154849   0.962   0.222  10.784 -0.4014 -1.0703  0.5791
10218TIP3    H254850   0.824   0.177  10.740 -0.3738 -0.7139  0.1358
10219TIP3   OH254851   5.515   0.481  12.609  0.1549  0.0305  0.3482
10219TIP3    H154852   5.491   0.403  12.560 -1.0416  1.1926 -1.0069
10219TIP3    H254853   5.553   0.540  12.543 -2.5043  2.0670  0.4527
10220TIP3   OH254854   6.153   3.711  11.375  0.1215 -0.3487  0.1298
10220TIP3    H154855   6.120   3.755  11.454 -1.0088 -2.0907  0.6771
10220TIP3    H254856   6.235   3.756  11.355  0.2130  0.4224  2.0389
10221TIP3   OH254857   1.004   4.723  12.017  0.0326 -0.1573 -0.0379
10221TIP3    H154858   0.955   4.699  11.938 -1.8247  0.8283  0.7676
10221TIP3    H254859   0.964   4.671  12.087  1.7172 -1.0835  0.2826
10222TIP3   OH254860   5.809   7.520  12.115  0.2134 -0.2164  0.5636
10222TIP3    H154861   5.769   7.587  12.171  1.2702  0.2982  0.7318
10222TIP3    H254862   5.805   7.440  12.166 -0.2049 -0.0711  0.7601
10223TIP3   OH254863   5.582   2.106  12.239  0.3797  0.2558  0.1945
10223TIP3    H154864   5.677   2.115  12.240  0.4251 -0.1797  0.0500
10223TIP3    H254865   5.555   2.151  12.159  0.7668 -2.2712 -1.4555
10224TIP3   OH254866   2.292   0.908  11.851 -0.2607  0.2495 -0.1279
10224TIP3    H154867   2.273   0.866  11.767 -2.7649  0.5089  0.2287
10224TIP3    H254868   2.351   0.981  11.829  0.8944 -0.9952 -1.3001
10225TIP3   OH254869   1.337   1.678  11.611 -0.0755 -0.1510 -0.7553
10225TIP3    H154870   1.331   1.615  11.683 -0.9106 -1.4003 -1.8597
10225TIP3    H254871   1.426   1.668  11.578  1.0499  1.9285  1.3258
10226TIP3   OH254872   5.968   1.841  11.646  0.3111  0.3676  0.0934
10226TIP3    H154873   5.953   1.773  11.712  1.0730  1.4651  1.4538
10226TIP3    H254874   6.060   1.865  11.657  0.4018  0.7307 -1.2511
10227TIP3   OH254875   1.896   4.976  11.139  0.1351  0.0674 -0.7357
10227TIP3    H154876   1.911   5.046  11.076 -1.8490  0.8031 -0.4442
10227TIP3    H254877   1.881   4.898  11.085  0.0105  0.3610 -1.1304
10228TIP3   OH254878   2.254   4.717  11.006 -0.3734  0.3014  0.2404
10228TIP3    H154879   2.303   4.799  10.999 -0.6585  0.3945 -1.1114
10228TIP3    H254880   2.292   4.672  11.081  0.9432  0.9226 -0.0261
10229TIP3   OH254881   4.211   0.875  11.063 -0.0173  0.0767  0.3919
10229TIP3    H154882   4.125   0.879  11.021  0.1500 -0.1578  0.0184
10229TIP3    H254883   4.222   0.961  11.104  0.6267  1.0446 -1.6762
10230TIP3   OH254884   3.203   6.844  11.303  0.1797  0.1630  0.3434
10230TIP3    H154885   3.218   6.767  11.358  0.0495 -0.1073  0.0060
10230TIP3    H254886   3.186   6.808  11.216 -0.9664  0.5252  0.4107
10231TIP3   OH254887   2.142   3.297  10.915 -0.0707  0.0423  0.4103
10231TIP3    H154888   2.173   3.233  10.979  0.2747  0.1701  0.3726
10231TIP3    H254889   2.221   3.334  10.877 -0.1515 -2.3381 -2.4646
10232TIP3   OH254890   5.629   4.388  13.496  0.2352  0.0110  0.3265
10232TIP3    H154891   5.650   4.481  13.489  1.5363 -0.2250  0.7387
10232TIP3    H254892   5.558   4.374  13.433  0.7172  1.0712 -0.4829
10233TIP3   OH254893   7.187   7.136  10.596 -0.0116  0.3790  0.4476
10233TIP3    H154894   7.237   7.098  10.667  0.1705 -0.8054 -0.2956
10233TIP3    H254895   7.234   7.217  10.574  1.4226 -0.5600 -0.0457
10234TIP3   OH254896   4.417   7.400  13.293  0.1769 -0.0058  0.4143
10234TIP3    H154897   4.507   7.432  13.300  0.9266 -2.0087  0.5980
10234TIP3    H254898   4.426   7.308  13.271 -1.8612 -0.1792  0.1122
10235TIP3   OH254899   5.500   1.637  11.599 -0.3761  0.0696 -0.4638
10235TIP3    H154900   5.590   1.658  11.573 -0.8345  1.8717 -0.7346
10235TIP3    H254901   5.465   1.718  11.635 -2.3056 -0.1902 -1.5591
10236TIP3   OH254902   0.082   2.760  11.117  0.7699 -0.1582  0.3296
10236TIP3    H154903   0.077   2.714  11.034  0.4771 -0.6007  0.5909
10236TIP3    H254904   0.172   2.793  11.121  0.6650  0.2275 -0.3486
10237TIP3   OH254905   1.510   1.016  10.498 -0.1040 -0.0409 -0.3297
10237TIP3    H154906   1.582   1.060  10.543 -0.8224  1.2433 -0.4032
10237TIP3    H254907   1.528   0.922  10.509  0.6950  0.2588  1.0542
10238TIP3   OH254908   6.367   2.463  12.840  0.0466 -0.4370  0.4697
10238TIP3    H154909   6.293   2.423  12.795  0.5956 -0.4053 -0.5020
10238TIP3    H254910   6.428   2.391  12.855  0.1380 -0.3307  0.6123
10239TIP3   OH254911   1.448   1.053  12.313 -0.1760  0.2536  0.1327
10239TIP3    H154912   1.418   1.133  12.269  0.3820  1.1519  1.3368
10239TIP3    H254913   1.536   1.039  12.279  0.4960  1.2992  1.3771
10240TIP3   OH254914   7.529   7.021  13.500 -0.0565 -0.5623 -0.2067
10240TIP3    H154915   7.558   6.946  13.448 -0.0791 -0.6257 -0.1283
10240TIP3    H254916   7.517   7.092  13.436  1.2086 -0.2460 -0.1254
10241TIP3   OH254917   3.439   0.756  12.050  0.1297 -0.1741 -0.2007
10241TIP3    H154918   3.492   0.758  12.130  0.2181  2.3402 -0.2688
10241TIP3    H254919   3.494   0.711  11.986  2.1482  2.0767 -0.1851
10242TIP3   OH254920   4.672   4.332  11.482 -0.1007  0.0470  0.0962
10242TIP3    H154921   4.733   4.405  11.496 -1.0489  1.6944 -3.1681
10242TIP3    H254922   4.587   4.374  11.469 -1.6158 -2.0468  2.3362
10243TIP3   OH254923   4.514   4.583  11.422 -0.2863  0.0128  0.5141
10243TIP3    H154924   4.430   4.549  11.392  0.2114 -0.9158  0.1025
10243TIP3    H254925   4.560   4.607  11.341  0.0664 -0.0660  0.6887
10244TIP3   OH254926   6.860   0.996  11.693 -0.7156 -0.1546  0.1659
10244TIP3    H154927   6.850   0.902  11.707  0.6994 -0.3366  0.0638
10244TIP3    H254928   6.774   1.033  11.714 -0.6266 -1.1917  2.5833
10245TIP3   OH254929   2.501   1.735  11.263  0.0291  0.0231  0.6486
10245TIP3    H154930   2.577   1.726  11.206 -2.2225 -1.1621 -2.3831
10245TIP3    H254931   2.514   1.667  11.330  1.6284 -0.1171  0.2470
10246TIP3   OH254932   5.615   3.263  10.818 -0.2086  0.2324  0.0701
10246TIP3    H154933   5.666   3.306  10.887 -0.7982 -0.4866  0.9699
10246TIP3    H254934   5.526   3.297  10.829 -0.3774 -0.1529 -0.1160
10247TIP3   OH254935   1.633   2.300  11.260 -0.1270 -0.0554 -0.3929
10247TIP3    H154936   1.709   2.290  11.316  0.5655  1.0412 -1.0915
10247TIP3    H254937   1.576   2.226  11.283  1.1834 -0.9660  0.0671
10248TIP3   OH254938   5.434   6.992  12.165 -0.4185  0.3704 -0.0092
10248TIP3    H154939   5.523   6.958  12.155 -0.3884  0.3243  0.4017
10248TIP3    H254940   5.442   7.086  12.146 -0.6316  0.0589 -1.8696
10249TIP3   OH254941   5.059   6.399  10.578 -0.7039  0.2460 -0.0162
10249TIP3    H154942   5.146   6.435  10.590 -0.5857  0.0913 -0.3829
10249TIP3    H254943   5.003   6.476  10.565 -0.7027  0.3692  0.6747
10250TIP3   OH254944   1.170   1.360  11.684 -0.3342 -1.3085  0.0568
10250TIP3    H154945   1.152   1.279  11.635 -0.1168 -1.9559  1.0190
10250TIP3    H254946   1.240   1.336  11.745 -1.2265 -0.7908  1.3316
10251TIP3   OH254947   0.877   6.096  11.116  0.3213  0.0608  0.4310
10251TIP3    H154948   0.841   6.074  11.030  0.9941  0.2795  0.0878
10251TIP3    H254949   0.823   6.170  11.145 -2.2174 -2.1292  1.7747
10252TIP3   OH254950   1.865   0.517  11.739 -0.2497 -0.5007 -0.5254
10252TIP3    H154951   1.941   0.539  11.685 -0.1647 -0.3099 -0.3329
10252TIP3    H254952   1.883   0.429  11.772  0.0896 -0.2901 -0.1377
10253TIP3   OH254953   3.397   6.003  11.711  0.3297 -0.1785  0.2549
10253TIP3    H154954   3.463   6.026  11.777  0.2713  0.2652  0.1592
10253TIP3    H254955   3.319   5.983  11.762  0.2403  0.3135  0.3155
10254TIP3   OH254956   7.170   1.312  11.223  0.1110 -0.5523 -0.2546
10254TIP3    H154957   7.146   1.352  11.306 -0.5944  2.3843 -1.7446
10254TIP3    H254958   7.261   1.338  11.208  0.0377 -0.5387 -0.6943
10255TIP3   OH254959   3.318   7.187  11.861 -0.5518 -0.2521 -0.1254
10255TIP3    H154960   3.326   7.265  11.915  2.7080  0.2544 -1.1584
10255TIP3    H254961   3.263   7.214  11.788 -0.4272  0.7038  0.1249
10256TIP3   OH254962   3.847   2.164  10.850  0.1900  0.3364 -0.2552
10256TIP3    H154963   3.814   2.078  10.823 -2.4687  1.5226 -1.1907
10256TIP3    H254964   3.876   2.151  10.940  0.9020 -1.7699 -0.7446
10257TIP3   OH254965   0.707   6.869  10.839 -0.5598 -0.0746  0.0831
10257TIP3    H154966   0.777   6.804  10.843 -1.2756 -0.9003  4.6164
10257TIP3    H254967   0.752   6.953  10.834  0.4590 -0.6679 -2.4187
10258TIP3   OH254968   3.314   0.200  10.839 -0.1211  0.2757  0.0222
10258TIP3    H154969   3.282   0.138  10.773  3.4632 -1.2059 -0.5733
10258TIP3    H254970   3.342   0.276  10.788  0.1921  0.2201  0.1033
10259TIP3   OH254971   2.239   7.543  11.135 -0.1014  0.3361  0.0249
10259TIP3    H154972   2.196   7.624  11.110  1.2534  1.6836  1.7417
10259TIP3    H254973   2.175   7.497  11.189 -1.1584 -0.1642 -1.5849
10260TIP3   OH254974   1.363   5.518  12.683  0.2457  0.3886 -0.5603
10260TIP3    H154975   1.435   5.469  12.644 -0.8993 -1.9642  0.1223
10260TIP3    H254976   1.394   5.542  12.770  0.7043  0.6500 -0.7933
10261TIP3   OH254977   6.837   0.017  12.423 -0.2581  0.7238  0.0132
10261TIP3    H154978   6.847   0.109  12.399  0.0805  0.6429 -0.1550
10261TIP3    H254979   6.770  -0.016  12.364 -0.5130  0.9057  0.1953
10262TIP3   OH254980   5.745   7.452  11.699  0.4101 -0.2316  0.2243
10262TIP3    H154981   5.747   7.545  11.718 -2.0620 -0.2230  0.7401
10262TIP3    H254982   5.815   7.415  11.754  1.0349  1.2035  0.4488
10263TIP3   OH254983   6.091   1.322  12.749 -0.3744 -0.6485 -0.1704
10263TIP3    H154984   6.152   1.276  12.807 -0.5707  0.9762  1.4134
10263TIP3    H254985   6.055   1.393  12.803 -1.9501 -0.1647 -1.7557
10264TIP3   OH254986   2.686   6.058  11.323 -0.0332  0.1938  0.6400
10264TIP3    H154987   2.780   6.061  11.341  0.7418 -2.0125 -2.2018
10264TIP3    H254988   2.654   5.986  11.378  0.0570  0.5664  1.1835
10265TIP3   OH254989   0.561   7.255  12.450 -0.4263  0.3959  0.1736
10265TIP3    H154990   0.573   7.181  12.510  0.1180  0.5303  0.2459
10265TIP3    H254991   0.480   7.296  12.479  0.2074  0.9017  1.3284
10266TIP3   OH254992   5.281   1.556  10.694 -0.2073 -0.5962  0.3129
10266TIP3    H154993   5.362   1.606  10.683 -1.7159  1.8366 -0.3776
10266TIP3    H254994   5.310   1.473  10.731  2.4795  0.6438  1.2717
10267TIP3   OH254995   3.444   0.540  10.429  0.1479 -0.0724 -0.1328
10267TIP3    H154996   3.373   0.577  10.376 -1.3483 -0.9655  1.1711
10267TIP3    H254997   3.481   0.614  10.476 -1.6051  0.1063  1.0624
10268TIP3   OH254998   4.304   6.458  11.274  0.2562 -0.1106 -0.1120
10268TIP3    H154999   4.321   6.505  11.192  0.8696 -1.3826 -0.7362
10268TIP3    H255000   4.233   6.507  11.315 -1.8432 -0.8926 -2.6056
10269TIP3   OH255001   3.825   1.923  12.289 -0.4583 -0.4619 -0.4741
10269TIP3    H155002   3.775   2.002  12.307 -0.0273 -0.0334 -1.1290
10269TIP3    H255003   3.845   1.887  12.376 -1.7785 -0.5821 -0.1903
10270TIP3   OH255004   2.934   0.163  11.635 -0.2822 -1.0041  0.0400
10270TIP3    H155005   2.997   0.187  11.703  0.4381 -2.0063 -0.2598
10270TIP3    H255006   2.933   0.068  11.636 -0.4770 -1.0219 -1.1668
10271TIP3   OH255007   5.266   2.049  11.558  0.0430  0.2338 -0.3779
10271TIP3    H155008   5.256   2.024  11.650  0.7183  2.0259  0.2252
10271TIP3    H255009   5.278   1.966  11.512 -0.4325 -0.7112  1.1214
10272TIP3   OH255010   5.622   3.601  10.684 -0.0596  0.2888  0.3740
10272TIP3    H155011   5.699   3.639  10.726  0.9272 -1.7331  0.5261
10272TIP3    H255012   5.633   3.506  10.694 -1.6028 -0.1354 -1.3034
10273TIP3   OH255013   3.062   4.100  11.094  0.3060 -0.4777 -0.2260
10273TIP3    H155014   3.099   4.033  11.035  1.3708 -0.9810  0.9691
10273TIP3    H255015   3.100   4.081  11.179 -0.1538  1.0599  0.3641
10274TIP3   OH255016   6.690   0.277  10.975  0.0319  0.3699  0.4398
10274TIP3    H155017   6.642   0.220  11.036 -0.4856  1.1074  0.7374
10274TIP3    H255018   6.778   0.282  11.012 -0.2227  0.6490  1.0301
10275TIP3   OH255019   3.136   7.086  11.208 -0.4181 -0.7396 -0.5251
10275TIP3    H155020   3.111   7.170  11.246 -0.0294 -0.6873 -0.3883
10275TIP3    H255021   3.136   7.024  11.281 -1.0430 -0.9368 -0.6835
10276TIP3   OH255022   3.957   1.148  10.899 -0.1550  0.0080 -0.4802
10276TIP3    H155023   3.927   1.131  10.988 -1.2483 -1.4952 -1.0821
10276TIP3    H255024   3.945   1.064  10.854  1.8328  0.3017 -1.6585
10277TIP3   OH255025   0.165   3.032  12.754  0.1271  0.1598 -0.4083
10277TIP3    H155026   0.233   3.098  12.744  0.3106 -0.1562 -1.3928
10277TIP3    H255027   0.087   3.081  12.781  0.4671  0.6709 -0.3547
10278TIP3   OH255028   2.077   3.382  12.376 -0.2169 -0.1251 -0.4543
10278TIP3    H155029   2.088   3.335  12.459  0.0922 -0.2117 -0.5444
10278TIP3    H255030   1.998   3.436  12.389  1.0521  1.5722  0.7113
10279TIP3   OH255031   1.685   3.694  11.629  0.7145  0.3122  1.0989
10279TIP3    H155032   1.756   3.680  11.566  0.4070 -0.2864  0.8756
10279TIP3    H255033   1.650   3.781  11.607  0.9241  0.3099  0.7520
10280TIP3   OH255034   1.814   7.238  11.028  0.1919  0.3041 -0.1732
10280TIP3    H155035   1.852   7.208  11.111 -0.7601  0.2981  0.2656
10280TIP3    H255036   1.733   7.283  11.053  0.5718  1.5116 -0.9823
10281TIP3   OH255037   0.005   4.638  13.309  0.1906  0.1832 -0.3712
10281TIP3    H155038  -0.073   4.633  13.253 -0.2992 -0.8051  0.3722
10281TIP3    H255039   0.060   4.565  13.281 -0.3086 -0.6620  0.7753
10282TIP3   OH255040   1.631   2.898  11.027  0.1817 -0.4139  0.0416
10282TIP3    H155041   1.577   2.930  10.955 -1.1413 -0.9552  0.7607
10282TIP3    H255042   1.680   2.824  10.989 -0.1703 -0.4136 -0.4209
10283TIP3   OH255043   2.059   1.797  11.680  0.0426  0.3959  0.2050
10283TIP3    H155044   2.101   1.883  11.677  3.4045 -1.0892 -1.3539
10283TIP3    H255045   2.035   1.785  11.772  0.0727  2.7268  0.5556
10284TIP3   OH255046   3.142   5.338  11.408  0.6165  0.0013 -0.1785
10284TIP3    H155047   3.212   5.364  11.468  0.5053  0.4114 -0.2272
10284TIP3    H255048   3.128   5.245  11.427  0.9376  0.0018  0.0684
10285TIP3   OH255049   4.841   4.543  11.489  0.5846 -0.2454  0.1095
10285TIP3    H155050   4.876   4.562  11.402  1.9558  0.0345  0.6928
10285TIP3    H255051   4.783   4.616  11.509 -0.6754 -0.8808 -1.0153
10286TIP3   OH255052   5.244   4.422  12.391  0.6463  0.2924 -0.2997
10286TIP3    H155053   5.231   4.517  12.394  2.6144  0.5877  0.5122
10286TIP3    H255054   5.240   4.395  12.483  1.0567 -0.2459 -0.4390
10287TIP3   OH255055   4.605   1.621  10.405 -0.7566 -0.5012  0.2673
10287TIP3    H155056   4.682   1.615  10.461 -0.6140  0.3320  0.1731
10287TIP3    H255057   4.633   1.672  10.330 -2.3523  3.4868  2.0705
10288TIP3   OH255058   3.120   7.475  10.603 -0.3863 -0.1271  0.1789
10288TIP3    H155059   3.093   7.384  10.618  0.1072 -0.7239 -2.1918
10288TIP3    H255060   3.040   7.519  10.575 -0.5734  0.1554  1.1003
10289TIP3   OH255061   5.118   5.902  10.972 -0.0724  0.3502  0.4848
10289TIP3    H155062   5.116   5.979  11.028  1.7366  0.2691  0.7184
10289TIP3    H255063   5.206   5.902  10.934 -0.8870 -0.1680 -1.5814
10290TIP3   OH255064   0.043   5.109  12.506  0.1377 -0.1643  0.6923
10290TIP3    H155065   0.023   5.203  12.512 -0.8272 -0.2310 -0.9656
10290TIP3    H255066  -0.023   5.067  12.561  0.2206  0.0878  0.9896
10291TIP3   OH255067   5.186   4.051  12.239 -0.0997 -0.8623  0.0136
10291TIP3    H155068   5.181   4.035  12.333 -0.8255 -0.0302  0.1366
10291TIP3    H255069   5.169   4.145  12.230 -0.5676 -1.0275 -0.9829
10292TIP3   OH255070   0.847   2.786  10.960 -0.1449  0.0095  0.0419
10292TIP3    H155071   0.863   2.753  10.871  0.7069 -0.9267  0.5298
10292TIP3    H255072   0.909   2.858  10.969  0.6097 -0.6480  0.2758
10293TIP3   OH255073   2.858   4.039  13.099 -0.1764 -0.1034 -0.0446
10293TIP3    H155074   2.793   4.107  13.115 -1.3406 -1.3593  0.8119
10293TIP3    H255075   2.839   4.008  13.010 -1.5685 -1.2558  0.6139
10294TIP3   OH255076   6.315   2.547  13.671  0.3635 -0.0602  0.5305
10294TIP3    H155077   6.254   2.504  13.731 -2.1552 -0.9824 -2.3959
10294TIP3    H255078   6.298   2.641  13.682 -1.4911 -0.2907  0.0003
10295TIP3   OH255079   1.151   4.483  11.076  0.0392 -0.0794  0.0647
10295TIP3    H155080   1.134   4.391  11.098  0.9785 -0.7328 -1.7343
10295TIP3    H255081   1.065   4.526  11.087 -0.3570 -1.0856  1.1642
10296TIP3   OH255082   0.911   3.321  11.723 -0.2222  0.0132  0.5002
10296TIP3    H155083   0.829   3.311  11.674 -0.8076  0.7991  1.2884
10296TIP3    H255084   0.885   3.363  11.805  0.8912 -0.2971  1.0314
10297TIP3   OH255085   0.620   0.130  10.500 -0.0782 -0.4678  0.4234
10297TIP3    H155086   0.649   0.187  10.429  1.5268 -1.1270  0.5117
10297TIP3    H255087   0.623   0.185  10.578 -1.2153  0.0704  0.1159
10298TIP3   OH255088   2.554   2.299  11.440  0.2215  0.7575  0.4271
10298TIP3    H155089   2.573   2.211  11.473  0.4281  0.1717 -1.1756
10298TIP3    H255090   2.496   2.284  11.365  0.2067  2.0025  0.1744
10299TIP3   OH255091   5.667   1.584  11.203 -0.2310  0.0474  0.4402
10299TIP3    H155092   5.578   1.596  11.172  0.2403  0.8081 -0.6967
10299TIP3    H255093   5.662   1.513  11.266 -1.9223  1.2311  1.7048
10300TIP3   OH255094   0.820   1.047  11.380 -0.3548  0.1350  0.1754
10300TIP3    H155095   0.741   1.098  11.399 -1.1760 -1.3008  0.8193
10300TIP3    H255096   0.864   1.040  11.465 -0.5810 -0.7214  0.2338
10301TIP3   OH255097   5.669   4.945  11.532  0.0843  0.0595 -0.3040
10301TIP3    H155098   5.658   4.866  11.479 -0.3164 -0.2714  0.2572
10301TIP3    H255099   5.580   4.979  11.543 -0.1335 -1.0153  1.8440
10302TIP3   OH255100   5.643   0.437  13.190  0.3070  0.0444  0.4695
10302TIP3    H155101   5.663   0.526  13.163 -0.2105  0.2487  0.7681
10302TIP3    H255102   5.573   0.445  13.254  0.8067 -0.5186  1.1069
10303TIP3   OH255103   7.493   2.360  11.311  0.0984 -0.2062  0.3561
10303TIP3    H155104   7.492   2.369  11.215  1.0015  1.3785  0.4522
10303TIP3    H255105   7.409   2.397  11.339 -0.2737 -0.8992  0.1626
10304TIP3   OH255106   5.099   3.576  11.061  0.3138  0.3282  1.0915
10304TIP3    H155107   5.100   3.510  10.991 -0.0228 -0.5532  1.8881
10304TIP3    H255108   5.152   3.648  11.028 -1.9014  1.0726 -1.1547
10305TIP3   OH255109   0.044   7.114  12.569 -0.1687  0.6329 -0.3894
10305TIP3    H155110   0.038   7.050  12.639 -2.2825 -0.2404 -1.2607
10305TIP3    H255111   0.119   7.086  12.516 -1.0248 -1.1605 -0.7274
10306TIP3   OH255112   6.386   2.701  10.434 -0.4731 -0.0255  0.0895
10306TIP3    H155113   6.314   2.760  10.454  0.9324  0.8520  3.1434
10306TIP3    H255114   6.431   2.742  10.360 -1.5298  0.8348 -0.0977
10307TIP3   OH255115   6.839   5.168  12.887  0.1894 -0.0419  0.4613
10307TIP3    H155116   6.925   5.174  12.928  0.9566 -0.6934 -0.9733
10307TIP3    H255117   6.814   5.076  12.894 -0.3087  0.1083  0.7121
10308TIP3   OH255118   7.068   3.415  10.741  0.1553  0.1141  0.5129
10308TIP3    H155119   7.147   3.408  10.687  0.3400  0.2632  0.7631
10308TIP3    H255120   7.075   3.342  10.802  0.7704  0.8905  1.4045
10309TIP3   OH255121   4.112   3.497  11.311  0.6208 -0.2157  0.1221
10309TIP3    H155122   4.152   3.582  11.332  1.7613 -0.2992 -1.5386
10309TIP3    H255123   4.055   3.514  11.236  1.3865 -1.0215 -0.6666
10310TIP3   OH255124   3.221   0.907  10.312  0.2051  0.5025 -0.2064
10310TIP3    H155125   3.196   0.820  10.344 -0.3565  0.8979  0.4491
10310TIP3    H255126   3.139   0.956  10.311  0.3089  0.6946 -1.6860
10311TIP3   OH255127   4.531   2.227  11.029 -0.3868 -0.1294  0.0839
10311TIP3    H155128   4.559   2.182  10.949  0.1534  1.3473 -0.5893
10311TIP3    H255129   4.484   2.305  10.998 -1.4306 -0.2720  1.2201
10312TIP3   OH255130   1.049   0.209  10.278  0.3135  0.3385 -0.5584
10312TIP3    H155131   1.042   0.131  10.333  0.0979 -0.2338 -1.3796
10312TIP3    H255132   0.959   0.235  10.261  0.3631  0.1405 -1.1484
10313TIP3   OH255133   4.174   4.531  12.373  0.2760 -0.0960  0.0612
10313TIP3    H155134   4.149   4.438  12.367  0.4877 -0.3155  2.0128
10313TIP3    H255135   4.100   4.572  12.418  0.8394  0.3901  0.5478
10314TIP3   OH255136   7.370   6.643  11.090 -0.2218 -0.4681  0.7533
10314TIP3    H155137   7.290   6.611  11.048 -0.7485  0.5771  0.9198
10314TIP3    H255138   7.353   6.633  11.184  0.5317 -1.8114  0.7761
10315TIP3   OH255139   6.153   4.378  11.703 -0.5919 -1.0102  0.3359
10315TIP3    H155140   6.154   4.449  11.640 -1.0175 -1.2511  0.0547
10315TIP3    H255141   6.184   4.417  11.785  0.8835 -0.9222 -0.2519
10316TIP3   OH255142   4.417   3.637  12.634 -0.3097 -0.0494  0.2629
10316TIP3    H155143   4.447   3.633  12.725 -0.3285  1.0429  0.3299
10316TIP3    H255144   4.422   3.547  12.603  0.2047 -0.3497  1.1871
10317TIP3   OH255145   3.408   6.694  12.983 -0.3584 -0.0370 -0.1948
10317TIP3    H155146   3.396   6.605  12.951  0.4158  0.3294 -1.5937
10317TIP3    H255147   3.455   6.685  13.065 -0.4180 -0.9231 -0.2568
10318TIP3   OH255148   6.413   1.318  10.857  0.2730 -0.0889 -1.1046
10318TIP3    H155149   6.455   1.244  10.902 -0.9726 -0.2154 -0.0793
10318TIP3    H255150   6.366   1.279  10.784 -1.4295 -0.5358  0.1689
10319TIP3   OH255151   0.831   6.734  12.284 -0.4032 -0.2717 -0.2287
10319TIP3    H155152   0.785   6.807  12.325  0.0667 -0.4890  0.7272
10319TIP3    H255153   0.876   6.773  12.209 -2.0487 -0.0445 -1.1471
10320TIP3   OH255154   1.545   6.207  11.688 -0.1254 -0.3202  0.0590
10320TIP3    H155155   1.634   6.204  11.653  0.2441 -1.2055  1.0110
10320TIP3    H255156   1.528   6.300  11.703  0.3283 -0.0785 -0.8888
10321TIP3   OH255157   5.859   3.396  11.430 -0.2374  0.6250  0.0856
10321TIP3    H155158   5.823   3.420  11.516 -0.0314 -0.7210  0.5625
10321TIP3    H255159   5.814   3.455  11.369 -2.3020 -0.0978  0.8044
10322TIP3   OH255160   5.540   4.785  12.774 -0.6373  0.3566  0.7481
10322TIP3    H155161   5.463   4.737  12.745 -0.5950  0.4627  0.4563
10322TIP3    H255162   5.507   4.847  12.839 -0.9449  1.0305 -0.0419
10323TIP3   OH255163   2.225   5.534  11.440  0.1013 -0.8320  0.2523
10323TIP3    H155164   2.163   5.462  11.441 -0.6568 -0.2024  2.2556
10323TIP3    H255165   2.311   5.492  11.431 -0.4322 -1.8541 -0.1477
10324TIP3   OH255166   3.995   7.341  12.794 -0.3104  0.3063 -0.2486
10324TIP3    H155167   3.956   7.258  12.766 -2.7393  1.7268 -1.4754
10324TIP3    H255168   3.942   7.369  12.869  2.5408 -0.6961  2.3415
10325TIP3   OH255169   6.661   6.864  11.902  0.1719  0.0126  0.2275
10325TIP3    H155170   6.591   6.831  11.846  1.1145 -0.8750 -0.4518
10325TIP3    H255171   6.629   6.848  11.991 -0.7276  0.1513 -0.0550
10326TIP3   OH255172   5.926   4.514  12.477 -0.0144  0.3947  0.4178
10326TIP3    H155173   5.909   4.600  12.438  0.0572  0.6179  0.8649
10326TIP3    H255174   5.839   4.473  12.481  0.0094  0.2724 -0.1805
10327TIP3   OH255175   5.940   0.095  12.573  0.2402 -0.3852  0.0508
10327TIP3    H155176   5.996   0.025  12.541 -0.2971 -1.2298  0.8997
10327TIP3    H255177   5.943   0.162  12.504  2.0397 -0.5266 -0.0381
10328TIP3   OH255178   0.157   7.158  11.163 -0.3539 -0.3373 -0.2818
10328TIP3    H155179   0.075   7.158  11.114 -0.5945  0.4299  0.1111
10328TIP3    H255180   0.137   7.206  11.244  0.2426 -0.9008  0.2163
10329TIP3   OH255181   4.534   3.147  11.811 -0.0591  0.3665 -0.0533
10329TIP3    H155182   4.514   3.166  11.719 -1.2014 -2.5210 -0.4892
10329TIP3    H255183   4.618   3.102  11.809 -0.2204  0.0410  0.2744
10330TIP3   OH255184   4.191   5.213  11.450 -0.0179 -0.4017 -0.7444
10330TIP3    H155185   4.230   5.126  11.450 -1.1221 -0.9245 -1.5376
10330TIP3    H255186   4.265   5.272  11.434  0.5945 -1.2696 -1.2311
10331TIP3   OH255187   2.291   0.884  10.847 -0.4401  0.0856  0.2764
10331TIP3    H155188   2.254   0.839  10.771  1.1545  1.0791 -1.1575
10331TIP3    H255189   2.276   0.977  10.829 -0.4876  0.3219  1.4449
10332TIP3   OH255190   2.339   3.476  10.883  0.2133  0.1818  0.3019
10332TIP3    H155191   2.426   3.513  10.898  0.0835  0.4186  0.4826
10332TIP3    H255192   2.279   3.537  10.927 -0.0897  0.3186 -0.2778
10333TIP3   OH255193   5.059   2.097  11.041 -0.2819  0.4485  0.4348
10333TIP3    H155194   4.969   2.102  11.008 -0.3741 -1.0543  0.4031
10333TIP3    H255195   5.111   2.145  10.976 -0.7449 -0.6920 -0.8247
10334TIP3   OH255196   5.508   0.114  11.097 -0.1010 -0.3784  0.5329
10334TIP3    H155197   5.543   0.054  11.031 -2.2545 -0.9528 -0.1839
10334TIP3    H255198   5.435   0.066  11.136 -0.8599  1.1703  1.0836
10335TIP3   OH255199   4.046   1.674  11.781  0.1590  0.0536 -0.2316
10335TIP3    H155200   4.088   1.644  11.861 -0.7180 -0.8611 -0.0904
10335TIP3    H255201   4.070   1.767  11.775 -0.0690  0.2429  1.2920
10336TIP3   OH255202   5.207   1.280  12.106  0.0611  0.3673 -0.2188
10336TIP3    H155203   5.206   1.350  12.171  0.8985  0.7885 -0.6427
10336TIP3    H255204   5.283   1.227  12.130 -0.9915 -0.8648  0.5574
10337TIP3   OH255205   6.461   0.411  12.349  0.1278 -0.1633  0.1705
10337TIP3    H155206   6.464   0.441  12.258 -1.2934  3.7941  1.2154
10337TIP3    H255207   6.538   0.451  12.390 -0.4720 -0.0038  1.1671
10338TIP3   OH255208   0.062   7.019  12.226 -0.1053  0.1637  0.5683
10338TIP3    H155209   0.062   6.979  12.139  0.6425 -2.0310  1.4917
10338TIP3    H255210   0.154   7.016  12.254 -0.0979  2.1766  0.9004
10339TIP3   OH255211   6.356   3.100  10.660  0.2873 -0.6063  0.1951
10339TIP3    H155212   6.358   3.110  10.565 -1.6551 -0.2525  0.1457
10339TIP3    H255213   6.409   3.022  10.678  0.3989 -0.8640 -1.1997
10340TIP3   OH255214   2.891   2.182  11.317 -0.2840  0.3661 -0.2387
10340TIP3    H155215   2.838   2.190  11.238  0.9182  3.1399 -0.8947
10340TIP3    H255216   2.840   2.225  11.385 -1.5041 -2.3822  0.7099
10341TIP3   OH255217   0.492   0.743  11.699  0.2604  0.3038  0.6220
10341TIP3    H155218   0.489   0.779  11.787 -1.3661  1.3084  0.2109
10341TIP3    H255219   0.400   0.728  11.676  0.4915  1.5401 -1.4363
10342TIP3   OH255220   4.290   4.700  10.690  0.2577  0.5590 -0.1531
10342TIP3    H155221   4.232   4.667  10.759 -1.4928  3.9174  0.2325
10342TIP3    H255222   4.366   4.643  10.692 -0.9566 -1.1525  2.6644
10343TIP3   OH255223   4.781   6.065  12.507  0.2906  0.2905  0.0775
10343TIP3    H155224   4.845   6.053  12.577  0.2166  2.6934  0.6595
10343TIP3    H255225   4.707   6.110  12.550 -1.5206 -1.7339 -0.7275
10344TIP3   OH255226   6.131   1.710  12.092  0.0191 -0.6583 -0.4213
10344TIP3    H155227   6.186   1.774  12.048 -1.3214 -0.2167 -1.5147
10344TIP3    H255228   6.054   1.759  12.119  0.5586 -1.0115  2.0545
10345TIP3   OH255229   5.385   0.365  13.007 -0.0448 -0.3715  0.0802
10345TIP3    H155230   5.344   0.323  12.931  0.8436 -0.6618 -0.2554
10345TIP3    H255231   5.470   0.321  13.015 -0.3570 -0.7405  1.5877
10346TIP3   OH255232   4.852   4.400  11.104  0.2061 -0.4440  0.2153
10346TIP3    H155233   4.911   4.462  11.147  0.6541 -0.4921 -0.3259
10346TIP3    H255234   4.855   4.423  11.011 -0.6424 -0.4372  0.1804
10347TIP3   OH255235   5.821   7.670  11.868  0.3971 -0.4022  0.1698
10347TIP3    H155236   5.774   7.754  11.873  0.8147  0.0273 -1.9935
10347TIP3    H255237   5.806   7.629  11.953 -1.0157  1.2313  0.7733
10348TIP3   OH255238   7.236   5.758  10.634 -0.3581  0.3171  0.0727
10348TIP3    H155239   7.146   5.746  10.603  0.4975  0.8355 -2.8910
10348TIP3    H255240   7.268   5.833  10.585  1.9674 -0.3393  0.4851
10349TIP3   OH255241   2.098   0.787  11.056  0.1745 -0.4767  0.2204
10349TIP3    H155242   2.074   0.711  11.003  0.8915 -0.0704 -0.6949
10349TIP3    H255243   2.173   0.825  11.012  0.4909  0.1597  1.2634
10350TIP3   OH255244   1.582   7.182  11.717 -0.1471  0.0768 -0.6219
10350TIP3    H155245   1.499   7.153  11.755  0.5221 -0.3682  0.5207
10350TIP3    H255246   1.622   7.103  11.683  0.1848  0.1697 -0.4455
10351TIP3   OH255247   1.806   0.104  12.016 -0.2693  0.1774  0.2174
10351TIP3    H155248   1.782   0.146  11.934 -0.0088  0.9523  0.5320
10351TIP3    H255249   1.901   0.118  12.023 -0.3022  0.1849  0.6887
10352TIP3   OH255250   1.345   7.473  11.861  0.5371  0.5535 -0.5401
10352TIP3    H155251   1.267   7.436  11.819  1.0166 -0.6397 -0.4136
10352TIP3    H255252   1.406   7.489  11.789  0.1544  1.5905 -0.6518
10353TIP3   OH255253   4.691   2.446  11.958  0.2164  0.2775 -0.6120
10353TIP3    H155254   4.645   2.519  11.916 -0.1249  0.2801 -0.2360
10353TIP3    H255255   4.766   2.487  12.002  0.3269  0.3317 -0.8507
10354TIP3   OH255256   1.738   2.481  10.488  0.1209  0.2719  0.0283
10354TIP3    H155257   1.817   2.427  10.493 -0.0771 -0.0793 -0.5761
10354TIP3    H255258   1.666   2.418  10.476 -0.3947  0.4946  1.6311
10355TIP3   OH255259   6.966   7.148  10.961 -0.2965  0.0675  0.5077
10355TIP3    H155260   6.922   7.172  10.880  2.2088  1.3234 -0.5869
10355TIP3    H255261   6.929   7.206  11.027 -0.7963  0.5832 -0.2154
10356TIP3   OH255262   2.413   1.429  11.799  0.3348 -0.2127  0.2762
10356TIP3    H155263   2.361   1.491  11.748 -0.5939 -0.3354  1.0625
10356TIP3    H255264   2.501   1.435  11.761  0.1879  1.3340  0.1282
10357TIP3   OH255265   6.936   5.122  12.172 -0.3385  0.1176 -0.5809
10357TIP3    H155266   6.964   5.032  12.154  1.6821  0.6600 -0.3965
10357TIP3    H255267   6.935   5.128  12.268  1.0765  0.6985 -0.5788
10358TIP3   OH255268   1.870   5.800  13.192  0.0858 -0.1092 -0.1445
10358TIP3    H155269   1.932   5.740  13.151 -0.0836 -1.3867  1.3661
10358TIP3    H255270   1.799   5.808  13.129  0.4840 -0.8742 -0.7116
10359TIP3   OH255271   5.610   2.632  11.168 -0.1388 -0.2184 -0.2956
10359TIP3    H155272   5.551   2.597  11.101  0.3346 -0.9267 -0.3621
10359TIP3    H255273   5.658   2.555  11.199 -0.9203 -0.0334  1.4583
10360TIP3   OH255274   3.451   3.474  12.116  0.2458  0.3643 -0.1609
10360TIP3    H155275   3.493   3.445  12.035  1.1634 -1.6184  0.9441
10360TIP3    H255276   3.518   3.462  12.183 -0.6543  1.5138  0.9819
10361TIP3   OH255277   6.338   1.057  11.763  0.0975  0.4798  0.5561
10361TIP3    H155278   6.318   1.031  11.673 -0.3458  1.8345  0.2411
10361TIP3    H255279   6.409   0.999  11.789 -1.8102 -2.0836  0.4520
10362TIP3   OH255280   0.832   2.059  11.175  0.5976 -0.0106 -0.2929
10362TIP3    H155281   0.849   1.984  11.117 -0.6372 -1.4337  1.0984
10362TIP3    H255282   0.856   2.135  11.122  1.8334 -1.3581 -1.7969
10363TIP3   OH255283   5.754   2.740  10.500 -0.1370 -0.3854  0.0784
10363TIP3    H155284   5.850   2.737  10.494  0.0829  2.3652  0.8472
10363TIP3    H255285   5.734   2.696  10.583  0.5989  0.3325  0.6505
10364TIP3   OH255286   4.886   2.640  11.722 -0.8247  0.2705  0.7610
10364TIP3    H155287   4.914   2.704  11.656  1.1566 -0.5380  0.7464
10364TIP3    H255288   4.791   2.636  11.711 -0.7588  1.4743 -0.8231
10365TIP3   OH255289   3.464   2.674  11.242  0.1095  0.3527  0.0239
10365TIP3    H155290   3.397   2.612  11.272 -0.9603  1.4670  0.0017
10365TIP3    H255291   3.506   2.630  11.167 -0.3823 -0.4846  0.2324
10366TIP3   OH255292   6.769   3.649  13.017  0.0827  0.3361 -0.2904
10366TIP3    H155293   6.758   3.742  12.998 -1.4657  0.0564 -0.8813
10366TIP3    H255294   6.703   3.630  13.083 -0.3862 -0.5879 -1.0062
10367TIP3   OH255295   0.093   3.214  10.786  0.1530 -0.4329  0.5749
10367TIP3    H155296   0.099   3.310  10.785 -1.1828 -0.3367  0.0134
10367TIP3    H255297   0.001   3.196  10.804  0.1098 -1.6075 -0.6877
10368TIP3   OH255298   3.862   5.504  11.503  0.2624 -0.0523  0.1902
10368TIP3    H155299   3.811   5.571  11.549  1.8644  0.3658  1.4596
10368TIP3    H255300   3.864   5.533  11.412 -0.4231  0.7681  0.4291
10369TIP3   OH255301   5.240   4.713  11.401 -0.1895 -0.1639  0.4297
10369TIP3    H155302   5.193   4.748  11.477  0.9949 -1.6816  1.9373
10369TIP3    H255303   5.252   4.620  11.420 -0.2917 -0.7195 -1.8771
10370TIP3   OH255304   4.354   4.907  12.422 -0.0067 -0.2479 -0.0650
10370TIP3    H155305   4.275   4.873  12.463 -0.5777 -0.0895 -1.0173
10370TIP3    H255306   4.394   4.963  12.490 -1.0735  0.2328  0.1808
10371TIP3   OH255307   0.680   3.577  12.999 -0.0017  0.6005 -0.0136
10371TIP3    H155308   0.725   3.593  13.082  1.2044 -1.7279 -0.1527
10371TIP3    H255309   0.742   3.603  12.932  0.8506 -1.7249 -0.1946
10372TIP3   OH255310   1.319   1.153  10.313  0.1398 -0.2883  0.8251
10372TIP3    H155311   1.364   1.126  10.393  0.5003 -0.6695  0.4971
10372TIP3    H255312   1.389   1.171  10.251 -0.1463 -0.5169  0.4317
10373TIP3   OH255313   5.034   2.202  13.563 -0.1633  0.3065 -0.9283
10373TIP3    H155314   5.007   2.112  13.545 -1.1913  0.4483 -0.1752
10373TIP3    H255315   5.094   2.195  13.637 -0.2137  0.2436 -0.8941
10374TIP3   OH255316   5.483   3.606  12.947 -0.4180  0.2879  0.4563
10374TIP3    H155317   5.523   3.561  13.021  0.0465 -0.0171  0.0276
10374TIP3    H255318   5.464   3.694  12.980  0.8233  0.5179  0.6096
10375TIP3   OH255319   4.302   3.303  11.920  0.1302 -0.3958  0.2028
10375TIP3    H155320   4.392   3.271  11.916  0.4363  0.5976 -2.0407
10375TIP3    H255321   4.308   3.386  11.968  0.4252 -0.2548 -0.0812
10376TIP3   OH255322   6.582   3.313  10.940 -0.5843  0.4381 -0.3346
10376TIP3    H155323   6.659   3.367  10.957  0.0165 -0.2998 -0.6457
10376TIP3    H255324   6.517   3.343  11.003 -0.2883  1.5592 -0.5398
10377TIP3   OH255325   7.247   0.872  12.581  0.6183 -0.5251 -0.2586
10377TIP3    H155326   7.215   0.901  12.667 -1.7204 -1.7677 -0.6220
10377TIP3    H255327   7.314   0.936  12.557  0.9087  0.1912  2.2100
10378TIP3   OH255328   0.717   6.240  10.427  0.3249 -0.6195 -0.1436
10378TIP3    H155329   0.725   6.155  10.383  1.0630 -1.1609  0.9749
10378TIP3    H255330   0.806   6.274  10.430 -0.2126  1.1645 -2.3405
10379TIP3   OH255331   0.229   1.947  11.745  0.1647  0.1452  0.1463
10379TIP3    H155332   0.243   1.858  11.777  1.4057  0.0575 -0.5847
10379TIP3    H255333   0.135   1.952  11.728 -0.0229 -0.8006  0.8324
10380TIP3   OH255334   6.897   6.144  12.497 -0.1910  0.6466  0.2151
10380TIP3    H155335   6.841   6.070  12.521 -0.0675  0.6001  0.3596
10380TIP3    H255336   6.974   6.105  12.457 -0.6465  0.7500 -0.7784
10381TIP3   OH255337   7.485   1.304  11.137 -0.3673  0.1547  0.0439
10381TIP3    H155338   7.533   1.331  11.216  1.1387 -0.7421 -0.5165
10381TIP3    H255339   7.460   1.213  11.154  0.5324 -0.2575 -0.7424
10382TIP3   OH255340   0.523   5.453  13.496 -0.1702  0.8298 -0.3114
10382TIP3    H155341   0.532   5.544  13.469  0.5602  1.0754  0.6891
10382TIP3    H255342   0.449   5.452  13.557 -0.3871  0.6966 -0.5781
10383TIP3   OH255343   2.393   5.881  12.176  0.0948 -0.1669 -0.4917
10383TIP3    H155344   2.382   5.931  12.257 -0.2428 -0.3123 -0.4466
10383TIP3    H255345   2.346   5.799  12.192 -0.4499  0.0324 -1.0387
10384TIP3   OH255346   7.550   2.693  11.518 -0.2745 -0.1938 -0.1635
10384TIP3    H155347   7.568   2.654  11.603 -0.7789 -1.4709 -0.6098
10384TIP3    H255348   7.626   2.672  11.465 -0.9010 -1.3321 -0.6442
10385TIP3   OH255349   6.001   0.574  11.894  0.1205  0.4062 -0.0921
10385TIP3    H155350   6.044   0.506  11.842  1.0645  2.1353 -1.6942
10385TIP3    H255351   6.062   0.648  11.892 -1.0223  1.4458  1.2916
10386TIP3   OH255352   6.534   0.863  11.764  0.4692 -0.1369 -1.0482
10386TIP3    H155353   6.524   0.801  11.836  0.1689  0.7746 -0.2747
10386TIP3    H255354   6.544   0.809  11.686 -3.9513 -1.2955 -1.0886
10387TIP3   OH255355   7.399   3.823  11.288 -0.0030  0.3606 -0.2460
10387TIP3    H155356   7.358   3.900  11.327 -1.7040 -1.6821  2.4414
10387TIP3    H255357   7.326   3.766  11.265  1.1913 -1.3142 -0.0930
10388TIP3   OH255358   0.638   2.449  13.092 -0.0774  0.5721 -0.6370
10388TIP3    H155359   0.637   2.531  13.142 -0.4089  2.3245 -3.3159
10388TIP3    H255360   0.554   2.447  13.047 -0.5946 -1.9363  0.2506
10389TIP3   OH255361   5.213   2.693  11.932  0.9401  0.5079  0.0907
10389TIP3    H155362   5.201   2.717  11.840 -2.4091 -0.1128  0.2206
10389TIP3    H255363   5.305   2.710  11.950  0.9442  4.1844 -2.3342
10390TIP3   OH255364   6.654   1.419  11.485 -0.4134  0.1747  0.0798
10390TIP3    H155365   6.674   1.369  11.564 -0.8093 -0.4565 -0.2038
10390TIP3    H255366   6.571   1.382  11.454 -1.1775  1.6160  0.3413
10391TIP3   OH255367   3.020   3.804  11.523 -0.4125 -0.2491 -0.2885
10391TIP3    H155368   2.998   3.843  11.439  0.1062 -0.7198 -0.6526
10391TIP3    H255369   3.110   3.771  11.511  0.3785  1.2903  1.0039
10392TIP3   OH255370   6.864   3.715  10.927  0.2411  0.1756  0.1826
10392TIP3    H155371   6.806   3.649  10.890  1.1734 -1.0013  0.7260
10392TIP3    H255372   6.865   3.697  11.021  0.2468  1.2010  0.3956
10393TIP3   OH255373   5.304   7.677  12.173 -0.0826 -0.3908 -0.3340
10393TIP3    H155374   5.299   7.654  12.080  0.6939  0.1229 -0.5141
10393TIP3    H255375   5.398   7.681  12.192 -0.1754  1.3673 -0.0299
10394TIP3   OH255376   3.060   2.237  11.124 -0.1156  0.4732  0.0059
10394TIP3    H155377   3.077   2.331  11.118  1.8050  0.1254 -0.6108
10394TIP3    H255378   3.007   2.228  11.203  0.0630  2.0302  0.3389
10395TIP3   OH255379   5.802   4.368  13.263  0.1978  0.6327  0.0184
10395TIP3    H155380   5.756   4.356  13.346  0.3211  2.2540  0.3584
10395TIP3    H255381   5.837   4.282  13.242  3.1871  0.7513  3.4513
10396TIP3   OH255382   2.212   1.545  12.356 -0.8222 -0.0029 -0.0050
10396TIP3    H155383   2.158   1.607  12.404  0.2202  0.2224  0.9070
10396TIP3    H255384   2.263   1.598  12.296  0.3727  0.1001  1.0637
10397TIP3   OH255385   7.025   5.946  13.187  0.2535  0.2129  0.2648
10397TIP3    H155386   6.937   5.931  13.152  1.0969 -0.3679 -1.8112
10397TIP3    H255387   7.083   5.915  13.117  2.1090  0.9932  1.3986
10398TIP3   OH255388   6.406   0.141  11.589 -0.1626  0.2565  0.4813
10398TIP3    H155389   6.377   0.140  11.680 -0.3508 -1.2436  0.4281
10398TIP3    H255390   6.423   0.050  11.568 -1.3335  0.4091 -1.3716
10399TIP3   OH255391   2.798   0.976  11.408 -0.9371  0.1868 -0.4706
10399TIP3    H155392   2.826   1.011  11.324 -1.3887 -1.0258 -1.1549
10399TIP3    H255393   2.774   0.885  11.389 -0.3354 -0.3384  1.1037
10400TIP3   OH255394   0.412   6.509  11.305 -0.2440  0.0077  0.0428
10400TIP3    H155395   0.472   6.499  11.231 -0.2905 -1.5245  0.1897
10400TIP3    H255396   0.325   6.517  11.265 -0.2201 -0.3395 -0.0756
10401TIP3   OH255397   6.707   2.836  10.917  1.0363  0.0863 -0.0960
10401TIP3    H155398   6.685   2.911  10.863  0.0520 -0.3941 -0.3807
10401TIP3    H255399   6.721   2.872  11.005  0.5228  0.5916 -0.2231
10402TIP3   OH255400   7.455   5.860  11.519  0.0770  0.0105 -0.2409
10402TIP3    H155401   7.459   5.872  11.424  1.2777  2.0362  0.0281
10402TIP3    H255402   7.497   5.775  11.534  0.5900  0.0375 -1.4413
10403TIP3   OH255403   2.244   7.315  10.326 -0.2476  0.2508  0.5808
10403TIP3    H155404   2.160   7.351  10.352 -0.6019  0.2371 -0.4774
10403TIP3    H255405   2.263   7.356  10.242  2.2180  2.4894  2.0736
10404TIP3   OH255406   5.134   5.963  13.343 -0.3462  0.2053  0.0161
10404TIP3    H155407   5.049   6.005  13.359 -0.5592 -0.2528  0.0815
10404TIP3    H255408   5.136   5.948  13.249 -0.8469 -0.8618  0.1624
10405TIP3   OH255409   3.766   2.982  10.646  0.0509 -0.2999  0.5921
10405TIP3    H155410   3.797   2.958  10.733 -0.4662 -1.1227  0.5643
10405TIP3    H255411   3.837   3.034  10.608  2.0035 -3.1241  0.0493
10406TIP3   OH255412   4.330   3.345  11.209 -0.0313  0.9540  0.0358
10406TIP3    H155413   4.334   3.402  11.132 -1.0388  1.2103  0.1598
10406TIP3    H255414   4.273   3.391  11.270  0.2696  0.4622  0.6980
10407TIP3   OH255415   1.641   2.594  11.379  0.2241 -0.5994  0.4983
10407TIP3    H155416   1.573   2.568  11.442 -0.9741 -2.0080 -1.2945
10407TIP3    H255417   1.696   2.516  11.369  0.2628 -0.4676 -0.3804
10408TIP3   OH255418   0.369   1.035  10.620 -0.5454  0.3253  0.5732
10408TIP3    H155419   0.308   0.961  10.620 -0.2031 -0.0349 -1.7785
10408TIP3    H255420   0.316   1.110  10.647 -1.1488 -0.5602  1.9809
10409TIP3   OH255421   2.005   6.873  11.349 -0.4333  0.5352 -0.5842
10409TIP3    H155422   1.947   6.802  11.375  0.4618  0.2904  0.8425
10409TIP3    H255423   2.060   6.836  11.280  0.4217 -0.3717  0.5448
10410TIP3   OH255424   1.818   4.165  11.979  0.0833 -0.8019  0.9681
10410TIP3    H155425   1.898   4.192  11.933 -1.2657  1.3918 -0.2778
10410TIP3    H255426   1.849   4.114  12.053  2.5953 -0.7050  0.0788
10411TIP3   OH255427   0.988   3.081  12.416  0.3195  0.1312 -0.0378
10411TIP3    H155428   1.083   3.083  12.402  0.5971  0.6495  1.6781
10411TIP3    H255429   0.959   3.003  12.368  1.0736  1.6880 -3.2921
10412TIP3   OH255430   2.955   6.954  12.137  0.2273 -0.1718  0.2772
10412TIP3    H155431   3.044   6.979  12.110 -0.0625  0.4288 -0.1417
10412TIP3    H255432   2.966   6.867  12.176  1.5140  1.2190  3.2951
10413TIP3   OH255433   1.052   1.140  10.751  0.1988 -0.5319  0.3637
10413TIP3    H155434   1.050   1.223  10.799 -0.7338 -1.2197  1.5485
10413TIP3    H255435   1.065   1.073  10.819 -0.7765 -1.5020 -0.3789
10414TIP3   OH255436   4.832   3.192  11.710  0.6976 -0.1730 -0.0043
10414TIP3    H155437   4.840   3.275  11.756  1.3807 -0.7565  0.9815
10414TIP3    H255438   4.818   3.215  11.619  1.1564  1.0154  0.2152
10415TIP3   OH255439   5.411   5.775  11.655 -0.5956  0.6642 -0.2956
10415TIP3    H155440   5.461   5.816  11.584 -1.7314 -1.1215 -2.2424
10415TIP3    H255441   5.465   5.702  11.684 -1.4003 -0.4539 -1.4841
10416TIP3   OH255442   4.452   3.108  12.381  0.4901 -0.0705 -0.1525
10416TIP3    H155443   4.374   3.072  12.339  0.1152 -0.1750  0.6119
10416TIP3    H255444   4.508   3.136  12.309 -0.6600  0.8716 -0.7020
10417TIP3   OH255445   1.607   5.366  10.794 -0.2329 -0.3347  0.4565
10417TIP3    H155446   1.531   5.403  10.748  0.3190 -0.9375 -1.0290
10417TIP3    H255447   1.668   5.439  10.803 -0.4966 -0.1244  0.5410
10418TIP3   OH255448   1.950   0.319  11.272 -0.1302  0.1523  0.3090
10418TIP3    H155449   1.963   0.282  11.185 -2.2984  1.4814 -0.6605
10418TIP3    H255450   2.033   0.363  11.293  0.2307  0.3074 -1.3381
10419TIP3   OH255451   7.496   5.468  13.718  0.6111 -0.2351 -0.3856
10419TIP3    H155452   7.428   5.411  13.755  1.2531 -1.5648 -1.1716
10419TIP3    H255453   7.564   5.471  13.785 -0.4044  1.5686  0.6523
10420TIP3   OH255454   4.343   6.999  12.259 -0.2483 -0.1565 -0.3868
10420TIP3    H155455   4.324   6.983  12.351 -0.5315  0.1941 -0.3807
10420TIP3    H255456   4.432   6.966  12.247 -0.6426 -1.2939 -0.2780
10421TIP3   OH255457   6.521   2.707  11.291  0.1743 -0.0112  0.5098
10421TIP3    H155458   6.481   2.778  11.240 -0.2140  0.8558  1.9495
10421TIP3    H255459   6.504   2.628  11.240 -0.9918  0.6969 -0.2467
10422TIP3   OH255460   0.758   4.332  10.670 -0.1760 -0.0085 -0.2818
10422TIP3    H155461   0.667   4.362  10.665 -0.3210 -0.5853 -1.3918
10422TIP3    H255462   0.809   4.408  10.642 -0.3822  0.0128 -0.6104
10423TIP3   OH255463   3.153   7.143  12.255  0.3442  0.2951  0.1137
10423TIP3    H155464   3.114   7.123  12.340  1.4352 -0.4397  0.4582
10423TIP3    H255465   3.133   7.236  12.241  0.4148  0.5159  1.3183
10424TIP3   OH255466   0.831   5.485  13.365 -0.3270 -0.0978  0.5877
10424TIP3    H155467   0.864   5.400  13.393  0.9004  0.1050 -0.1780
10424TIP3    H255468   0.818   5.475  13.271  0.4890  0.7578  0.3736
10425TIP3   OH255469   0.251   6.367  10.810 -0.5027  0.0108  0.5745
10425TIP3    H155470   0.201   6.303  10.760  1.3156 -1.3104  0.3830
10425TIP3    H255471   0.332   6.322  10.835  2.1022  2.9292 -1.8192
10426TIP3   OH255472   6.330   1.022  11.450  0.5099 -0.3165  0.1601
10426TIP3    H155473   6.361   1.069  11.373  0.8728 -1.2894 -0.3165
10426TIP3    H255474   6.284   0.946  11.414  0.1156 -0.4333  0.8952
10427TIP3   OH255475   5.307   1.111  12.525  0.3330  0.3947 -0.5494
10427TIP3    H155476   5.329   1.125  12.617 -0.9624  1.7537 -0.4042
10427TIP3    H255477   5.390   1.124  12.478  0.8086  0.6498  0.3377
10428TIP3   OH255478   4.527   4.069  12.533 -0.1215 -0.6285  0.1566
10428TIP3    H155479   4.447   4.088  12.582 -0.4323  2.5209 -1.3772
10428TIP3    H255480   4.503   4.083  12.441  2.2092  0.5903 -0.3363
10429TIP3   OH255481   1.450   2.113  11.361  0.3304 -0.4806  0.0559
10429TIP3    H155482   1.415   2.040  11.309  1.5036 -0.0440 -1.3816
10429TIP3    H255483   1.499   2.070  11.432 -0.3111 -1.0734  0.1535
10430TIP3   OH255484   1.943   2.197  11.595 -0.5847 -0.7417 -0.8258
10430TIP3    H155485   2.004   2.245  11.652 -0.3630 -1.4809 -0.4257
10430TIP3    H255486   1.881   2.157  11.655 -1.7546  0.3477 -1.2495
10431TIP3   OH255487   6.681   6.339  13.096 -0.3476  0.1703  0.2272
10431TIP3    H155488   6.742   6.312  13.164 -0.9059 -0.9004  0.3255
10431TIP3    H255489   6.597   6.347  13.141 -1.0703 -2.0799 -0.5611
10432TIP3   OH255490   1.513   0.422  11.575 -0.4066 -0.3646 -0.0939
10432TIP3    H155491   1.459   0.352  11.538  0.4948  0.3969 -3.1745
10432TIP3    H255492   1.568   0.451  11.502  1.4443  1.4979  1.8774
10433TIP3   OH255493   2.090   5.492  10.431  0.2278  0.8029 -0.3495
10433TIP3    H155494   2.137   5.414  10.461 -0.0784  0.7302 -0.0669
10433TIP3    H255495   2.004   5.460  10.403  0.1236  1.0298 -0.2935
10434TIP3   OH255496   5.093   3.558  12.649 -0.0167 -0.0159  0.2345
10434TIP3    H155497   5.032   3.622  12.684 -0.3351 -0.4855  0.5499
10434TIP3    H255498   5.055   3.532  12.565  0.3447  0.5339 -0.1061
10435TIP3   OH255499   4.692   7.533  13.280 -0.5772 -0.3566  0.3420
10435TIP3    H155500   4.787   7.547  13.278 -0.5075 -0.8291  0.2792
10435TIP3    H255501   4.667   7.551  13.371 -0.5820  0.7426  0.1325
10436TIP3   OH255502   1.562   4.543  11.940  0.1744 -0.2047  0.1884
10436TIP3    H155503   1.579   4.559  12.033 -0.4377  0.4947  0.1889
10436TIP3    H255504   1.488   4.483  11.939  0.2609 -0.3105  0.1553
10437TIP3   OH255505   5.439   7.585  12.751 -0.0080  0.1926 -0.2889
10437TIP3    H155506   5.372   7.641  12.790  0.1793 -1.1509  2.1065
10437TIP3    H255507   5.513   7.644  12.734 -0.4118  0.9936  0.6422
10438TIP3   OH255508   0.072   6.198  12.292  0.6287  0.0963 -0.4722
10438TIP3    H155509   0.044   6.168  12.378  2.3466 -0.9007 -0.2250
10438TIP3    H255510   0.123   6.277  12.309  2.3862 -1.0203 -0.3671
10439TIP3   OH255511   5.720   3.138  11.493 -0.4816 -0.3719 -0.3514
10439TIP3    H155512   5.754   3.225  11.471 -0.5728 -0.6897 -1.8368
10439TIP3    H255513   5.628   3.142  11.470 -1.2443  0.0558  2.4113
   7.68049   7.68049  30.00000
