Title
55513
    1DOPE     N    1   5.085   3.483  16.931 -0.0093 -0.5636  0.6084
    1DOPE   HN1    2   5.146   3.559  16.969 -1.3142  2.0637 -2.1739
    1DOPE   HN2    3   5.136   3.437  16.852  0.0740 -0.5564  0.6590
    1DOPE   HN3    4   4.994   3.529  16.912  0.4849  0.8626  1.5700
    1DOPE   C12    5   5.061   3.383  17.036  0.5611 -0.3325 -0.3637
    1DOPE  H12A    6   4.994   3.423  17.116  1.2284 -0.4290  0.2445
    1DOPE  H12B    7   5.161   3.365  17.081  1.4843  2.5489 -1.0321
    1DOPE   C11    8   4.990   3.263  16.976  0.0667  1.2044  0.5421
    1DOPE  H11A    9   4.896   3.278  16.919  1.3005 -1.9034 -2.6510
    1DOPE  H11B   10   4.968   3.199  17.064  0.0049  1.6497  0.8531
    1DOPE     P   11   5.037   3.042  16.837 -0.2306 -0.2752 -0.0245
    1DOPE   O13   12   4.899   3.002  16.881 -0.5984 -0.0189 -0.2458
    1DOPE   O14   13   5.146   2.949  16.859 -0.1247  0.2062 -0.7820
    1DOPE   O11   14   5.044   3.080  16.686 -0.4057 -0.8169 -0.0056
    1DOPE   O12   15   5.075   3.178  16.897  0.2429 -0.8407 -0.3000
    1DOPE    C1   16   4.952   3.177  16.627  0.4434  0.2448 -0.3535
    1DOPE    HA   17   5.015   3.223  16.548 -0.0438  0.8749 -0.3824
    1DOPE    HB   18   4.916   3.259  16.693  2.3837  0.0409  1.0344
    1DOPE    C2   19   4.833   3.117  16.542  0.3704 -0.3854  0.2166
    1DOPE    HS   20   4.768   3.058  16.610 -0.8670  0.4164 -0.2519
    1DOPE   O21   21   4.887   3.031  16.442 -0.1418  0.7552  0.1893
    1DOPE   C21   22   4.918   2.908  16.482 -0.2224  0.6780  0.6639
    1DOPE   O22   23   4.904   2.855  16.588  0.5951  0.2035 -0.2957
    1DOPE   C22   24   4.963   2.822  16.350 -0.1387 -0.3003 -0.0385
    1DOPE   H2R   25   4.979   2.893  16.266  0.4995 -0.2910  0.0840
    1DOPE   H2S   26   4.876   2.757  16.326  1.6537 -2.2157 -1.8283
    1DOPE    C3   27   4.750   3.221  16.465 -0.6198 -0.8892 -0.8612
    1DOPE    HX   28   4.828   3.271  16.403  0.2423  0.2288  1.0593
    1DOPE    HY   29   4.719   3.313  16.518  1.9689  0.3678 -1.3550
    1DOPE   O31   30   4.655   3.162  16.383  0.5137  0.5476 -0.0980
    1DOPE   C31   31   4.541   3.129  16.446 -0.8474 -0.1338 -0.5871
    1DOPE   O32   32   4.519   3.138  16.564  0.1003 -0.2244 -0.7138
    1DOPE   C32   33   4.440   3.066  16.342  0.0263  0.1306 -0.0751
    1DOPE   H2X   34   4.436   3.148  16.267 -0.2580  0.8490  0.7054
    1DOPE   H2Y   35   4.490   2.973  16.309 -0.2758 -0.4808  1.1617
    1DOPE   C23   36   5.079   2.724  16.377 -0.7467  0.1706 -0.0054
    1DOPE   H3R   37   5.087   2.663  16.285 -0.1003  3.0315 -1.9863
    1DOPE   H3S   38   5.072   2.652  16.462  1.0395  1.3321  1.1970
    1DOPE   C24   39   5.206   2.797  16.380  0.2172 -0.1034  0.0850
    1DOPE   H4R   40   5.212   2.854  16.475  0.3888  0.0716 -0.0296
    1DOPE   H4S   41   5.213   2.855  16.285 -0.6334 -2.5019 -1.5541
    1DOPE   C25   42   5.324   2.696  16.391 -0.7298 -0.0485 -0.2855
    1DOPE   H5R   43   5.301   2.616  16.464 -0.8249 -1.1857 -1.5196
    1DOPE   H5S   44   5.415   2.747  16.428 -1.2397  1.1092 -0.5672
    1DOPE   C26   45   5.359   2.627  16.257  0.4416  0.3925 -0.1406
    1DOPE   H6R   46   5.264   2.591  16.213  1.2343 -2.2837  0.1739
    1DOPE   H6S   47   5.415   2.533  16.271  0.3266  0.3498  0.0388
    1DOPE   C27   48   5.437   2.710  16.160  0.6537 -0.1734  0.0933
    1DOPE   H7R   49   5.526   2.742  16.218  0.0841  0.1779  0.7755
    1DOPE   H7S   50   5.382   2.799  16.124  2.3365  0.3469 -1.3413
    1DOPE   C28   51   5.471   2.629  16.030  0.4532  1.1389  0.0687
    1DOPE   H8R   52   5.514   2.531  16.062 -1.4735  0.5045  0.8860
    1DOPE   H8S   53   5.547   2.678  15.965 -0.6695 -0.6561 -2.8109
    1DOPE   C29   54   5.351   2.608  15.938  0.4830 -0.3076 -0.1860
    1DOPE   H9R   55   5.293   2.697  15.910 -0.9929 -1.4293 -0.8372
    1DOPE  C210   56   5.296   2.487  15.906 -0.3718 -0.2976 -0.6482
    1DOPE  H10R   57   5.208   2.494  15.840 -0.5030  1.8472 -0.3190
    1DOPE  C211   58   5.360   2.349  15.934  0.5398  0.1416 -0.2442
    1DOPE  H11R   59   5.284   2.293  15.993  1.4250 -2.0539 -1.1124
    1DOPE  H11S   60   5.459   2.348  15.985 -0.4961 -0.8084  1.8886
    1DOPE  C212   61   5.377   2.278  15.797  0.1646  0.9456 -0.0748
    1DOPE  H12R   62   5.277   2.273  15.748  0.6665 -3.6016 -1.1150
    1DOPE  H12S   63   5.411   2.173  15.811 -1.3723  0.3261 -0.7276
    1DOPE  C213   64   5.470   2.344  15.693 -0.5214  0.2769 -0.1772
    1DOPE  H13R   65   5.564   2.285  15.689 -0.4143  0.4611 -0.3835
    1DOPE  H13S   66   5.491   2.446  15.731  3.6735  0.2648 -1.9741
    1DOPE  C214   67   5.407   2.345  15.555  0.2601  0.4639 -1.0086
    1DOPE  H14R   68   5.307   2.393  15.560 -0.1229 -0.3386 -0.6530
    1DOPE  H14S   69   5.382   2.239  15.533  0.8878  0.2190 -0.5802
    1DOPE  C215   70   5.487   2.414  15.451 -0.0824 -1.0964 -0.4254
    1DOPE  H15R   71   5.593   2.395  15.480 -0.4101 -0.0746  1.5601
    1DOPE  H15S   72   5.470   2.520  15.478 -1.0870 -1.3212 -0.1370
    1DOPE  C216   73   5.444   2.378  15.310  0.4784  0.4718  0.2712
    1DOPE  H16R   74   5.337   2.409  15.317  0.4410  0.9752 -1.8405
    1DOPE  H16S   75   5.442   2.270  15.285  1.0998  0.8130 -1.3661
    1DOPE  C217   76   5.500   2.466  15.204 -0.1713  0.5727 -0.2475
    1DOPE  H17R   77   5.522   2.569  15.237 -0.2974 -0.1515  2.2808
    1DOPE  H17S   78   5.433   2.477  15.116 -0.5033  2.7518  0.2244
    1DOPE  C218   79   5.638   2.416  15.159 -0.1777 -0.1954  0.0541
    1DOPE  H18R   80   5.669   2.434  15.054  0.2571  1.3614  0.4235
    1DOPE  H18S   81   5.638   2.306  15.174 -2.3176 -0.2229  0.1539
    1DOPE  H18T   82   5.716   2.465  15.221 -0.5634  0.4304  0.0464
    1DOPE   C33   83   4.311   3.029  16.409 -0.1208  0.4073 -0.3691
    1DOPE   H3X   84   4.271   3.126  16.446  0.9559  0.8035 -0.2187
    1DOPE   H3Y   85   4.342   2.966  16.495  1.7955  3.2750  1.2186
    1DOPE   C34   86   4.211   2.944  16.326 -0.1362  0.2138 -0.6726
    1DOPE   H4X   87   4.162   3.008  16.249  0.2097 -0.0965 -1.1621
    1DOPE   H4Y   88   4.263   2.857  16.279 -2.1659 -0.9404 -0.8689
    1DOPE   C35   89   4.089   2.891  16.418 -0.2275  0.1253  0.0519
    1DOPE   H5X   90   4.020   2.972  16.449 -0.8693 -0.9543  1.6042
    1DOPE   H5Y   91   4.131   2.853  16.514 -0.7404 -1.5562 -0.3527
    1DOPE   C36   92   4.003   2.781  16.337 -0.1127  0.5586 -0.0841
    1DOPE   H6X   93   4.071   2.707  16.290 -2.5804 -1.8105 -0.1990
    1DOPE   H6Y   94   3.948   2.828  16.253  1.9700  0.7165 -1.4184
    1DOPE   C37   95   3.898   2.696  16.420  0.1969 -0.6045 -1.1323
    1DOPE   H7X   96   3.947   2.637  16.500 -1.2675  0.8614  0.9513
    1DOPE   H7Y   97   3.841   2.769  16.480  1.1516 -1.4553  0.9151
    1DOPE   C38   98   3.807   2.605  16.334 -0.6863  0.0204 -0.6065
    1DOPE   H8X   99   3.751   2.686  16.282  0.8323  1.2305 -0.4022
    1DOPE   H8Y  100   3.740   2.534  16.387 -0.7099  0.7364  0.3541
    1DOPE   C39  101   3.888   2.522  16.240  0.6404  0.5071 -0.1032
    1DOPE   H9X  102   3.959   2.456  16.292 -0.4776 -0.5536  0.1137
    1DOPE  C310  103   3.877   2.525  16.101 -1.0224 -0.3115  0.0140
    1DOPE  H10X  104   3.944   2.465  16.039 -0.3307 -0.3295  0.7478
    1DOPE  C311  105   3.786   2.611  16.015 -0.2102  0.2387 -0.1468
    1DOPE  H11X  106   3.746   2.548  15.933  0.5036  0.8650 -0.9952
    1DOPE  H11Y  107   3.706   2.653  16.079 -0.1693  0.3834 -0.1901
    1DOPE  C312  108   3.864   2.734  15.964  0.1336 -0.1704 -0.0796
    1DOPE  H12X  109   3.954   2.750  16.026  1.2714  2.0004 -2.1162
    1DOPE  H12Y  110   3.793   2.815  15.993  0.7449 -0.4666  2.4114
    1DOPE  C313  111   3.902   2.726  15.816 -0.3193 -0.3143 -0.5040
    1DOPE  H13X  112   3.975   2.642  15.809 -0.6835 -0.8287  1.3982
    1DOPE  H13Y  113   3.821   2.689  15.750 -1.3606 -0.3320  0.7662
    1DOPE  C314  114   3.963   2.851  15.757 -0.4669  0.0441  0.0010
    1DOPE  H14X  115   4.068   2.865  15.790  0.3330  0.3838 -2.4869
    1DOPE  H14Y  116   3.914   2.933  15.814  0.7178 -0.0447  1.1938
    1DOPE  C315  117   3.941   2.850  15.602  0.1908 -0.7611  0.3084
    1DOPE  H15X  118   3.833   2.868  15.583  0.6626  2.1345 -0.0973
    1DOPE  H15Y  119   3.972   2.751  15.561  1.0379 -0.7663  0.9403
    1DOPE  C316  120   4.023   2.957  15.519  0.0321 -0.0087 -0.4216
    1DOPE  H16X  121   4.123   2.973  15.564 -0.3028 -0.7841  0.6432
    1DOPE  H16Y  122   3.968   3.053  15.511  1.7869  1.2045  1.1620
    1DOPE  C317  123   4.055   2.913  15.375 -0.1255  0.2913  0.2893
    1DOPE  H17X  124   4.133   2.835  15.366  0.4355  0.9046 -0.3620
    1DOPE  H17Y  125   3.958   2.873  15.338 -1.1205  1.9874  0.9151
    1DOPE  C318  126   4.083   3.025  15.269 -0.3908 -0.3802 -0.1487
    1DOPE  H18X  127   3.980   3.065  15.259 -0.3231 -0.4277 -1.1509
    1DOPE  H18Y  128   4.152   3.102  15.308 -1.6550  0.7080  0.0178
    1DOPE  H18Z  129   4.109   2.988  15.168 -0.0870 -0.3244 -0.0895
    2DOPE     N  130   4.769   4.174  16.881  0.3641 -0.3001  0.0975
    2DOPE   HN1  131   4.828   4.140  16.802  0.4647  0.3186 -0.0969
    2DOPE   HN2  132   4.670   4.172  16.852  0.0090  0.2819  1.1900
    2DOPE   HN3  133   4.798   4.274  16.891  0.6859 -0.3908  0.1042
    2DOPE   C12  134   4.784   4.093  17.009  0.6065  0.2752  0.2359
    2DOPE  H12A  135   4.715   4.140  17.082  0.0289 -1.8727  1.1501
    2DOPE  H12B  136   4.889   4.082  17.043  0.4529 -1.1658  0.3135
    2DOPE   C11  137   4.731   3.948  16.984 -0.5467 -0.1588 -0.1127
    2DOPE  H11A  138   4.750   3.882  17.071  0.3729 -2.0288 -1.6714
    2DOPE  H11B  139   4.790   3.911  16.898  4.2849  0.8082  2.4259
    2DOPE     P  140   4.465   3.945  17.025  0.1995  0.1652 -0.3280
    2DOPE   O13  141   4.407   4.084  17.041  0.0713 -0.1207  0.6560
    2DOPE   O14  142   4.485   3.876  17.156  0.5831  0.1200  1.0401
    2DOPE   O11  143   4.362   3.856  16.942  0.5395 -0.2065 -0.4846
    2DOPE   O12  144   4.596   3.944  16.941  0.0934  0.4090  0.0844
    2DOPE    C1  145   4.359   3.717  16.931 -0.0179 -0.7203 -0.3167
    2DOPE    HA  146   4.263   3.679  16.888  1.6931 -3.6106 -1.8701
    2DOPE    HB  147   4.375   3.661  17.025 -0.5918  0.4358  0.4937
    2DOPE    C2  148   4.474   3.666  16.842 -0.3688 -0.2449  0.2231
    2DOPE    HS  149   4.568   3.690  16.897 -0.9746 -0.0894  1.2034
    2DOPE   O21  150   4.475   3.732  16.711 -0.1033  0.2781  0.3095
    2DOPE   C21  151   4.595   3.726  16.661 -0.3531 -0.2093 -0.5658
    2DOPE   O22  152   4.696   3.698  16.721 -0.2157 -0.1500 -0.0352
    2DOPE   C22  153   4.590   3.744  16.513 -0.4534 -0.1783  0.7958
    2DOPE   H2R  154   4.612   3.848  16.480  0.9270 -1.1407 -1.5305
    2DOPE   H2S  155   4.488   3.727  16.471 -0.3087 -0.7172  0.6562
    2DOPE    C3  156   4.466   3.508  16.835 -0.5401  0.5236  0.2542
    2DOPE    HX  157   4.462   3.464  16.936 -2.0894  1.2482  0.5436
    2DOPE    HY  158   4.567   3.483  16.797  0.1421  1.7673  1.1826
    2DOPE   O31  159   4.350   3.463  16.755  0.1042 -0.0287 -0.0853
    2DOPE   C31  160   4.364   3.443  16.623  0.4723  0.2917 -0.4713
    2DOPE   O32  161   4.465   3.454  16.557  0.2889  0.1300 -0.4424
    2DOPE   C32  162   4.230   3.415  16.571 -0.1943  0.2000 -0.4780
    2DOPE   H2X  163   4.202   3.312  16.603 -2.5599  0.9630  0.1539
    2DOPE   H2Y  164   4.156   3.488  16.611  0.7199  0.1525  1.3803
    2DOPE   C23  165   4.678   3.644  16.430  0.3702 -0.2014  0.5665
    2DOPE   H3R  166   4.655   3.541  16.464  0.2998 -0.2840  0.2729
    2DOPE   H3S  167   4.785   3.662  16.458  0.2498 -1.4783  1.9689
    2DOPE   C24  168   4.656   3.659  16.278 -0.2140  0.1627  0.2165
    2DOPE   H4R  169   4.727   3.596  16.219 -0.4622 -0.5707  0.6785
    2DOPE   H4S  170   4.665   3.766  16.251 -0.8798  0.7472  2.1030
    2DOPE   C25  171   4.512   3.615  16.228 -0.2963 -0.0169 -0.3368
    2DOPE   H5R  172   4.441   3.682  16.282  1.0518 -0.4999  2.2152
    2DOPE   H5S  173   4.497   3.516  16.275  0.8232  0.7670  1.8379
    2DOPE   C26  174   4.499   3.630  16.080  0.3206 -0.0584 -0.7003
    2DOPE   H6R  175   4.598   3.612  16.034  2.6579  0.2901  3.6191
    2DOPE   H6S  176   4.461   3.733  16.058  0.8551  0.5877  1.2211
    2DOPE   C27  177   4.393   3.531  16.038  0.0550  0.3858  0.0903
    2DOPE   H7R  178   4.315   3.538  16.117  1.4295  0.0565  1.5341
    2DOPE   H7S  179   4.448   3.436  16.058 -0.5409  0.3073  1.5001
    2DOPE   C28  180   4.341   3.551  15.890 -0.0369  0.7280  0.5278
    2DOPE   H8R  181   4.319   3.660  15.884  1.6649  1.1620  1.3910
    2DOPE   H8S  182   4.242   3.502  15.880  1.1965 -1.6810 -1.0586
    2DOPE   C29  183   4.438   3.523  15.778  1.2795  0.4669  0.5067
    2DOPE   H9R  184   4.544   3.544  15.799  0.7179  1.5312  2.5680
    2DOPE  C210  185   4.396   3.462  15.665  0.5732  0.4217  0.2907
    2DOPE  H10R  186   4.460   3.441  15.578  0.7713  0.0355  0.5266
    2DOPE  C211  187   4.254   3.436  15.623 -0.0496  0.0489  0.1675
    2DOPE  H11R  188   4.180   3.474  15.697  0.5428 -2.1183  1.9966
    2DOPE  H11S  189   4.252   3.326  15.606 -0.5906  0.1393 -0.3970
    2DOPE  C212  190   4.217   3.508  15.498  0.0361  0.1504  0.4305
    2DOPE  H12R  191   4.291   3.482  15.419  0.2824 -1.1671  1.0620
    2DOPE  H12S  192   4.195   3.616  15.512 -0.1571  0.1793 -0.0809
    2DOPE  C213  193   4.090   3.446  15.439 -0.1800  0.0945 -0.6161
    2DOPE  H13R  194   4.005   3.476  15.504  1.2683 -1.8679  2.4202
    2DOPE  H13S  195   4.112   3.337  15.444  2.5773  0.5994  2.9178
    2DOPE  C214  196   4.065   3.489  15.299 -0.9937  0.3524  0.2124
    2DOPE  H14R  197   4.155   3.457  15.241 -1.6942  0.2090 -0.8294
    2DOPE  H14S  198   4.059   3.600  15.292 -1.2721  0.2978 -0.5178
    2DOPE  C215  199   3.939   3.441  15.229 -0.0027 -0.2491 -0.3608
    2DOPE  H15R  200   3.853   3.496  15.273  0.3160 -0.4076  0.4890
    2DOPE  H15S  201   3.932   3.334  15.256 -1.0955 -0.3512 -1.0173
    2DOPE  C216  202   3.945   3.448  15.079 -0.6250  0.2041  0.1327
    2DOPE  H16R  203   4.023   3.382  15.035 -0.4394 -1.0925  2.2727
    2DOPE  H16S  204   3.971   3.549  15.041 -1.4305  0.7355  0.9553
    2DOPE  C217  205   3.809   3.411  15.008 -0.7590  0.1066 -0.0346
    2DOPE  H17R  206   3.820   3.423  14.898 -0.6954  0.9092  0.0523
    2DOPE  H17S  207   3.737   3.491  15.037 -0.3323  0.4250  0.1581
    2DOPE  C218  208   3.763   3.273  15.040 -0.2362  0.3729  0.0498
    2DOPE  H18R  209   3.668   3.251  14.986  1.5431  0.2988 -3.3623
    2DOPE  H18S  210   3.751   3.260  15.149 -0.1412  2.2152  0.3211
    2DOPE  H18T  211   3.832   3.190  15.013 -3.2638 -2.8600  1.4469
    2DOPE   C33  212   4.224   3.428  16.417 -0.9067 -0.3812 -0.0354
    2DOPE   H3X  213   4.320   3.398  16.368 -0.4040 -0.5283  1.0107
    2DOPE   H3Y  214   4.193   3.531  16.391 -0.7062 -0.1027  0.7937
    2DOPE   C34  215   4.105   3.345  16.361 -0.5434  0.0248  0.2094
    2DOPE   H4X  216   4.116   3.243  16.402 -0.1065  0.6593  1.7641
    2DOPE   H4Y  217   4.007   3.385  16.396 -0.9051  0.2834 -1.0296
    2DOPE   C35  218   4.109   3.339  16.212 -0.1629  0.6703  0.5168
    2DOPE   H5X  219   4.201   3.286  16.180  0.5205  2.5950 -0.8972
    2DOPE   H5Y  220   4.107   3.437  16.161 -1.8844  0.5815  0.3323
    2DOPE   C36  221   3.984   3.262  16.162 -0.0397  0.0845  0.5008
    2DOPE   H6X  222   3.892   3.315  16.194 -0.5343  0.3302 -1.2378
    2DOPE   H6Y  223   3.976   3.157  16.197  1.8606 -1.7006 -3.6558
    2DOPE   C37  224   3.958   3.257  16.009 -0.2570 -0.4511  0.2936
    2DOPE   H7X  225   3.854   3.222  15.990 -0.8042  0.4502  1.4970
    2DOPE   H7Y  226   3.966   3.360  15.967 -1.3423 -0.6974 -0.5516
    2DOPE   C38  227   4.045   3.161  15.928  0.4132 -0.4228  0.5377
    2DOPE   H8X  228   3.989   3.157  15.832  1.1098 -0.8922  0.1349
    2DOPE   H8Y  229   4.042   3.062  15.978  1.4488 -0.2089  1.0590
    2DOPE   C39  230   4.186   3.200  15.907 -0.7023  0.2982 -0.2998
    2DOPE   H9X  231   4.199   3.303  15.871  1.7535 -0.6614 -2.5007
    2DOPE  C310  232   4.294   3.126  15.920  0.0139 -0.5212  0.4082
    2DOPE  H10X  233   4.392   3.170  15.895  1.8427 -3.9975  0.8341
    2DOPE  C311  234   4.305   2.977  15.960 -0.1128 -0.2920 -0.4103
    2DOPE  H11X  235   4.383   2.957  16.036  1.4342  3.1035 -0.8940
    2DOPE  H11Y  236   4.212   2.932  16.000  0.0158  1.1635  1.7015
    2DOPE  C312  237   4.362   2.904  15.839  0.3078 -0.1863 -0.2860
    2DOPE  H12X  238   4.468   2.935  15.830 -0.7196  4.1624  0.5940
    2DOPE  H12Y  239   4.308   2.933  15.747  1.1191 -0.4935 -0.8778
    2DOPE  C313  240   4.352   2.746  15.841  0.1608 -0.6435 -0.0313
    2DOPE  H13X  241   4.407   2.711  15.931  0.5143  2.7166  1.2017
    2DOPE  H13Y  242   4.245   2.724  15.860  0.3765 -2.8696 -1.1172
    2DOPE  C314  243   4.396   2.672  15.718 -0.4794  0.0722 -0.0035
    2DOPE  H14X  244   4.339   2.720  15.635  1.1438  0.2313 -1.0765
    2DOPE  H14Y  245   4.360   2.568  15.735 -1.6227  0.9367  3.7430
    2DOPE  C315  246   4.544   2.667  15.690  0.4233 -0.3973 -0.1694
    2DOPE  H15X  247   4.595   2.630  15.781 -0.1775 -2.8271 -0.7569
    2DOPE  H15Y  248   4.579   2.766  15.653 -0.2409 -0.4273 -0.9325
    2DOPE  C316  249   4.561   2.576  15.567 -0.6798  0.2876 -0.2412
    2DOPE  H16X  250   4.483   2.595  15.491 -0.8709 -0.5098 -0.2510
    2DOPE  H16Y  251   4.553   2.473  15.608 -1.0409  0.2702 -0.3562
    2DOPE  C317  252   4.705   2.583  15.520  0.7059  0.5403 -0.2822
    2DOPE  H17X  253   4.760   2.679  15.535  3.5377 -0.7039 -1.8298
    2DOPE  H17Y  254   4.755   2.505  15.580 -5.1740 -2.2167  1.7413
    2DOPE  C318  255   4.709   2.551  15.367  0.2191  0.0707  0.3928
    2DOPE  H18X  256   4.811   2.567  15.326 -0.5165  1.9949 -0.8638
    2DOPE  H18Y  257   4.670   2.448  15.347  1.8839 -0.3354 -0.9437
    2DOPE  H18Z  258   4.650   2.630  15.316 -0.2234 -0.0893  0.6511
    3DOPE     N  259   4.083   4.204  16.974 -0.3697 -0.3329 -0.1301
    3DOPE   HN1  260   3.994   4.257  16.969  0.9011  1.9170 -0.3773
    3DOPE   HN2  261   4.069   4.102  16.991  0.6450 -0.3426  0.7176
    3DOPE   HN3  262   4.139   4.243  17.052  0.2165  1.1657 -1.2355
    3DOPE   C12  263   4.156   4.229  16.853 -0.3226 -0.4885 -0.1108
    3DOPE  H12A  264   4.104   4.175  16.772 -0.8046  0.1721 -0.2545
    3DOPE  H12B  265   4.252   4.179  16.875 -0.6246 -0.9914  0.0876
    3DOPE   C11  266   4.173   4.375  16.812 -0.1866  0.2874  0.1636
    3DOPE  H11A  267   4.075   4.424  16.794  0.1712  1.1570  0.5218
    3DOPE  H11B  268   4.215   4.370  16.709  1.5911 -0.1557  0.8788
    3DOPE     P  269   4.217   4.551  17.003 -0.3369  0.5710 -0.3750
    3DOPE   O13  270   4.333   4.573  17.092  0.4746 -0.8180  0.7494
    3DOPE   O14  271   4.090   4.508  17.065  0.5711 -0.1045 -0.4590
    3DOPE   O11  272   4.182   4.677  16.916  0.2314  0.5330 -0.1355
    3DOPE   O12  273   4.266   4.444  16.888 -0.0725 -0.2158 -0.1994
    3DOPE    C1  274   4.249   4.712  16.797 -0.1022  0.6841  0.0745
    3DOPE    HA  275   4.323   4.634  16.768 -0.1546  0.5939  0.1840
    3DOPE    HB  276   4.306   4.806  16.814  2.4220 -0.5150 -1.2264
    3DOPE    C2  277   4.154   4.734  16.671 -0.5176 -0.0791  0.1630
    3DOPE    HS  278   4.100   4.829  16.691  0.0121  0.1093  0.7103
    3DOPE   O21  279   4.066   4.625  16.653  0.3676  0.0164 -0.4269
    3DOPE   C21  280   3.960   4.652  16.580  0.6316  0.1356 -0.2413
    3DOPE   O22  281   3.910   4.762  16.571  0.5291 -0.1821  0.1157
    3DOPE   C22  282   3.915   4.517  16.522 -0.1874 -0.0202  0.2631
    3DOPE   H2R  283   3.937   4.429  16.586 -0.6924 -0.9922 -0.8751
    3DOPE   H2S  284   3.977   4.503  16.431  0.7078  1.4634  0.5994
    3DOPE    C3  285   4.244   4.763  16.555  0.7104 -1.0965  0.2295
    3DOPE    HX  286   4.307   4.674  16.533  1.2692 -1.0802  1.6308
    3DOPE    HY  287   4.310   4.851  16.575 -0.7533  0.5310 -1.6900
    3DOPE   O31  288   4.175   4.784  16.434 -0.4791 -0.1414 -0.0264
    3DOPE   C31  289   4.136   4.910  16.407 -0.1950  0.1145 -0.9552
    3DOPE   O32  290   4.153   5.000  16.481  0.0499  0.3186  0.0434
    3DOPE   C32  291   4.058   4.902  16.271  0.2813 -0.8699  0.4595
    3DOPE   H2X  292   4.142   4.900  16.198  0.0608 -0.5512  0.1943
    3DOPE   H2Y  293   3.977   4.826  16.271 -0.3910 -0.1665  1.0473
    3DOPE   C23  294   3.770   4.512  16.466  0.6067 -0.1877  0.0632
    3DOPE   H3R  295   3.770   4.594  16.391  1.6071  0.7337  1.0254
    3DOPE   H3S  296   3.706   4.536  16.554  1.3186  1.7110  0.1251
    3DOPE   C24  297   3.726   4.382  16.390 -0.0784  0.2556  0.1662
    3DOPE   H4R  298   3.733   4.295  16.459 -0.8571  0.8197  0.9710
    3DOPE   H4S  299   3.800   4.359  16.310  0.1688  2.6244 -0.3357
    3DOPE   C25  300   3.586   4.394  16.340 -0.4366  0.4537 -0.0523
    3DOPE   H5R  301   3.572   4.485  16.277 -0.6493 -1.1002 -2.3774
    3DOPE   H5S  302   3.517   4.401  16.426  1.8908  1.5720  1.8556
    3DOPE   C26  303   3.532   4.286  16.241  0.2571 -1.0176  0.5021
    3DOPE   H6R  304   3.543   4.190  16.296  0.6075 -2.0854 -1.3804
    3DOPE   H6S  305   3.589   4.288  16.146 -2.3360 -0.2124 -1.1184
    3DOPE   C27  306   3.383   4.313  16.211  0.1129 -0.7166 -0.4219
    3DOPE   H7R  307   3.384   4.417  16.170 -0.7993  0.9447  3.3603
    3DOPE   H7S  308   3.317   4.326  16.300  0.8492 -0.3107  0.0768
    3DOPE   C28  309   3.310   4.224  16.111 -0.4028  0.3223  0.0981
    3DOPE   H8R  310   3.314   4.121  16.151 -0.8011 -0.4663 -1.7916
    3DOPE   H8S  311   3.372   4.220  16.018 -3.5185  0.2447 -2.1317
    3DOPE   C29  312   3.169   4.260  16.081 -0.0194 -0.1000  0.5040
    3DOPE   H9R  313   3.094   4.236  16.158  0.5839 -0.7939  0.8869
    3DOPE  C210  314   3.135   4.326  15.963 -0.0677 -0.0678  0.6329
    3DOPE  H10R  315   3.028   4.341  15.941 -0.2830 -0.5497  1.3103
    3DOPE  C211  316   3.229   4.369  15.847  0.2191 -0.3205  0.7084
    3DOPE  H11R  317   3.338   4.348  15.855  0.5773  1.0820 -0.0632
    3DOPE  H11S  318   3.225   4.480  15.845 -0.9051 -0.3713 -0.7155
    3DOPE  C212  319   3.190   4.313  15.709 -0.4728 -0.3200 -0.2351
    3DOPE  H12R  320   3.086   4.342  15.683 -0.3707  1.5367  1.1706
    3DOPE  H12S  321   3.184   4.203  15.720 -1.4592 -0.3141 -0.6077
    3DOPE  C213  322   3.291   4.343  15.601  0.4492  0.1093  0.7124
    3DOPE  H13R  323   3.392   4.301  15.621  0.3710 -0.2300  0.4042
    3DOPE  H13S  324   3.306   4.452  15.585  1.0015 -0.1628 -0.8014
    3DOPE  C214  325   3.260   4.266  15.470 -0.3080 -0.1889  0.1202
    3DOPE  H14R  326   3.176   4.311  15.413  0.9765  0.8958 -0.9688
    3DOPE  H14S  327   3.220   4.169  15.507 -0.6800 -0.6743 -1.4916
    3DOPE  C215  328   3.377   4.256  15.365  0.6219 -0.2960 -0.7995
    3DOPE  H15R  329   3.461   4.197  15.408  0.1975 -0.2250  0.1376
    3DOPE  H15S  330   3.420   4.356  15.343 -0.9448  0.1216 -2.1568
    3DOPE  C216  331   3.327   4.186  15.231  0.6748 -0.1803 -0.1257
    3DOPE  H16R  332   3.236   4.229  15.184  0.5892 -1.0348 -0.7614
    3DOPE  H16S  333   3.300   4.080  15.247  2.6744 -0.8062 -0.5983
    3DOPE  C217  334   3.434   4.201  15.118 -0.1042  0.3868 -0.6318
    3DOPE  H17R  335   3.516   4.137  15.157 -0.5767 -0.3599 -0.8587
    3DOPE  H17S  336   3.469   4.307  15.116  0.3075  0.2501 -0.7928
    3DOPE  C218  337   3.387   4.156  14.978  0.3551  0.0274  0.2977
    3DOPE  H18R  338   3.367   4.047  14.977 -0.4225  0.1690  0.1659
    3DOPE  H18S  339   3.463   4.177  14.900 -0.3355  0.1827 -0.3359
    3DOPE  H18T  340   3.294   4.205  14.942  0.4283 -0.3828 -0.4577
    3DOPE   C33  341   3.976   5.028  16.234  0.1334  0.0046 -0.5212
    3DOPE   H3X  342   4.038   5.107  16.282 -0.8992  0.2694  0.4052
    3DOPE   H3Y  343   3.878   5.030  16.286  0.2810 -1.4652 -0.1242
    3DOPE   C34  344   3.966   5.049  16.083 -0.4371 -0.0010  0.5346
    3DOPE   H4X  345   3.926   5.150  16.056  0.9161  0.6485  0.8883
    3DOPE   H4Y  346   4.071   5.041  16.048 -0.9914  1.2234 -1.6237
    3DOPE   C35  347   3.865   4.954  16.021  0.1932  0.9314 -0.0366
    3DOPE   H5X  348   3.765   4.996  16.046  1.0852  1.7653  2.3480
    3DOPE   H5Y  349   3.876   4.853  16.067  0.5440  1.8167  1.9049
    3DOPE   C36  350   3.866   4.943  15.864 -0.2118 -0.6865  0.4662
    3DOPE   H6X  351   3.852   5.049  15.833 -2.1489 -0.3845  2.1343
    3DOPE   H6Y  352   3.786   4.876  15.827  0.6826 -0.8943 -1.1734
    3DOPE   C37  353   3.999   4.890  15.803 -0.0057 -0.0040 -0.4058
    3DOPE   H7X  354   4.084   4.943  15.852 -0.1178 -2.0974  2.2429
    3DOPE   H7Y  355   4.021   4.783  15.821  1.8896  0.3452 -0.4209
    3DOPE   C38  356   3.993   4.906  15.651  0.3174  0.0394 -0.2308
    3DOPE   H8X  357   3.911   4.854  15.598  0.9971  0.3347 -1.6389
    3DOPE   H8Y  358   4.086   4.865  15.606  2.1645  3.1789  0.3635
    3DOPE   C39  359   3.996   5.053  15.615 -0.0390 -0.1748  0.4571
    3DOPE   H9X  360   4.065   5.113  15.676 -0.1661  0.3639  0.0748
    3DOPE  C310  361   3.908   5.125  15.542  0.8193  0.5793  0.6249
    3DOPE  H10X  362   3.925   5.232  15.524 -0.8628  0.7844  0.1432
    3DOPE  C311  363   3.783   5.071  15.467  0.1731  0.0890  0.1210
    3DOPE  H11X  364   3.792   5.101  15.361 -0.4778 -0.8809 -0.2190
    3DOPE  H11Y  365   3.764   4.962  15.476  0.1596  0.0643 -0.2225
    3DOPE  C312  366   3.650   5.140  15.514  0.1123  0.6085 -0.9819
    3DOPE  H12X  367   3.563   5.084  15.472 -0.5334 -0.1990  1.2775
    3DOPE  H12Y  368   3.656   5.247  15.486  2.5065  0.9083  0.4112
    3DOPE  C313  369   3.624   5.119  15.666 -0.4460 -0.0739  0.2580
    3DOPE  H13X  370   3.644   5.012  15.690 -1.5363 -0.1267  0.9630
    3DOPE  H13Y  371   3.691   5.191  15.718 -0.8443  0.5219 -0.0567
    3DOPE  C314  372   3.482   5.153  15.704  0.9872  0.6553  0.1703
    3DOPE  H14X  373   3.417   5.094  15.636  0.2764  0.7848  0.7227
    3DOPE  H14Y  374   3.459   5.261  15.686 -0.6124  0.2229 -0.5392
    3DOPE  C315  375   3.446   5.116  15.849  0.3018 -0.4410  0.4751
    3DOPE  H15X  376   3.459   5.008  15.870  0.4423 -0.4033  0.5818
    3DOPE  H15Y  377   3.338   5.144  15.850  0.2054 -0.5736 -1.6026
    3DOPE  C316  378   3.535   5.195  15.937 -0.1394 -0.0879 -0.1009
    3DOPE  H16X  379   3.548   5.299  15.900  0.6262  0.6349  2.0144
    3DOPE  H16Y  380   3.633   5.143  15.945  0.6365  1.4815  1.1550
    3DOPE  C317  381   3.481   5.218  16.074 -0.1593  0.4805  0.6463
    3DOPE  H17X  382   3.542   5.293  16.129  0.0631 -0.8438  2.2668
    3DOPE  H17Y  383   3.383   5.264  16.049  1.3235  3.1497 -0.6766
    3DOPE  C318  384   3.478   5.089  16.150 -0.6216  0.4097  0.3288
    3DOPE  H18X  385   3.577   5.062  16.193 -0.0805  0.2442 -0.9853
    3DOPE  H18Y  386   3.417   5.094  16.242 -0.3914  0.4206  0.4798
    3DOPE  H18Z  387   3.457   5.000  16.086  2.0369 -0.1858  0.1238
    4DOPE     N  388   5.050   2.714  16.952 -0.3218 -0.5469  0.0862
    4DOPE   HN1  389   4.976   2.762  17.008  1.3080 -1.4651  3.3047
    4DOPE   HN2  390   5.118   2.673  17.019 -1.0683 -2.9044 -0.5179
    4DOPE   HN3  391   5.092   2.795  16.903 -2.0034  0.5135  0.3136
    4DOPE   C12  392   5.004   2.601  16.859  0.3436 -0.9511  0.8116
    4DOPE  H12A  393   4.914   2.643  16.811  1.6895  3.0584  1.3906
    4DOPE  H12B  394   4.977   2.514  16.923 -0.8530 -1.0311  0.2259
    4DOPE   C11  395   5.115   2.571  16.750  0.6247 -0.5897 -0.9262
    4DOPE  H11A  396   5.106   2.651  16.673  1.3018 -0.1813 -0.5839
    4DOPE  H11B  397   5.086   2.472  16.710 -0.6433 -0.3542 -0.6388
    4DOPE     P  398   5.363   2.483  16.759  0.3557 -0.0006  0.0407
    4DOPE   O13  399   5.393   2.368  16.852  0.2201  0.3488  0.4790
    4DOPE   O14  400   5.475   2.575  16.736  0.0886 -0.0399  0.7777
    4DOPE   O11  401   5.306   2.427  16.621 -0.3622  0.4525  0.1051
    4DOPE   O12  402   5.241   2.563  16.817  0.5650 -0.2902 -0.0262
    4DOPE    C1  403   5.274   2.292  16.612  0.3594  0.2787  0.3126
    4DOPE    HA  404   5.187   2.261  16.675 -0.5442 -0.0085 -1.0293
    4DOPE    HB  405   5.362   2.231  16.643  0.7097  1.2848  1.3715
    4DOPE    C2  406   5.228   2.254  16.463  1.0494  0.6201 -0.2880
    4DOPE    HS  407   5.195   2.148  16.461 -0.9741  1.2088 -1.8832
    4DOPE   O21  408   5.319   2.290  16.356 -0.7026  0.1241 -0.3996
    4DOPE   C21  409   5.420   2.203  16.345 -0.2327 -0.2698 -0.1696
    4DOPE   O22  410   5.445   2.109  16.421  0.1077 -0.3320  0.2632
    4DOPE   C22  411   5.506   2.224  16.217  0.5276 -0.2185  0.5129
    4DOPE   H2R  412   5.515   2.333  16.202  3.0351 -0.5612 -1.0183
    4DOPE   H2S  413   5.445   2.177  16.136 -0.9140 -3.4021  3.1826
    4DOPE    C3  414   5.101   2.332  16.427  0.0777  0.4930  0.1951
    4DOPE    HX  415   5.134   2.436  16.408 -0.0168  0.7144  1.1890
    4DOPE    HY  416   5.034   2.336  16.515 -0.6074 -1.1270 -0.2168
    4DOPE   O31  417   5.035   2.270  16.315  0.0247  0.1671  0.3332
    4DOPE   C31  418   4.905   2.244  16.335  0.5231 -0.0632  0.3958
    4DOPE   O32  419   4.836   2.296  16.420 -0.7999 -0.0988 -0.1427
    4DOPE   C32  420   4.846   2.180  16.210 -0.0973 -0.1486  0.7190
    4DOPE   H2X  421   4.830   2.071  16.223 -2.8873 -0.0193 -0.8397
    4DOPE   H2Y  422   4.746   2.228  16.196  0.8728  1.5798 -0.8029
    4DOPE   C23  423   5.650   2.157  16.227  0.5787  0.2951  0.6221
    4DOPE   H3R  424   5.637   2.047  16.238  1.3734  0.1575  0.2199
    4DOPE   H3S  425   5.700   2.187  16.322  0.5565 -0.6526  0.9443
    4DOPE   C24  426   5.739   2.167  16.098  1.0914 -0.4715  0.2494
    4DOPE   H4R  427   5.782   2.269  16.088 -0.4334  0.2001  0.2435
    4DOPE   H4S  428   5.685   2.145  16.004  0.3685  1.2222  0.2211
    4DOPE   C25  429   5.851   2.070  16.117  0.1850  0.0210  0.3970
    4DOPE   H5R  430   5.810   1.968  16.138  1.1374 -0.0306  2.2172
    4DOPE   H5S  431   5.910   2.106  16.204  1.0134 -0.2668 -0.0300
    4DOPE   C26  432   5.949   2.068  15.996 -0.0155 -0.0969 -0.3350
    4DOPE   H6R  433   6.015   2.157  16.001  1.0619 -0.8864 -0.0297
    4DOPE   H6S  434   5.901   2.080  15.897 -1.1097 -0.9288  0.0806
    4DOPE   C27  435   6.041   1.946  15.987  0.4155 -0.0824  0.1807
    4DOPE   H7R  436   5.983   1.852  15.975  1.2077 -0.4311 -1.1097
    4DOPE   H7S  437   6.098   1.947  16.082 -1.5759  1.3502  1.4510
    4DOPE   C28  438   6.142   1.953  15.869 -0.8898  0.3518  0.0643
    4DOPE   H8R  439   6.217   1.872  15.887 -0.2087  0.5894 -1.5269
    4DOPE   H8S  440   6.190   2.053  15.868  1.6885 -0.7799 -1.8879
    4DOPE   C29  441   6.072   1.945  15.732  0.4127  0.2164 -0.1526
    4DOPE   H9R  442   6.001   2.025  15.706 -1.9809 -0.8089  2.6120
    4DOPE  C210  443   6.059   1.849  15.642 -0.1913  0.4501  0.1564
    4DOPE  H10R  444   5.990   1.851  15.557 -0.3354 -2.3999  0.0857
    4DOPE  C211  445   6.118   1.712  15.662  0.2859  0.5289 -0.0143
    4DOPE  H11R  446   6.028   1.647  15.664 -0.0933  1.0564  1.0751
    4DOPE  H11S  447   6.164   1.694  15.761  0.8389 -0.4012 -0.4289
    4DOPE  C212  448   6.214   1.666  15.562  0.0909 -0.3949 -0.5944
    4DOPE  H12R  449   6.238   1.559  15.581  3.2808  0.6326  2.1598
    4DOPE  H12S  450   6.312   1.717  15.578 -0.4285  0.0690  1.4518
    4DOPE  C213  451   6.187   1.673  15.415  0.6541 -0.2015  0.8799
    4DOPE  H13R  452   6.187   1.778  15.379 -2.4133 -1.1123 -2.4330
    4DOPE  H13S  453   6.085   1.631  15.397  0.7062  0.4282 -1.0798
    4DOPE  C214  454   6.277   1.598  15.329  0.3170  0.3030 -0.2101
    4DOPE  H14R  455   6.253   1.491  15.350 -0.2498  0.7425  1.5368
    4DOPE  H14S  456   6.384   1.610  15.357  0.4261  1.3590 -1.0378
    4DOPE  C215  457   6.254   1.625  15.180  0.1601  0.1794  0.3898
    4DOPE  H15R  458   6.298   1.724  15.160 -2.2736  1.1529 -0.5466
    4DOPE  H15S  459   6.147   1.646  15.157  0.2155 -1.8798 -2.1895
    4DOPE  C216  460   6.309   1.515  15.090 -0.0935  0.3190  0.6653
    4DOPE  H16R  461   6.415   1.503  15.123  0.8981  0.7312 -2.1048
    4DOPE  H16S  462   6.300   1.541  14.983 -0.6626  0.9603  0.8640
    4DOPE  C217  463   6.252   1.367  15.101 -0.1394 -0.2882  0.2341
    4DOPE  H17R  464   6.277   1.319  15.199 -0.5705  0.0828  0.5315
    4DOPE  H17S  465   6.310   1.307  15.028  2.2939  1.9194  0.2419
    4DOPE  C218  466   6.108   1.353  15.062 -0.8374 -0.7643  0.6752
    4DOPE  H18R  467   6.072   1.249  15.048 -2.7939  0.0949 -1.1867
    4DOPE  H18S  468   6.083   1.411  14.972 -0.6426  1.5789  2.0525
    4DOPE  H18T  469   6.038   1.404  15.131 -1.1073  0.0975 -0.2177
    4DOPE   C33  470   4.929   2.195  16.085  0.2453 -0.0612  0.7297
    4DOPE   H3X  471   5.023   2.136  16.088  0.6081  0.5207  0.8987
    4DOPE   H3Y  472   4.952   2.299  16.054  3.1191  0.2850  3.5012
    4DOPE   C34  473   4.850   2.123  15.969 -0.5040 -0.6438 -0.3253
    4DOPE   H4X  474   4.848   2.014  15.988  0.6738 -0.4877  0.8037
    4DOPE   H4Y  475   4.746   2.162  15.960  0.3946  2.1054  0.0776
    4DOPE   C35  476   4.921   2.145  15.837 -0.3063 -0.3076 -0.4060
    4DOPE   H5X  477   4.859   2.083  15.769 -3.0232  1.5055  0.2674
    4DOPE   H5Y  478   5.025   2.106  15.843 -0.2381 -0.4720 -2.1282
    4DOPE   C36  479   4.929   2.288  15.778 -0.2366 -0.0286  0.3692
    4DOPE   H6X  480   4.975   2.359  15.850  0.3603  0.5074 -0.5293
    4DOPE   H6Y  481   4.827   2.325  15.759 -0.1385 -0.7768 -1.9821
    4DOPE   C37  482   5.005   2.296  15.640  0.5265  0.7844 -0.3100
    4DOPE   H7X  483   5.038   2.401  15.629  0.4345  0.6825 -1.7256
    4DOPE   H7Y  484   5.092   2.227  15.647  0.4169  0.6079 -0.6576
    4DOPE   C38  485   4.919   2.240  15.520  0.1854 -0.3769 -0.3238
    4DOPE   H8X  486   4.814   2.275  15.532 -0.4619 -2.4246  0.3611
    4DOPE   H8Y  487   4.902   2.131  15.533  1.3597 -0.6215 -0.7146
    4DOPE   C39  488   4.970   2.281  15.387 -0.3034 -0.3405 -0.5990
    4DOPE   H9X  489   4.947   2.387  15.368 -2.0142 -0.6008 -0.1074
    4DOPE  C310  490   5.045   2.208  15.295 -0.1763  0.2883 -0.3286
    4DOPE  H10X  491   5.069   2.264  15.203 -2.6424  1.8497 -0.1117
    4DOPE  C311  492   5.080   2.061  15.294 -0.0793  0.0567 -0.1563
    4DOPE  H11X  493   5.025   2.008  15.375 -0.3698  0.1308 -0.3045
    4DOPE  H11Y  494   5.055   1.998  15.206  2.3728 -0.7877 -0.3342
    4DOPE  C312  495   5.227   2.050  15.330  1.1917 -0.8784 -0.1498
    4DOPE  H12X  496   5.257   2.094  15.428 -0.7140 -3.1206  1.5570
    4DOPE  H12Y  497   5.292   2.096  15.253 -1.4525  0.9811 -1.4506
    4DOPE  C313  498   5.266   1.901  15.337 -0.1601 -0.4158  0.4933
    4DOPE  H13X  499   5.221   1.853  15.426  1.4747 -0.2032  1.4803
    4DOPE  H13Y  500   5.228   1.850  15.246  0.0624 -0.4724  0.4304
    4DOPE  C314  501   5.421   1.881  15.340 -0.6343  0.5489 -0.3646
    4DOPE  H14X  502   5.468   1.930  15.428 -0.4646 -1.8084  0.9631
    4DOPE  H14Y  503   5.463   1.910  15.242  2.6950  0.4184  0.8825
    4DOPE  C315  504   5.458   1.732  15.369 -0.1681  0.4039  0.7858
    4DOPE  H15X  505   5.410   1.667  15.292  2.4183  0.8417 -1.3559
    4DOPE  H15Y  506   5.431   1.703  15.473 -1.4659 -0.0435  0.3439
    4DOPE  C316  507   5.610   1.702  15.367 -0.3357  0.1407 -0.1246
    4DOPE  H16X  508   5.664   1.753  15.451  0.0649  0.5800 -0.6404
    4DOPE  H16Y  509   5.656   1.738  15.273  0.9005  0.4740  0.5896
    4DOPE  C317  510   5.639   1.552  15.381 -0.2092 -0.2753 -0.0101
    4DOPE  H17X  511   5.593   1.521  15.477 -0.2167  0.9731  0.4020
    4DOPE  H17Y  512   5.578   1.517  15.295 -2.5715  2.2224  0.5195
    4DOPE  C318  513   5.783   1.503  15.374 -0.1808  0.1023 -0.6033
    4DOPE  H18X  514   5.840   1.538  15.463 -1.5762  0.4321  0.1861
    4DOPE  H18Y  515   5.785   1.392  15.374  1.5005  0.0465  2.1115
    4DOPE  H18Z  516   5.843   1.536  15.286 -0.0586 -1.2129 -1.0353
    5DOPE     N  517   2.698   3.360  17.078  0.1329  0.6217 -0.0486
    5DOPE   HN1  518   2.667   3.456  17.105 -1.8460  0.4798 -1.6031
    5DOPE   HN2  519   2.744   3.324  17.164 -1.5224 -1.3846  0.0711
    5DOPE   HN3  520   2.767   3.368  17.000 -0.4201  1.9627 -0.4368
    5DOPE   C12  521   2.577   3.280  17.041 -0.4979  0.3970  0.4919
    5DOPE  H12A  522   2.508   3.354  16.995  0.4179  0.7980 -0.2766
    5DOPE  H12B  523   2.544   3.244  17.141  1.1389  0.1037  0.9611
    5DOPE   C11  524   2.602   3.170  16.933  0.1236  0.3400 -0.7550
    5DOPE  H11A  525   2.641   3.227  16.846  0.9457  1.2685  0.1935
    5DOPE  H11B  526   2.503   3.124  16.917 -0.0427  0.8747 -1.2849
    5DOPE     P  527   2.705   2.939  16.915  0.1545  0.3755 -0.1438
    5DOPE   O13  528   2.579   2.870  16.941  0.5053  0.3138  0.0221
    5DOPE   O14  529   2.830   2.863  16.954  0.7291  0.2977  0.4140
    5DOPE   O11  530   2.714   2.968  16.761 -0.2442  0.4055 -0.2616
    5DOPE   O12  531   2.700   3.079  16.986  0.0123 -0.1777 -0.5431
    5DOPE    C1  532   2.830   3.040  16.713 -0.5084 -0.2547  0.5072
    5DOPE    HA  533   2.921   2.996  16.758 -1.5878 -2.7858  0.3567
    5DOPE    HB  534   2.826   3.147  16.743 -0.7836  0.0001 -0.3836
    5DOPE    C2  535   2.858   3.026  16.563 -0.1075  0.2254 -0.4345
    5DOPE    HS  536   2.946   3.087  16.532  0.0430  0.1808 -0.1056
    5DOPE   O21  537   2.745   3.073  16.496  0.5715  0.6713  0.2004
    5DOPE   C21  538   2.727   3.203  16.474 -0.1899 -0.0390 -0.3764
    5DOPE   O22  539   2.804   3.289  16.510  1.0107  0.0370  0.4651
    5DOPE   C22  540   2.600   3.219  16.392 -0.8130 -0.1330  1.0681
    5DOPE   H2R  541   2.505   3.229  16.450 -2.1097  1.4827 -1.1491
    5DOPE   H2S  542   2.600   3.123  16.336 -1.3394  1.1253 -1.1843
    5DOPE    C3  543   2.887   2.879  16.538 -0.1383  0.9442  0.7920
    5DOPE    HX  544   2.803   2.814  16.572 -0.2946  1.0154  0.5438
    5DOPE    HY  545   2.981   2.855  16.593  1.4119  0.5991 -1.8246
    5DOPE   O31  546   2.909   2.863  16.393  0.1655  0.4693  0.2625
    5DOPE   C31  547   3.014   2.913  16.329 -0.5602 -0.1956  0.0190
    5DOPE   O32  548   3.102   2.974  16.385 -0.1241  0.1229 -0.3601
    5DOPE   C32  549   3.011   2.875  16.185 -0.1005  0.5169  0.3442
    5DOPE   H2X  550   3.039   2.768  16.178 -0.6707  0.1721  2.5344
    5DOPE   H2Y  551   2.908   2.890  16.147  0.2082  1.6464 -0.1018
    5DOPE   C23  552   2.600   3.332  16.287  0.5617  0.6215 -0.6813
    5DOPE   H3R  553   2.595   3.437  16.323 -0.3198  0.6353 -0.8299
    5DOPE   H3S  554   2.503   3.326  16.234 -0.4906  2.2461  0.9383
    5DOPE   C24  555   2.710   3.320  16.176  0.2313  0.2710 -0.3806
    5DOPE   H4R  556   2.746   3.219  16.147  0.3462  0.2029 -0.0085
    5DOPE   H4S  557   2.800   3.363  16.224 -0.4009  0.6608  0.4930
    5DOPE   C25  558   2.680   3.399  16.045 -0.0916 -0.6653  0.7989
    5DOPE   H5R  559   2.666   3.507  16.067 -1.1903 -0.8411  0.9875
    5DOPE   H5S  560   2.586   3.369  15.994 -1.1159  0.4977  1.9184
    5DOPE   C26  561   2.795   3.366  15.952  0.1067  0.0780 -0.2628
    5DOPE   H6R  562   2.798   3.263  15.911  1.6525  0.2681 -0.7115
    5DOPE   H6S  563   2.897   3.380  15.995  0.1119  3.1825 -1.0294
    5DOPE   C27  564   2.794   3.461  15.826  0.5595  0.0662  0.0152
    5DOPE   H7R  565   2.806   3.566  15.861 -0.1708  0.4371 -0.7988
    5DOPE   H7S  566   2.697   3.442  15.775  1.9618 -2.6375 -1.8769
    5DOPE   C28  567   2.905   3.432  15.731  0.4686  0.2291 -0.2347
    5DOPE   H8R  568   2.895   3.330  15.689  2.5623  0.3075 -1.0213
    5DOPE   H8S  569   3.005   3.436  15.778  0.7370 -1.7656 -0.5440
    5DOPE   C29  570   2.899   3.522  15.613  0.0584 -0.2011  0.1711
    5DOPE   H9R  571   2.807   3.520  15.553  0.2196 -0.1048 -0.0816
    5DOPE  C210  572   2.993   3.605  15.578  0.2186 -0.4326  0.0262
    5DOPE  H10R  573   2.983   3.663  15.484  0.3424 -2.1776 -1.1140
    5DOPE  C211  574   3.128   3.624  15.636 -0.1129 -0.3740  0.2077
    5DOPE  H11R  575   3.163   3.534  15.690 -1.4188 -0.7692  0.4301
    5DOPE  H11S  576   3.125   3.699  15.718  0.2352  0.9752 -0.9805
    5DOPE  C212  577   3.235   3.675  15.537  0.1963  0.3523 -0.7057
    5DOPE  H12R  578   3.327   3.702  15.594  1.1818 -1.5137 -1.3328
    5DOPE  H12S  579   3.211   3.775  15.493  2.6583  0.4899 -1.9142
    5DOPE  C213  580   3.287   3.581  15.436 -0.2034  0.0626 -0.2134
    5DOPE  H13R  581   3.202   3.551  15.371 -0.0227 -0.1487 -0.3564
    5DOPE  H13S  582   3.310   3.486  15.490  0.3437  0.8209  0.9213
    5DOPE  C214  583   3.396   3.624  15.346 -0.4116 -0.7334  0.1652
    5DOPE  H14R  584   3.367   3.706  15.277 -4.7009 -0.9899  1.3981
    5DOPE  H14S  585   3.435   3.552  15.271  0.7962 -1.3673  1.3681
    5DOPE  C215  586   3.527   3.665  15.418 -0.5678  0.3653 -0.1194
    5DOPE  H15R  587   3.568   3.574  15.467 -0.9127  1.2743  1.9442
    5DOPE  H15S  588   3.528   3.737  15.502  0.0647  0.8732 -0.5474
    5DOPE  C216  589   3.644   3.702  15.322 -0.5764  0.6222  0.1000
    5DOPE  H16R  590   3.652   3.624  15.244  3.0186  0.3610  0.5764
    5DOPE  H16S  591   3.737   3.695  15.383 -0.6737  0.0235  0.1838
    5DOPE  C217  592   3.632   3.843  15.253  0.0253 -0.1439 -0.0202
    5DOPE  H17R  593   3.590   3.916  15.326 -0.6066  0.7696 -1.2608
    5DOPE  H17S  594   3.574   3.824  15.160  2.3536 -1.2754 -1.3229
    5DOPE  C218  595   3.760   3.896  15.201 -0.1361  0.0440  0.0819
    5DOPE  H18R  596   3.752   3.972  15.119 -1.8418 -2.6821 -2.4792
    5DOPE  H18S  597   3.816   3.813  15.151 -1.1625 -0.1253 -0.8274
    5DOPE  H18T  598   3.827   3.925  15.285 -1.8084 -1.0493  1.8712
    5DOPE   C33  599   3.101   2.956  16.093 -0.4747 -0.3179 -0.0443
    5DOPE   H3X  600   3.110   2.888  16.006 -2.6695 -1.0067  0.2127
    5DOPE   H3Y  601   3.202   2.973  16.136 -0.8159 -1.4316  1.2254
    5DOPE   C34  602   3.049   3.090  16.044  0.4025 -0.0906  0.2539
    5DOPE   H4X  603   2.944   3.069  16.013  0.2820  1.1217 -0.2099
    5DOPE   H4Y  604   3.048   3.160  16.130 -0.7553 -0.5412  0.6305
    5DOPE   C35  605   3.125   3.146  15.924  0.3145 -0.1721 -0.6849
    5DOPE   H5X  606   3.231   3.175  15.941  0.2927  0.0336 -0.9051
    5DOPE   H5Y  607   3.073   3.244  15.922  1.8412  0.6899  0.5463
    5DOPE   C36  608   3.100   3.082  15.787 -0.2316  0.7997  0.6452
    5DOPE   H6X  609   2.990   3.088  15.776 -0.3822 -0.9922  0.9363
    5DOPE   H6Y  610   3.132   2.977  15.769 -0.7874  0.4858  1.4008
    5DOPE   C37  611   3.159   3.159  15.671 -0.6841 -0.5656 -0.4642
    5DOPE   H7X  612   3.111   3.259  15.672  2.5799  1.1534 -0.0169
    5DOPE   H7Y  613   3.268   3.174  15.691 -1.5544  5.2498  1.9610
    5DOPE   C38  614   3.130   3.104  15.532  0.3347  1.8887 -0.0519
    5DOPE   H8X  615   3.030   3.056  15.534  0.2059  2.0226 -1.5404
    5DOPE   H8Y  616   3.201   3.020  15.513 -2.1446 -0.0121 -1.4917
    5DOPE   C39  617   3.149   3.204  15.416 -0.1430  0.5227  0.0539
    5DOPE   H9X  618   3.072   3.282  15.405  0.7007  1.3538 -0.1837
    5DOPE  C310  619   3.258   3.210  15.333 -0.2515 -0.0397 -0.3466
    5DOPE  H10X  620   3.270   3.295  15.265  5.4379  0.4115  0.7239
    5DOPE  C311  621   3.389   3.124  15.336  0.5433  0.1606  0.1686
    5DOPE  H11X  622   3.411   3.087  15.438 -1.4704  1.6258  1.2114
    5DOPE  H11Y  623   3.378   3.036  15.269  1.6512  0.6474 -0.6734
    5DOPE  C312  624   3.510   3.203  15.289  0.0459 -0.9643  0.3745
    5DOPE  H12X  625   3.489   3.270  15.203 -0.9412 -1.9265 -0.1565
    5DOPE  H12Y  626   3.585   3.135  15.241  0.5589 -0.8342  0.9753
    5DOPE  C313  627   3.591   3.272  15.397  0.2768 -0.0493 -0.0248
    5DOPE  H13X  628   3.647   3.359  15.357 -1.0340 -0.0564 -2.0432
    5DOPE  H13Y  629   3.513   3.317  15.463  0.5614 -0.4115  0.5624
    5DOPE  C314  630   3.689   3.185  15.478 -0.8734  0.3803  0.0783
    5DOPE  H14X  631   3.763   3.143  15.406 -0.9637 -1.0469  0.7785
    5DOPE  H14Y  632   3.631   3.098  15.517 -1.1732  1.2564  1.6308
    5DOPE  C315  633   3.771   3.255  15.588 -0.0162 -0.6904 -0.4424
    5DOPE  H15X  634   3.847   3.313  15.531 -0.0666 -0.3251 -0.1335
    5DOPE  H15Y  635   3.823   3.183  15.655  0.4111  0.8097  0.8684
    5DOPE  C316  636   3.680   3.349  15.672  0.1292 -0.5884 -0.0131
    5DOPE  H16X  637   3.608   3.287  15.729 -1.3728  1.1133  0.0130
    5DOPE  H16Y  638   3.623   3.425  15.614  0.0681 -0.1763  0.5748
    5DOPE  C317  639   3.764   3.418  15.776 -0.2702  1.5001 -0.2733
    5DOPE  H17X  640   3.815   3.335  15.830 -2.9544  0.5377  0.9383
    5DOPE  H17Y  641   3.845   3.470  15.719  2.4233 -3.2919 -1.4314
    5DOPE  C318  642   3.690   3.506  15.867  0.2880  0.0493  0.4869
    5DOPE  H18X  643   3.756   3.575  15.925 -0.0175  1.0217 -0.2931
    5DOPE  H18Y  644   3.625   3.577  15.813 -0.3244 -0.1002  1.0111
    5DOPE  H18Z  645   3.634   3.449  15.945  0.2766 -1.6376 -0.7152
    6DOPE     N  646   1.956   2.199  17.247  0.4182  0.3734 -0.4172
    6DOPE   HN1  647   2.015   2.277  17.284 -1.1955  1.7047 -0.5488
    6DOPE   HN2  648   1.859   2.216  17.280 -0.3126 -0.6407 -1.9370
    6DOPE   HN3  649   1.988   2.112  17.294 -3.2346 -2.2571 -2.3220
    6DOPE   C12  650   1.948   2.191  17.093 -0.0845 -0.0760  0.1540
    6DOPE  H12A  651   1.866   2.259  17.061  0.4045  0.2665 -0.3932
    6DOPE  H12B  652   1.934   2.081  17.077  1.1080 -0.1750 -0.2986
    6DOPE   C11  653   2.080   2.242  17.034 -0.1249  0.1062  0.4553
    6DOPE  H11A  654   2.058   2.261  16.927  0.8010  0.2125  0.2709
    6DOPE  H11B  655   2.156   2.163  17.054  1.7058  1.7725  0.3805
    6DOPE     P  656   2.271   2.423  17.074  0.0038  0.0555  0.4021
    6DOPE   O13  657   2.369   2.323  17.127  0.6754  0.1614 -0.3235
    6DOPE   O14  658   2.282   2.559  17.136 -0.1264  0.4727  0.1551
    6DOPE   O11  659   2.280   2.435  16.920 -0.2162 -0.0944  0.0027
    6DOPE   O12  660   2.125   2.365  17.095 -0.5139 -0.2771  0.1092
    6DOPE    C1  661   2.199   2.521  16.847  0.6820 -0.2059 -0.0736
    6DOPE    HA  662   2.197   2.622  16.893 -0.2573 -0.8337  1.3448
    6DOPE    HB  663   2.093   2.490  16.843  0.7845 -0.4949 -0.7555
    6DOPE    C2  664   2.243   2.533  16.697 -0.4645 -0.3497  0.3105
    6DOPE    HS  665   2.215   2.633  16.658  0.1618 -0.3504 -0.1556
    6DOPE   O21  666   2.210   2.412  16.615 -0.0130  0.0331 -0.0088
    6DOPE   C21  667   2.086   2.369  16.604 -0.9379  0.4806  0.1433
    6DOPE   O22  668   1.985   2.428  16.633  0.9530 -0.2022 -0.1261
    6DOPE   C22  669   2.099   2.220  16.549  0.3891 -0.5547  0.2031
    6DOPE   H2R  670   1.997   2.181  16.528  0.6253 -1.2099  0.2474
    6DOPE   H2S  671   2.142   2.148  16.621 -0.0710 -2.1758 -1.0734
    6DOPE    C3  672   2.398   2.552  16.698 -1.4977  0.2270  0.0430
    6DOPE    HX  673   2.442   2.458  16.739 -0.0653  1.2373  0.9053
    6DOPE    HY  674   2.435   2.630  16.768  0.8230 -0.5709 -0.1855
    6DOPE   O31  675   2.458   2.569  16.569 -0.4782  0.1677  0.2252
    6DOPE   C31  676   2.458   2.689  16.522  0.4403 -0.0328  0.0848
    6DOPE   O32  677   2.394   2.784  16.566  0.3187 -0.4106 -0.0832
    6DOPE   C32  678   2.551   2.696  16.392  0.4333 -0.0447 -0.0492
    6DOPE   H2X  679   2.658   2.704  16.420  0.0886 -0.3413  1.4201
    6DOPE   H2Y  680   2.534   2.598  16.343 -1.0296  0.3403 -0.3741
    6DOPE   C23  681   2.165   2.216  16.416 -0.9521 -0.0199  0.7653
    6DOPE   H3R  682   2.263   2.268  16.419 -0.7568 -0.4255  1.6710
    6DOPE   H3S  683   2.104   2.267  16.338  2.3305 -0.1664 -2.1794
    6DOPE   C24  684   2.202   2.079  16.360 -0.6104 -0.2621 -0.2758
    6DOPE   H4R  685   2.248   2.096  16.260  0.6123  0.9454  0.4585
    6DOPE   H4S  686   2.118   2.010  16.338  0.2394 -0.7851 -2.0921
    6DOPE   C25  687   2.299   2.012  16.452  0.5763 -0.0503  0.6410
    6DOPE   H5R  688   2.241   1.970  16.536 -1.3975  0.8493 -0.1976
    6DOPE   H5S  689   2.380   2.077  16.492  1.9476 -1.4410  0.2496
    6DOPE   C26  690   2.369   1.895  16.380  0.3281 -0.5204 -0.3736
    6DOPE   H6R  691   2.441   1.952  16.317  0.7800  0.2376  0.7809
    6DOPE   H6S  692   2.299   1.833  16.321  1.0826 -1.7265 -0.0385
    6DOPE   C27  693   2.431   1.795  16.477  0.2968 -0.5735  0.0035
    6DOPE   H7R  694   2.346   1.778  16.547 -0.6205  0.5251 -0.8097
    6DOPE   H7S  695   2.510   1.853  16.529  0.7310 -1.4057  0.2962
    6DOPE   C28  696   2.493   1.679  16.412  0.1272  0.6622 -0.4557
    6DOPE   H8R  697   2.417   1.618  16.359  0.3727  0.0095 -0.0689
    6DOPE   H8S  698   2.538   1.623  16.496  0.9778  1.2529 -0.5052
    6DOPE   C29  699   2.598   1.728  16.312 -0.2239 -0.1829  0.2120
    6DOPE   H9R  700   2.684   1.787  16.347 -0.0472  1.3881 -2.5328
    6DOPE  C210  701   2.586   1.717  16.177 -0.3823  0.0433 -0.2298
    6DOPE  H10R  702   2.657   1.769  16.111  0.5931 -0.8979  0.0639
    6DOPE  C211  703   2.456   1.674  16.111  0.1776  0.2056 -0.1549
    6DOPE  H11R  704   2.374   1.692  16.183  0.2528  1.6160 -0.4041
    6DOPE  H11S  705   2.477   1.573  16.068 -0.7728  0.4905 -1.3409
    6DOPE  C212  706   2.418   1.758  15.981  0.3109 -0.6790  0.1232
    6DOPE  H12R  707   2.500   1.739  15.908  0.8015  0.2801  0.4092
    6DOPE  H12S  708   2.409   1.869  15.989  1.5570 -0.0498 -4.2421
    6DOPE  C213  709   2.284   1.717  15.917  0.6675  0.1821  0.3885
    6DOPE  H13R  710   2.205   1.715  15.994  0.8646 -1.8468  0.5933
    6DOPE  H13S  711   2.285   1.627  15.851  0.1562  0.0898  0.5050
    6DOPE  C214  712   2.222   1.828  15.829  0.6966  0.4788 -1.0046
    6DOPE  H14R  713   2.224   1.922  15.889  2.1020 -0.6582  0.8669
    6DOPE  H14S  714   2.118   1.791  15.817  0.9562 -1.2270  1.2785
    6DOPE  C215  715   2.296   1.848  15.695 -0.4739  0.1163 -0.4335
    6DOPE  H15R  716   2.300   1.751  15.641 -1.0058  0.5748 -1.3284
    6DOPE  H15S  717   2.402   1.879  15.713 -0.6215  0.1399  0.4270
    6DOPE  C216  718   2.235   1.955  15.608  0.3156  0.3057 -0.3239
    6DOPE  H16R  719   2.308   1.976  15.527  4.5464 -5.4458  1.3618
    6DOPE  H16S  720   2.225   2.053  15.660 -2.4278 -1.3044  2.5763
    6DOPE  C217  721   2.099   1.923  15.550  0.7055  0.2030 -0.6351
    6DOPE  H17R  722   2.023   1.965  15.619  0.9293  3.3669 -2.1264
    6DOPE  H17S  723   2.083   1.813  15.547  0.2345  0.2919 -1.5577
    6DOPE  C218  724   2.062   1.983  15.419 -0.2649 -0.4600 -0.1312
    6DOPE  H18R  725   2.104   2.086  15.412 -1.4142  0.0706  0.4599
    6DOPE  H18S  726   1.952   1.992  15.406  0.1788  1.3255 -3.9464
    6DOPE  H18T  727   2.102   1.914  15.342  1.4102 -0.4409  0.6840
    6DOPE   C33  728   2.513   2.819  16.298  0.4012 -0.0258  0.0768
    6DOPE   H3X  729   2.533   2.905  16.365  2.0407 -1.6788  1.8494
    6DOPE   H3Y  730   2.405   2.821  16.272  0.5226  0.3612 -0.4071
    6DOPE   C34  731   2.590   2.816  16.165  0.1152 -0.6290  0.3144
    6DOPE   H4X  732   2.700   2.819  16.177  0.1152  0.4730  0.1522
    6DOPE   H4Y  733   2.559   2.720  16.119 -1.1613 -0.5966  1.0457
    6DOPE   C35  734   2.555   2.926  16.064 -0.1258  0.1766  0.0661
    6DOPE   H5X  735   2.573   3.025  16.112 -1.3665 -0.5477  2.1743
    6DOPE   H5Y  736   2.448   2.923  16.036  0.3327 -1.7313 -1.6921
    6DOPE   C36  737   2.627   2.911  15.932  0.4608 -0.3721  0.5928
    6DOPE   H6X  738   2.597   2.810  15.894  3.2147 -0.9854 -0.1736
    6DOPE   H6Y  739   2.737   2.909  15.945  0.8733 -0.3921 -2.1858
    6DOPE   C37  740   2.575   3.018  15.838  0.9458  0.1072  0.7645
    6DOPE   H7X  741   2.469   3.002  15.811  1.6013  1.3157 -3.2610
    6DOPE   H7Y  742   2.584   3.114  15.893  0.8492  0.2399  0.5493
    6DOPE   C38  743   2.653   3.018  15.711 -0.7946 -0.2728  0.0258
    6DOPE   H8X  744   2.626   2.924  15.658 -2.4818 -0.9106  1.8660
    6DOPE   H8Y  745   2.762   3.013  15.732 -1.2988 -1.2266  2.7820
    6DOPE   C39  746   2.637   3.146  15.635 -0.0319 -0.1992  0.0599
    6DOPE   H9X  747   2.662   3.237  15.691  2.4459 -0.3511 -0.6730
    6DOPE  C310  748   2.593   3.157  15.502 -0.6321  0.9660 -0.6488
    6DOPE  H10X  749   2.581   3.256  15.456 -1.9941  0.9374 -0.4060
    6DOPE  C311  750   2.576   3.048  15.399  0.4380  0.7503 -0.1909
    6DOPE  H11X  751   2.510   2.966  15.433  0.2746 -0.6087 -3.3958
    6DOPE  H11Y  752   2.523   3.103  15.318  2.0047  2.1299 -0.3186
    6DOPE  C312  753   2.713   2.980  15.357 -0.3109 -0.3435 -0.4092
    6DOPE  H12X  754   2.761   2.964  15.455 -0.1866 -0.4897 -0.4929
    6DOPE  H12Y  755   2.772   3.052  15.295 -0.1397  1.2304  1.4871
    6DOPE  C313  756   2.690   2.861  15.262 -0.1160  0.6526 -0.0092
    6DOPE  H13X  757   2.791   2.815  15.252  0.7637  2.2549  1.0583
    6DOPE  H13Y  758   2.637   2.775  15.307  2.2988 -0.6753  0.4254
    6DOPE  C314  759   2.618   2.887  15.133  0.2202  0.1945 -0.7780
    6DOPE  H14X  760   2.650   2.985  15.093 -2.9736  1.1771 -1.2321
    6DOPE  H14Y  761   2.507   2.891  15.144  0.2220 -1.5649  0.3730
    6DOPE  C315  762   2.651   2.789  15.016  0.1015 -0.2555 -0.1569
    6DOPE  H15X  763   2.579   2.812  14.935 -0.5155 -0.9739  0.1775
    6DOPE  H15Y  764   2.618   2.693  15.060 -2.5486  1.3123  1.5962
    6DOPE  C316  765   2.795   2.777  14.967 -0.2666 -0.3548 -0.4411
    6DOPE  H16X  766   2.849   2.747  15.059 -1.5446  1.3153  0.9084
    6DOPE  H16Y  767   2.832   2.875  14.928 -0.7022 -0.7140 -1.8139
    6DOPE  C317  768   2.805   2.667  14.862 -0.3138  0.1668  0.3165
    6DOPE  H17X  769   2.772   2.572  14.911  1.0340  0.4285  1.7935
    6DOPE  H17Y  770   2.730   2.686  14.782  1.0880  0.0964 -1.0563
    6DOPE  C318  771   2.938   2.652  14.785  0.5207  0.0801  0.0949
    6DOPE  H18X  772   3.028   2.620  14.842  1.1407  1.5483 -0.0210
    6DOPE  H18Y  773   2.926   2.580  14.702  1.0565  2.5166 -2.2376
    6DOPE  H18Z  774   2.960   2.749  14.735 -2.5775  0.3853 -0.8635
    7DOPE     N  775   5.187   4.795  16.730 -0.2547 -0.0248 -0.1995
    7DOPE   HN1  776   5.150   4.875  16.676  1.6041 -0.4421 -2.1982
    7DOPE   HN2  777   5.248   4.735  16.671 -0.7773 -1.7603  0.9265
    7DOPE   HN3  778   5.110   4.735  16.769 -0.0593  1.1590  2.2260
    7DOPE   C12  779   5.240   4.840  16.860  0.1893 -0.3653 -0.0905
    7DOPE  H12A  780   5.180   4.914  16.917 -0.8724 -2.0389  1.0719
    7DOPE  H12B  781   5.339   4.885  16.837  0.4148 -0.8340 -0.0473
    7DOPE   C11  782   5.268   4.724  16.960  0.1004 -0.1251 -0.2653
    7DOPE  H11A  783   5.166   4.684  16.980  1.3918 -2.3518  2.5730
    7DOPE  H11B  784   5.307   4.763  17.056 -0.4556  0.4173 -0.2510
    7DOPE     P  785   5.500   4.638  16.886  0.4904  0.1710  0.4829
    7DOPE   O13  786   5.552   4.508  16.843 -0.1705 -0.3715  0.3972
    7DOPE   O14  787   5.555   4.697  17.011 -0.0922 -0.6768 -0.0175
    7DOPE   O11  788   5.497   4.740  16.767 -0.8021 -0.4541 -0.0476
    7DOPE   O12  789   5.344   4.619  16.904 -0.1874 -0.0626  0.3512
    7DOPE    C1  790   5.580   4.720  16.650  0.4918  0.0186 -0.3151
    7DOPE    HA  791   5.596   4.611  16.635 -0.4486 -0.0932 -0.5542
    7DOPE    HB  792   5.680   4.764  16.668  0.5647 -0.2691 -0.0043
    7DOPE    C2  793   5.528   4.785  16.528  0.1951  0.5325  0.0194
    7DOPE    HS  794   5.439   4.848  16.550  0.0615  0.5270 -0.5082
    7DOPE   O21  795   5.492   4.682  16.431 -0.3186  0.2660  0.2187
    7DOPE   C21  796   5.385   4.602  16.465 -0.1959 -0.1032  0.7276
    7DOPE   O22  797   5.306   4.629  16.553 -0.0619  0.1530 -0.2877
    7DOPE   C22  798   5.357   4.495  16.359  0.3130 -0.6139  0.7746
    7DOPE   H2R  799   5.278   4.529  16.290  2.0091 -0.1009 -1.0054
    7DOPE   H2S  800   5.319   4.405  16.413  0.6823 -1.4322 -0.2952
    7DOPE    C3  801   5.639   4.882  16.467  0.6032  0.3167  0.1013
    7DOPE    HX  802   5.731   4.821  16.472  1.0013  0.9768  1.3262
    7DOPE    HY  803   5.655   4.965  16.539 -1.3845 -0.8148  1.9696
    7DOPE   O31  804   5.617   4.927  16.327  0.1538 -0.0682 -0.3628
    7DOPE   C31  805   5.518   5.012  16.315  0.0046 -0.5962  0.0838
    7DOPE   O32  806   5.463   5.072  16.405 -0.0972 -0.1403 -0.2234
    7DOPE   C32  807   5.471   4.993  16.168 -0.1754 -0.0762  0.0826
    7DOPE   H2X  808   5.533   5.060  16.104  0.5657 -0.0834  0.7764
    7DOPE   H2Y  809   5.493   4.886  16.148  2.3133  0.6745 -1.8278
    7DOPE   C23  810   5.489   4.452  16.290 -0.1516  0.5419 -0.6440
    7DOPE   H3R  811   5.535   4.542  16.243  0.6571 -0.0112 -0.9232
    7DOPE   H3S  812   5.471   4.375  16.213 -0.0229 -0.2956  0.1329
    7DOPE   C24  813   5.592   4.394  16.388  0.5472 -0.9510  0.3293
    7DOPE   H4R  814   5.560   4.303  16.443  1.5739 -1.5613 -0.0635
    7DOPE   H4S  815   5.625   4.462  16.469 -0.0613  0.5983 -0.6913
    7DOPE   C25  816   5.717   4.362  16.310 -0.6178  0.0038  0.2753
    7DOPE   H5R  817   5.747   4.447  16.245 -0.2174 -0.0303  0.4153
    7DOPE   H5S  818   5.685   4.287  16.234 -0.9510 -0.0081  0.4262
    7DOPE   C26  819   5.836   4.323  16.401  0.6202 -0.2203  0.1504
    7DOPE   H6R  820   5.824   4.216  16.429  0.1866 -0.2697 -0.2116
    7DOPE   H6S  821   5.837   4.382  16.495  1.6776 -1.3759  0.8969
    7DOPE   C27  822   5.971   4.359  16.336 -0.0327  0.0066  0.7301
    7DOPE   H7R  823   6.039   4.316  16.414 -2.1094 -1.9479  1.6008
    7DOPE   H7S  824   5.977   4.469  16.325 -1.7598  0.0289 -0.2744
    7DOPE   C28  825   5.996   4.293  16.201 -0.8694 -0.4186  0.0354
    7DOPE   H8R  826   5.920   4.321  16.125 -0.4443 -0.0656 -0.2634
    7DOPE   H8S  827   5.997   4.183  16.217 -1.0098 -0.5219 -0.6284
    7DOPE   C29  828   6.135   4.319  16.153 -0.6937 -0.1585  0.6739
    7DOPE   H9R  829   6.205   4.275  16.225 -1.5402 -2.5004  0.1569
    7DOPE  C210  830   6.184   4.359  16.037  0.2999  0.4585 -1.0047
    7DOPE  H10R  831   6.291   4.386  16.031  0.1208  1.1505 -1.2164
    7DOPE  C211  832   6.113   4.406  15.916  0.1868 -0.2507 -0.4680
    7DOPE  H11R  833   6.128   4.512  15.889  0.2737 -0.5705 -1.7080
    7DOPE  H11S  834   6.008   4.370  15.920 -0.2505  1.0091  2.6972
    7DOPE  C212  835   6.170   4.312  15.813  0.2174  0.2731 -0.0587
    7DOPE  H12R  836   6.172   4.202  15.826  1.0130 -0.1482 -3.0710
    7DOPE  H12S  837   6.278   4.335  15.807  0.0182  0.8332 -2.1836
    7DOPE  C213  838   6.109   4.338  15.669 -0.3846  0.2916 -0.0650
    7DOPE  H13R  839   6.053   4.434  15.669 -0.2883  0.3542 -0.9480
    7DOPE  H13S  840   6.035   4.259  15.646  0.9921 -0.8927 -0.5336
    7DOPE  C214  841   6.212   4.322  15.560 -0.3508 -0.4018 -0.4350
    7DOPE  H14R  842   6.243   4.215  15.554  3.1560  0.5468 -1.4980
    7DOPE  H14S  843   6.302   4.380  15.588 -0.3301 -0.4163 -0.4730
    7DOPE  C215  844   6.170   4.370  15.420  0.2178 -0.3570 -0.1782
    7DOPE  H15R  845   6.102   4.457  15.428  1.0700  0.4160 -0.9982
    7DOPE  H15S  846   6.106   4.289  15.380  0.9622 -0.1298 -1.9047
    7DOPE  C216  847   6.297   4.425  15.349 -0.6221 -0.2745  0.7380
    7DOPE  H16R  848   6.388   4.365  15.374 -0.2801 -0.6161 -1.1669
    7DOPE  H16S  849   6.317   4.531  15.373 -1.7538 -0.1681  1.2397
    7DOPE  C217  850   6.281   4.412  15.190 -0.1376 -0.3358  1.1346
    7DOPE  H17R  851   6.191   4.467  15.156 -0.3911 -1.8695 -0.8757
    7DOPE  H17S  852   6.249   4.306  15.175 -0.5318 -0.3714  2.1149
    7DOPE  C218  853   6.411   4.447  15.112  0.6518  0.3946 -0.4695
    7DOPE  H18R  854   6.389   4.453  15.003 -0.6312 -2.6810 -0.4906
    7DOPE  H18S  855   6.495   4.377  15.129  0.7946  0.8696  0.8921
    7DOPE  H18T  856   6.441   4.548  15.147  1.3987 -0.3062  0.9718
    7DOPE   C33  857   5.320   5.027  16.160 -0.0606 -0.4458  0.1428
    7DOPE   H3X  858   5.297   5.136  16.161 -1.4988 -0.7178 -0.4303
    7DOPE   H3Y  859   5.251   4.983  16.235 -2.7959  2.0838 -0.7042
    7DOPE   C34  860   5.270   4.975  16.019 -0.3501 -0.0245  0.2943
    7DOPE   H4X  861   5.334   5.038  15.954  0.3106 -0.4380  0.5269
    7DOPE   H4Y  862   5.299   4.869  16.001 -0.4503  0.0882 -0.5604
    7DOPE   C35  863   5.124   4.993  15.993  0.0070  0.3034  0.2962
    7DOPE   H5X  864   5.108   5.102  15.981  0.8941  0.3959 -0.1252
    7DOPE   H5Y  865   5.047   4.950  16.061  0.2765 -0.2258  0.2658
    7DOPE   C36  866   5.069   4.952  15.849 -0.3934  0.1119 -0.0411
    7DOPE   H6X  867   5.047   4.844  15.854  2.6780 -0.5606  1.4445
    7DOPE   H6Y  868   5.154   4.961  15.779  0.0440 -2.3197  0.0915
    7DOPE   C37  869   4.936   5.016  15.813  0.0690  0.0500  0.1306
    7DOPE   H7X  870   4.874   5.006  15.904 -2.2156 -0.9122 -1.4485
    7DOPE   H7Y  871   4.946   5.125  15.792 -1.4830  0.4822  1.4827
    7DOPE   C38  872   4.865   4.938  15.700 -0.3263  0.1577  0.0574
    7DOPE   H8X  873   4.759   4.970  15.701  0.0823  1.5785  0.8315
    7DOPE   H8Y  874   4.855   4.828  15.707 -0.4321  0.0981 -0.9345
    7DOPE   C39  875   4.936   4.972  15.569  0.5747 -0.3938  0.0528
    7DOPE   H9X  876   4.965   5.078  15.569 -1.8943  0.4232 -2.9207
    7DOPE  C310  877   4.944   4.898  15.459  0.4064  0.4824  0.1953
    7DOPE  H10X  878   5.013   4.927  15.379  0.3761  1.2246  0.4348
    7DOPE  C311  879   4.862   4.776  15.427  0.7338 -0.5823  0.4929
    7DOPE  H11X  880   4.785   4.755  15.504  1.8186  0.4969  1.9265
    7DOPE  H11Y  881   4.823   4.782  15.323  0.3269  1.1178  0.7115
    7DOPE  C312  882   4.954   4.649  15.435  0.0017  0.2220  0.5218
    7DOPE  H12X  883   5.048   4.668  15.378 -1.6466  0.2137 -2.3880
    7DOPE  H12Y  884   4.901   4.566  15.385 -1.2066  0.8152  0.7895
    7DOPE  C313  885   4.993   4.590  15.569  0.0972 -0.0954  0.1840
    7DOPE  H13X  886   5.029   4.673  15.634 -1.2962  1.0408 -0.4292
    7DOPE  H13Y  887   4.904   4.552  15.625 -0.5721  1.2846  0.1014
    7DOPE  C314  888   5.108   4.494  15.559 -0.0749  0.2128 -0.1336
    7DOPE  H14X  889   5.182   4.546  15.494  0.3518 -0.2914 -0.0515
    7DOPE  H14Y  890   5.087   4.397  15.510  2.6597 -0.2161 -0.5856
    7DOPE  C315  891   5.189   4.472  15.696  0.4150 -0.1639  0.1729
    7DOPE  H15X  892   5.274   4.402  15.681  0.0596 -0.5251 -0.1714
    7DOPE  H15Y  893   5.120   4.426  15.770 -0.7234  0.6952 -0.3188
    7DOPE  C316  894   5.252   4.601  15.754 -0.0336 -0.1762 -0.5309
    7DOPE  H16X  895   5.169   4.670  15.780 -0.4540 -0.7095 -0.4323
    7DOPE  H16Y  896   5.311   4.658  15.679 -1.6915  1.8974 -0.3533
    7DOPE  C317  897   5.344   4.575  15.874  0.2647  0.2336  0.1644
    7DOPE  H17X  898   5.392   4.477  15.849  0.5225  0.3441  0.2188
    7DOPE  H17Y  899   5.420   4.653  15.896  0.4435  0.3086 -0.6613
    7DOPE  C318  900   5.260   4.544  16.005 -0.8574 -0.3894 -0.2179
    7DOPE  H18X  901   5.165   4.488  15.993 -0.8201 -1.3992  3.3009
    7DOPE  H18Y  902   5.327   4.476  16.063 -2.0783 -0.7720  0.7874
    7DOPE  H18Z  903   5.240   4.634  16.065  0.2699 -0.0353 -0.3462
    8DOPE     N  904   6.575   4.148  16.839 -0.1044 -0.6471 -0.3243
    8DOPE   HN1  905   6.678   4.147  16.846 -0.0488  0.0218 -1.0555
    8DOPE   HN2  906   6.546   4.183  16.746  0.6911  0.2118 -0.2596
    8DOPE   HN3  907   6.534   4.209  16.913 -1.9164 -0.9280 -1.0383
    8DOPE   C12  908   6.524   4.010  16.848  1.5882 -0.0899 -0.2467
    8DOPE  H12A  909   6.511   3.983  16.955  1.9358 -0.5502 -0.3177
    8DOPE  H12B  910   6.600   3.938  16.810 -0.1102 -1.5436 -1.0310
    8DOPE   C11  911   6.399   3.982  16.761  0.2400  0.1414 -0.2774
    8DOPE  H11A  912   6.389   3.873  16.780  2.7396  0.1695  1.7553
    8DOPE  H11B  913   6.431   3.996  16.656  2.6092  0.4252  0.4338
    8DOPE     P  914   6.153   4.018  16.842 -0.0562  0.4491 -0.4955
    8DOPE   O13  915   6.101   4.098  16.959 -0.5948 -0.1186 -0.0183
    8DOPE   O14  916   6.170   3.876  16.869  0.0399  0.6117  0.0747
    8DOPE   O11  917   6.059   4.040  16.716  0.1332 -0.5812  0.0293
    8DOPE   O12  918   6.297   4.071  16.801  0.3749  0.0519  0.0314
    8DOPE    C1  919   6.103   4.061  16.581  0.2631 -0.5648 -0.3396
    8DOPE    HA  920   6.203   4.109  16.579 -1.3467  3.1248 -0.4712
    8DOPE    HB  921   6.035   4.134  16.532 -0.1541  0.6496  1.9252
    8DOPE    C2  922   6.096   3.941  16.491  0.6114 -0.2143  0.0848
    8DOPE    HS  923   6.134   3.847  16.537  1.2647 -0.0816 -0.1722
    8DOPE   O21  924   6.171   3.990  16.371 -0.0462  0.1117 -0.0827
    8DOPE   C21  925   6.291   3.954  16.356  0.3520  0.1270 -0.4688
    8DOPE   O22  926   6.353   3.871  16.427 -0.3832  0.1579  0.3863
    8DOPE   C22  927   6.343   4.012  16.225 -0.0357 -0.1692  0.4129
    8DOPE   H2R  928   6.286   4.104  16.203 -2.2757 -2.1495 -2.8653
    8DOPE   H2S  929   6.304   3.940  16.150  0.1618  0.6944 -0.5376
    8DOPE    C3  930   5.950   3.912  16.449  0.4734  0.3835 -0.0051
    8DOPE    HX  931   5.910   3.991  16.382  3.0814  1.1776 -0.7518
    8DOPE    HY  932   5.882   3.908  16.537 -0.4030  1.1754 -0.6227
    8DOPE   O31  933   5.940   3.789  16.371  0.7560 -0.0591 -0.4083
    8DOPE   C31  934   5.821   3.733  16.363 -0.3713 -0.4016  0.1519
    8DOPE   O32  935   5.717   3.775  16.408  0.3523  0.2197  0.0779
    8DOPE   C32  936   5.835   3.598  16.301  0.3774  0.7935  0.2181
    8DOPE   H2X  937   5.923   3.593  16.234  0.8716  0.2099  0.8906
    8DOPE   H2Y  938   5.855   3.528  16.385  0.3617 -1.2633 -1.4088
    8DOPE   C23  939   6.494   4.033  16.226 -0.5395 -0.0616  0.3220
    8DOPE   H3R  940   6.536   3.936  16.258  0.2229 -1.0870 -3.3303
    8DOPE   H3S  941   6.538   4.116  16.285  2.1726 -1.6829  0.7392
    8DOPE   C24  942   6.552   4.052  16.085 -0.4918 -0.0130  0.0879
    8DOPE   H4R  943   6.525   3.957  16.035 -2.0940  0.7221 -0.5042
    8DOPE   H4S  944   6.663   4.046  16.097 -0.0315  2.7001 -1.7416
    8DOPE   C25  945   6.505   4.178  16.018 -0.3806  0.2375 -0.0423
    8DOPE   H5R  946   6.512   4.254  16.099 -0.6289  0.6136 -0.3725
    8DOPE   H5S  947   6.395   4.171  16.003 -0.8024  1.9415  1.7913
    8DOPE   C26  948   6.581   4.215  15.890  0.8156 -0.2882  0.0683
    8DOPE   H6R  949   6.533   4.287  15.820  2.7357 -0.7965 -1.8811
    8DOPE   H6S  950   6.581   4.121  15.832  1.0348  0.3332 -0.9578
    8DOPE   C27  951   6.722   4.266  15.908  0.1052  0.2618 -0.2798
    8DOPE   H7R  952   6.797   4.191  15.941 -0.2155 -1.1083 -2.4276
    8DOPE   H7S  953   6.708   4.341  15.988 -1.1368  1.2639 -1.3801
    8DOPE   C28  954   6.767   4.339  15.782  0.3798 -0.2129  0.0748
    8DOPE   H8R  955   6.683   4.386  15.727 -0.2604 -1.3296  0.0652
    8DOPE   H8S  956   6.794   4.267  15.701  0.4693  0.8318 -0.8623
    8DOPE   C29  957   6.884   4.429  15.800 -0.2899 -0.0556  0.3502
    8DOPE   H9R  958   6.864   4.504  15.878 -2.3366 -0.9441  0.7382
    8DOPE  C210  959   7.009   4.412  15.747  0.0070 -0.2799 -0.9634
    8DOPE  H10R  960   7.062   4.508  15.743  3.8758 -2.2556 -1.0632
    8DOPE  C211  961   7.051   4.320  15.637 -0.0883 -0.0813  0.8225
    8DOPE  H11R  962   6.991   4.228  15.653 -1.3268  0.4426 -0.6009
    8DOPE  H11S  963   7.152   4.275  15.646 -1.0234 -3.4442 -2.8762
    8DOPE  C212  964   7.030   4.374  15.491 -0.0610 -0.4621  0.0938
    8DOPE  H12R  965   6.928   4.420  15.492  0.0491 -0.2176  0.3371
    8DOPE  H12S  966   7.033   4.287  15.423  0.8727 -1.0074  0.8095
    8DOPE  C213  967   7.131   4.484  15.437 -0.3116 -0.6779 -0.5340
    8DOPE  H13R  968   7.224   4.489  15.499 -0.5239 -2.9499  0.0466
    8DOPE  H13S  969   7.075   4.577  15.461 -2.5932 -2.2074  0.3670
    8DOPE  C214  970   7.170   4.451  15.298 -0.1807  0.3913 -0.0753
    8DOPE  H14R  971   7.078   4.417  15.246 -0.2250  1.6803 -0.8966
    8DOPE  H14S  972   7.248   4.372  15.297  1.7247  2.1729 -1.4312
    8DOPE  C215  973   7.223   4.577  15.220  0.0784  0.0652  0.2498
    8DOPE  H15R  974   7.317   4.599  15.275  0.0094  2.0389 -0.3162
    8DOPE  H15S  975   7.146   4.653  15.246 -0.5987 -1.5919  3.6132
    8DOPE  C216  976   7.245   4.539  15.072 -0.4410  0.5920  0.6046
    8DOPE  H16R  977   7.141   4.533  15.032 -0.7130  0.3287  1.3284
    8DOPE  H16S  978   7.288   4.437  15.084 -1.8967 -0.0102  0.9621
    8DOPE  C217  979   7.341   4.627  14.999  0.1137  0.5010  0.5510
    8DOPE  H17R  980   7.388   4.572  14.914 -1.0223  1.9218 -1.0819
    8DOPE  H17S  981   7.430   4.646  15.062 -0.2682 -0.4739  1.4169
    8DOPE  C218  982   7.269   4.751  14.935  0.3484  0.5615 -0.2027
    8DOPE  H18R  983   7.328   4.802  14.855  1.2734  2.0344  1.3613
    8DOPE  H18S  984   7.238   4.821  15.015 -2.0724  1.3828 -1.7431
    8DOPE  H18T  985   7.171   4.715  14.898 -0.3874  2.1395  0.1314
    8DOPE   C33  986   5.704   3.553  16.229  0.3129  0.4620  0.0511
    8DOPE   H3X  987   5.618   3.574  16.296  0.3744 -2.1451  1.0316
    8DOPE   H3Y  988   5.709   3.446  16.199 -0.9612  0.4588 -0.2152
    8DOPE   C34  989   5.680   3.632  16.100 -0.1198  0.1435 -0.0204
    8DOPE   H4X  990   5.713   3.739  16.102 -1.0299  0.4717 -1.1855
    8DOPE   H4Y  991   5.746   3.588  16.022  0.6631  1.6353 -0.2454
    8DOPE   C35  992   5.538   3.610  16.046  0.4107  0.2123 -0.4650
    8DOPE   H5X  993   5.469   3.645  16.126  1.6788  0.2899  0.6349
    8DOPE   H5Y  994   5.511   3.505  16.021 -0.5281  0.4526 -0.4868
    8DOPE   C36  995   5.500   3.689  15.915 -0.0347 -0.0250 -0.1000
    8DOPE   H6X  996   5.403   3.650  15.877 -0.5470  0.6963  0.4401
    8DOPE   H6Y  997   5.572   3.643  15.844 -1.5622 -3.9165  0.6223
    8DOPE   C37  998   5.512   3.836  15.918  0.1888 -0.2133 -1.0305
    8DOPE   H7X  999   5.613   3.860  15.956 -0.3740 -0.7076  0.9223
    8DOPE   H7Y 1000   5.500   3.868  15.812 -3.0175  0.1140 -0.6736
    8DOPE   C38 1001   5.398   3.916  15.993 -0.1183 -0.1438  0.1363
    8DOPE   H8X 1002   5.400   3.895  16.102 -1.0268 -1.1494 -0.0205
    8DOPE   H8Y 1003   5.294   3.886  15.972 -0.2466 -1.0931  1.8863
    8DOPE   C39 1004   5.406   4.065  15.973  0.2823 -0.1827  0.9667
    8DOPE   H9X 1005   5.485   4.117  16.029  2.3756  0.0151 -1.9388
    8DOPE  C310 1006   5.339   4.142  15.875  0.9327 -0.6568 -0.5064
    8DOPE  H10X 1007   5.356   4.249  15.856  0.0680 -0.5046 -0.4420
    8DOPE  C311 1008   5.229   4.091  15.786 -0.1435  0.7591  0.0178
    8DOPE  H11X 1009   5.195   3.988  15.812 -1.5609  1.2709  0.2623
    8DOPE  H11Y 1010   5.140   4.156  15.793 -1.5189 -0.7957 -1.8547
    8DOPE  C312 1011   5.271   4.090  15.642  0.1919 -0.4478 -0.1903
    8DOPE  H12X 1012   5.364   4.032  15.625  0.4518 -0.9015  2.3098
    8DOPE  H12Y 1013   5.300   4.194  15.617 -0.5015 -0.4639 -1.0914
    8DOPE  C313 1014   5.148   4.052  15.555 -0.4307 -0.1484 -0.4769
    8DOPE  H13X 1015   5.057   4.084  15.610  0.1175 -0.7952  0.8543
    8DOPE  H13Y 1016   5.139   4.111  15.462 -3.6987  1.2966  0.6258
    8DOPE  C314 1017   5.137   3.908  15.523 -0.0875 -0.0508 -0.1265
    8DOPE  H14X 1018   5.039   3.896  15.474  0.9588  0.6539 -2.5544
    8DOPE  H14Y 1019   5.157   3.846  15.613  0.0243  0.0458 -0.0845
    8DOPE  C315 1020   5.229   3.884  15.402  0.4675  0.3669 -0.4534
    8DOPE  H15X 1021   5.330   3.926  15.423  0.5749  0.3175 -0.8750
    8DOPE  H15Y 1022   5.172   3.924  15.316  0.6373 -1.2855 -1.3569
    8DOPE  C316 1023   5.244   3.732  15.380  0.6539  0.1726 -0.3909
    8DOPE  H16X 1024   5.293   3.711  15.283  0.4921  1.6631 -0.8195
    8DOPE  H16Y 1025   5.151   3.671  15.376 -0.2142  1.4723 -1.0008
    8DOPE  C317 1026   5.329   3.664  15.487  0.1597 -0.1467 -0.8023
    8DOPE  H17X 1027   5.268   3.641  15.578  0.6516 -2.5282 -0.9892
    8DOPE  H17Y 1028   5.352   3.567  15.438 -1.7602 -0.3190 -1.4392
    8DOPE  C318 1029   5.473   3.714  15.511 -0.2109 -0.2593 -0.1986
    8DOPE  H18X 1030   5.522   3.759  15.422 -0.0463 -0.1584 -0.0585
    8DOPE  H18Y 1031   5.537   3.642  15.566  0.5474  0.0011 -0.7280
    8DOPE  H18Z 1032   5.473   3.799  15.583  0.2729 -1.3347  1.1173
    9DOPE     N 1033   2.049   4.189  16.798 -0.4166 -0.3851  0.4806
    9DOPE   HN1 1034   2.141   4.162  16.838 -1.0765 -3.5204  0.2017
    9DOPE   HN2 1035   1.996   4.099  16.792  1.6055 -1.6665  0.8961
    9DOPE   HN3 1036   2.072   4.228  16.704  1.3992  2.0744  1.8343
    9DOPE   C12 1037   1.960   4.282  16.877  0.5151 -0.2998  0.4633
    9DOPE  H12A 1038   1.931   4.363  16.808 -0.9732 -2.1818 -1.2549
    9DOPE  H12B 1039   2.012   4.322  16.967  1.0832  1.5084 -0.6267
    9DOPE   C11 1040   1.832   4.216  16.933 -0.0716  0.2125  0.0007
    9DOPE  H11A 1041   1.781   4.293  16.994 -0.8694  0.2327 -0.6663
    9DOPE  H11B 1042   1.863   4.127  16.991  0.0496  0.6809  0.6620
    9DOPE     P 1043   1.599   4.140  16.860 -0.0716 -0.0132 -0.2498
    9DOPE   O13 1044   1.515   4.153  16.743  0.3856 -0.4573  0.0706
    9DOPE   O14 1045   1.554   4.211  16.978  0.5415 -0.0943 -0.5959
    9DOPE   O11 1046   1.612   3.984  16.890 -0.2439 -0.0977 -0.4381
    9DOPE   O12 1047   1.753   4.176  16.825  0.1190 -0.5215  0.4086
    9DOPE    C1 1048   1.736   3.904  16.885  1.1737  0.2527  0.8053
    9DOPE    HA 1049   1.747   3.840  16.975 -0.6890  0.6734  1.3891
    9DOPE    HB 1050   1.827   3.968  16.878  1.4653 -0.2905 -0.7672
    9DOPE    C2 1051   1.742   3.802  16.761 -0.1075 -0.2501  0.4861
    9DOPE    HS 1052   1.842   3.753  16.755 -0.9505 -1.9024 -0.5132
    9DOPE   O21 1053   1.710   3.869  16.643 -0.3528 -0.0562  0.0244
    9DOPE   C21 1054   1.806   3.960  16.605 -0.5487  0.1439 -0.5261
    9DOPE   O22 1055   1.917   3.961  16.652 -0.3153  0.2424 -0.8860
    9DOPE   C22 1056   1.762   4.028  16.479  0.7295  0.4175  0.2562
    9DOPE   H2R 1057   1.692   4.107  16.515  0.6106  1.0611 -1.2962
    9DOPE   H2S 1058   1.700   3.965  16.412  1.5902  0.7703 -0.9198
    9DOPE    C3 1059   1.634   3.690  16.795 -0.0100  0.2228 -1.2963
    9DOPE    HX 1060   1.539   3.742  16.819  0.1284  0.1139 -0.4498
    9DOPE    HY 1061   1.652   3.637  16.891 -0.7349  0.9700 -0.7311
    9DOPE   O31 1062   1.610   3.598  16.685  0.1784  0.4519 -0.3380
    9DOPE   C31 1063   1.703   3.510  16.673  0.6702  0.4031 -0.4387
    9DOPE   O32 1064   1.787   3.480  16.759 -0.9194  0.1204 -0.2979
    9DOPE   C32 1065   1.685   3.435  16.539  0.5719  0.1642 -0.2303
    9DOPE   H2X 1066   1.730   3.336  16.563 -1.2144 -0.7516 -0.4908
    9DOPE   H2Y 1067   1.578   3.437  16.507  0.9294  1.0748 -1.4315
    9DOPE   C23 1068   1.879   4.067  16.389  0.0769 -0.0423 -0.4176
    9DOPE   H3R 1069   1.947   3.979  16.387 -0.6158 -0.5799 -1.3867
    9DOPE   H3S 1070   1.932   4.142  16.451 -0.2091  1.6053 -2.0490
    9DOPE   C24 1071   1.852   4.114  16.245  0.3137  0.1786  0.3877
    9DOPE   H4R 1072   1.936   4.170  16.200  0.7243 -0.8546 -0.1823
    9DOPE   H4S 1073   1.765   4.183  16.242  0.3711  0.2176 -0.4761
    9DOPE   C25 1074   1.818   3.994  16.157  0.1673  0.1603 -0.8509
    9DOPE   H5R 1075   1.719   3.953  16.187  1.3140 -2.0281  0.1455
    9DOPE   H5S 1076   1.885   3.909  16.184 -0.6452 -0.5350 -0.9742
    9DOPE   C26 1077   1.806   4.022  16.002 -0.6168  0.1841  0.3583
    9DOPE   H6R 1078   1.765   4.125  15.986 -0.9147 -0.0332 -0.3155
    9DOPE   H6S 1079   1.734   3.951  15.956  0.0975  0.3258 -1.0453
    9DOPE   C27 1080   1.951   4.008  15.932 -0.0529 -0.3224  0.4268
    9DOPE   H7R 1081   1.992   3.908  15.958  1.2947 -0.2056 -1.0679
    9DOPE   H7S 1082   2.021   4.080  15.978 -1.7361  1.3166  0.5261
    9DOPE   C28 1083   1.939   4.020  15.778 -0.5320 -0.0742 -0.2865
    9DOPE   H8R 1084   2.040   4.028  15.731 -0.2606  1.3418  0.4864
    9DOPE   H8S 1085   1.889   4.117  15.759  0.5027  1.3345  3.3618
    9DOPE   C29 1086   1.852   3.911  15.716 -0.3178  0.3247 -0.1443
    9DOPE   H9R 1087   1.815   3.838  15.790  1.7992 -1.7926 -1.0338
    9DOPE  C210 1088   1.812   3.895  15.591  0.7894 -0.2718 -0.4367
    9DOPE  H10R 1089   1.752   3.806  15.565  0.6374  0.4202 -2.6139
    9DOPE  C211 1090   1.858   3.983  15.478  0.4847  0.1468 -0.7386
    9DOPE  H11R 1091   1.864   4.090  15.507 -3.6477  0.2607  0.2317
    9DOPE  H11S 1092   1.780   3.975  15.399  0.6944 -0.3336 -0.9005
    9DOPE  C212 1093   1.992   3.936  15.408 -0.1113 -0.1186 -0.6032
    9DOPE  H12R 1094   2.081   3.940  15.474 -1.5322  0.1727  1.3779
    9DOPE  H12S 1095   2.024   4.007  15.329  0.7735  0.0706 -0.0785
    9DOPE  C213 1096   1.987   3.794  15.352  0.0094 -0.0957  0.2610
    9DOPE  H13R 1097   1.880   3.769  15.336  0.3183 -0.0462 -2.3100
    9DOPE  H13S 1098   2.034   3.728  15.427  2.0841 -0.0975 -0.9660
    9DOPE  C214 1099   2.024   3.770  15.210  0.1181 -0.9075 -0.3128
    9DOPE  H14R 1100   2.128   3.802  15.187 -0.1773 -0.1234 -0.5878
    9DOPE  H14S 1101   1.965   3.846  15.154 -0.4716 -0.3752  0.9871
    9DOPE  C215 1102   1.987   3.636  15.151 -0.6994 -0.0339  0.0084
    9DOPE  H15R 1103   1.910   3.587  15.216  1.1236  0.5221  2.7465
    9DOPE  H15S 1104   2.071   3.564  15.160  0.4537  1.1991 -0.7093
    9DOPE  C216 1105   1.955   3.647  15.004 -0.4091 -0.0178  0.1005
    9DOPE  H16R 1106   1.888   3.734  14.990  0.7292  0.7860 -0.5020
    9DOPE  H16S 1107   1.892   3.559  14.979 -0.8258  0.2901  0.0588
    9DOPE  C217 1108   2.082   3.647  14.909 -0.1776 -0.5037  0.4765
    9DOPE  H17R 1109   2.135   3.553  14.934  1.1780 -0.2706 -1.3108
    9DOPE  H17S 1110   2.154   3.730  14.925 -0.5040  0.1058 -1.0080
    9DOPE  C218 1111   2.037   3.633  14.765  0.2509 -0.1887 -0.1881
    9DOPE  H18R 1112   2.117   3.625  14.688 -0.7875 -1.7061 -1.1507
    9DOPE  H18S 1113   1.977   3.724  14.743  0.3026  0.7909  3.0927
    9DOPE  H18T 1114   1.969   3.547  14.750  0.0505 -0.3765  1.6071
    9DOPE   C33 1115   1.758   3.516  16.433 -0.6842  0.4224 -0.9828
    9DOPE   H3X 1116   1.867   3.502  16.453 -1.1134 -1.3396  0.4319
    9DOPE   H3Y 1117   1.719   3.619  16.429 -0.9397  0.4374  0.9749
    9DOPE   C34 1118   1.731   3.450  16.296  0.1542 -0.0427  0.8986
    9DOPE   H4X 1119   1.759   3.343  16.294 -3.0447 -0.9673  0.3774
    9DOPE   H4Y 1120   1.624   3.462  16.269  0.1807 -2.1007 -0.2898
    9DOPE   C35 1121   1.806   3.517  16.171 -0.5913  0.5980 -0.2011
    9DOPE   H5X 1122   1.912   3.486  16.179 -0.7118 -0.2688 -1.7307
    9DOPE   H5Y 1123   1.806   3.628  16.173 -2.0711  0.6218  0.1567
    9DOPE   C36 1124   1.747   3.483  16.040 -0.1771 -0.7845  0.4756
    9DOPE   H6X 1125   1.650   3.536  16.040  0.8987  1.3624  1.9837
    9DOPE   H6Y 1126   1.734   3.373  16.035 -2.2824 -0.6051  1.2965
    9DOPE   C37 1127   1.833   3.530  15.923 -0.2747  0.0799  0.4156
    9DOPE   H7X 1128   1.828   3.639  15.941 -1.4822  0.1188 -0.0567
    9DOPE   H7Y 1129   1.928   3.475  15.937 -1.0840 -2.5591 -3.1183
    9DOPE   C38 1130   1.776   3.480  15.790  0.4540 -0.4870  0.0874
    9DOPE   H8X 1131   1.676   3.527  15.781  1.2599  0.9667 -2.2738
    9DOPE   H8Y 1132   1.763   3.370  15.789 -0.5760 -0.3885  1.2128
    9DOPE   C39 1133   1.856   3.507  15.667 -0.3399  0.1124  0.2615
    9DOPE   H9X 1134   1.934   3.585  15.668 -0.1367 -0.0278 -1.5352
    9DOPE  C310 1135   1.839   3.436  15.554 -0.2198 -0.3279 -1.0136
    9DOPE  H10X 1136   1.914   3.461  15.478 -0.8922  1.7613 -1.0633
    9DOPE  C311 1137   1.739   3.331  15.538  0.8415  0.0965  0.4575
    9DOPE  H11X 1138   1.792   3.239  15.572 -0.3986 -0.8591 -0.0992
    9DOPE  H11Y 1139   1.656   3.348  15.609  1.3637  0.3354  1.0176
    9DOPE  C312 1140   1.689   3.316  15.389  0.2331  0.1627 -0.2899
    9DOPE  H12X 1141   1.641   3.216  15.380  2.9857 -1.1229 -1.7769
    9DOPE  H12Y 1142   1.777   3.307  15.322  1.3570 -1.4722  1.3237
    9DOPE  C313 1143   1.585   3.426  15.349 -0.1608  0.1344  0.1519
    9DOPE  H13X 1144   1.504   3.431  15.425  0.6867  1.1169  1.0192
    9DOPE  H13Y 1145   1.639   3.522  15.363  0.6945 -0.2423 -0.4161
    9DOPE  C314 1146   1.530   3.416  15.217  0.0141  0.0072 -0.1795
    9DOPE  H14X 1147   1.459   3.501  15.212 -1.5083 -1.2012  0.1858
    9DOPE  H14Y 1148   1.475   3.320  15.204  1.1083 -0.9841  1.9980
    9DOPE  C315 1149   1.636   3.429  15.099 -0.1011 -0.3883 -0.2204
    9DOPE  H15X 1150   1.716   3.353  15.098 -1.4470 -1.8580 -0.3703
    9DOPE  H15Y 1151   1.678   3.532  15.104  0.5306 -0.6617  0.1874
    9DOPE  C316 1152   1.561   3.406  14.969  0.1957 -0.3897  0.2478
    9DOPE  H16X 1153   1.469   3.469  14.961  0.7180  0.2327 -1.4204
    9DOPE  H16Y 1154   1.534   3.299  14.957 -0.8064  0.0438 -2.1601
    9DOPE  C317 1155   1.658   3.437  14.851  0.0451  0.6334 -0.2110
    9DOPE  H17X 1156   1.684   3.544  14.844 -0.6239  0.7816 -0.5604
    9DOPE  H17Y 1157   1.748   3.371  14.850 -0.1351  0.3788  0.2156
    9DOPE  C318 1158   1.588   3.406  14.724  0.1834 -0.0521  0.7998
    9DOPE  H18X 1159   1.604   3.297  14.713  1.4022  0.1272  0.6668
    9DOPE  H18Y 1160   1.479   3.426  14.718 -0.3333 -2.1168  2.1198
    9DOPE  H18Z 1161   1.639   3.463  14.644 -0.7777 -1.3007 -0.7742
   10DOPE     N 1162   2.716   4.203  17.317 -0.0063  0.0379  0.4306
   10DOPE   HN1 1163   2.790   4.232  17.385  0.7142 -0.1413 -0.2604
   10DOPE   HN2 1164   2.661   4.290  17.304  0.3218  0.0920 -0.7148
   10DOPE   HN3 1165   2.649   4.135  17.358 -0.2945 -1.3340 -2.1171
   10DOPE   C12 1166   2.768   4.157  17.180  0.3596 -0.6609  0.1916
   10DOPE  H12A 1167   2.785   4.049  17.198  1.3599 -0.4336  0.7250
   10DOPE  H12B 1168   2.862   4.210  17.154 -0.5253  1.0581  0.3271
   10DOPE   C11 1169   2.667   4.160  17.065  0.8646 -0.2620 -0.3761
   10DOPE  H11A 1170   2.593   4.083  17.092  0.6339 -1.0891 -3.1151
   10DOPE  H11B 1171   2.707   4.119  16.970  1.6238  3.0093 -1.6376
   10DOPE     P 1172   2.663   4.406  16.962 -0.3298  0.6804  0.4911
   10DOPE   O13 1173   2.799   4.445  17.004 -0.1114  0.1261  0.3874
   10DOPE   O14 1174   2.565   4.516  16.971  0.1378 -0.3504 -0.1577
   10DOPE   O11 1175   2.667   4.355  16.811  0.1181  0.0350 -0.0277
   10DOPE   O12 1176   2.604   4.284  17.042 -0.1610  0.2072  0.1159
   10DOPE    C1 1177   2.548   4.320  16.746 -0.1668  0.5255 -0.5043
   10DOPE    HA 1178   2.503   4.406  16.692 -2.2582  0.4987  1.0553
   10DOPE    HB 1179   2.467   4.277  16.809 -0.4204  0.6861 -0.7153
   10DOPE    C2 1180   2.573   4.219  16.632  0.3837 -0.0545  0.1385
   10DOPE    HS 1181   2.603   4.125  16.683  1.5307 -0.2471 -0.8610
   10DOPE   O21 1182   2.675   4.264  16.543 -0.1722  0.1075  0.6714
   10DOPE   C21 1183   2.739   4.171  16.473  0.1602 -0.1742  0.1138
   10DOPE   O22 1184   2.729   4.052  16.499 -0.3713 -0.8171 -0.5378
   10DOPE   C22 1185   2.813   4.230  16.352  0.0298  0.2800  0.5215
   10DOPE   H2R 1186   2.897   4.164  16.322 -0.9004  1.3820 -5.9451
   10DOPE   H2S 1187   2.866   4.321  16.388  0.3290  1.2693 -2.1248
   10DOPE    C3 1188   2.448   4.182  16.550 -0.3119 -0.1431  0.1229
   10DOPE    HX 1189   2.378   4.142  16.627 -2.0352  1.2217 -0.6681
   10DOPE    HY 1190   2.461   4.101  16.476 -1.8551  1.0247 -1.5257
   10DOPE   O31 1191   2.388   4.292  16.478 -0.1382  0.1012 -0.6175
   10DOPE   C31 1192   2.255   4.321  16.499 -0.4862 -0.7093 -0.7189
   10DOPE   O32 1193   2.178   4.249  16.563  0.7309  0.0775  0.2218
   10DOPE   C32 1194   2.218   4.446  16.426  0.1226 -0.7375 -0.4279
   10DOPE   H2X 1195   2.208   4.538  16.488 -0.0019 -0.2602 -1.1378
   10DOPE   H2Y 1196   2.303   4.462  16.355  1.1814  0.0947  0.9769
   10DOPE   C23 1197   2.710   4.273  16.241  0.3602 -0.1374 -0.2142
   10DOPE   H3R 1198   2.639   4.345  16.285 -0.9431 -2.7387  2.2583
   10DOPE   H3S 1199   2.650   4.188  16.202  0.9084 -0.6219 -0.0114
   10DOPE   C24 1200   2.778   4.345  16.118  0.5158 -0.4340  0.1371
   10DOPE   H4R 1201   2.842   4.267  16.072  1.2704 -0.1144  0.6223
   10DOPE   H4S 1202   2.853   4.414  16.161  0.9837 -0.3274 -0.8312
   10DOPE   C25 1203   2.683   4.401  16.012 -0.3541 -0.3947 -0.2444
   10DOPE   H5R 1204   2.606   4.469  16.053 -0.5658 -0.1104 -1.1071
   10DOPE   H5S 1205   2.620   4.323  15.964 -0.8894  0.7302 -1.4093
   10DOPE   C26 1206   2.758   4.470  15.900 -0.7574 -0.5077 -0.0525
   10DOPE   H6R 1207   2.843   4.411  15.861 -0.6415 -0.9121  0.7850
   10DOPE   H6S 1208   2.795   4.573  15.918  1.9189 -1.2063 -1.0966
   10DOPE   C27 1209   2.662   4.487  15.781 -0.1242 -0.1152 -0.1901
   10DOPE   H7R 1210   2.563   4.530  15.808 -0.1754 -0.9137  0.9996
   10DOPE   H7S 1211   2.649   4.385  15.741  0.5984 -0.6414  0.8651
   10DOPE   C28 1212   2.719   4.567  15.659 -0.1220  0.2961 -0.1948
   10DOPE   H8R 1213   2.751   4.671  15.681  1.6719 -0.2695  0.0175
   10DOPE   H8S 1214   2.633   4.566  15.589 -1.5662 -0.8217  1.5054
   10DOPE   C29 1215   2.845   4.500  15.601 -0.5194 -0.1086  0.2053
   10DOPE   H9R 1216   2.942   4.530  15.643  0.1791 -0.8228 -0.8428
   10DOPE  C210 1217   2.856   4.423  15.486  0.2873  0.7249 -0.7039
   10DOPE  H10R 1218   2.951   4.377  15.455  1.0300  2.1933 -0.6966
   10DOPE  C211 1219   2.736   4.369  15.413 -0.1531 -0.3492  0.2011
   10DOPE  H11R 1220   2.640   4.419  15.439 -0.6782 -0.8463 -0.7565
   10DOPE  H11S 1221   2.726   4.262  15.440  0.8546 -0.8783 -1.4221
   10DOPE  C212 1222   2.757   4.379  15.260 -0.3004 -0.9146 -0.0436
   10DOPE  H12R 1223   2.850   4.345  15.209 -1.0503  1.6863 -3.6353
   10DOPE  H12S 1224   2.770   4.489  15.248 -0.9157 -0.1104  4.7306
   10DOPE  C213 1225   2.638   4.330  15.185  0.5315 -0.0158 -0.4292
   10DOPE  H13R 1226   2.542   4.367  15.228  0.3832 -0.1481 -0.6453
   10DOPE  H13S 1227   2.635   4.219  15.181  2.4250 -0.1705  1.0745
   10DOPE  C214 1228   2.637   4.389  15.041  0.1881  0.0140 -0.6299
   10DOPE  H14R 1229   2.732   4.351  14.997  0.3819 -0.7635  0.4160
   10DOPE  H14S 1230   2.631   4.500  15.041 -0.8960 -0.0322 -0.1280
   10DOPE  C215 1231   2.523   4.338  14.946 -0.2422  0.3483 -0.5484
   10DOPE  H15R 1232   2.424   4.371  14.984 -0.2603  0.8675 -1.0415
   10DOPE  H15S 1233   2.522   4.227  14.957 -0.4970  0.5176  1.5246
   10DOPE  C216 1234   2.533   4.356  14.792  0.2564  0.8145 -0.3137
   10DOPE  H16R 1235   2.470   4.281  14.740 -3.0995  0.9312  3.1579
   10DOPE  H16S 1236   2.638   4.331  14.765 -0.2517 -0.4561 -1.2086
   10DOPE  C217 1237   2.503   4.498  14.746 -0.1753 -0.7239  0.2513
   10DOPE  H17R 1238   2.565   4.566  14.808 -2.7068  2.5096 -0.4649
   10DOPE  H17S 1239   2.398   4.529  14.765  0.6640  1.2822  2.0809
   10DOPE  C218 1240   2.541   4.541  14.599 -0.1146  0.3417 -0.4301
   10DOPE  H18R 1241   2.557   4.651  14.590  0.5626  0.2733 -0.1339
   10DOPE  H18S 1242   2.454   4.510  14.537  1.0814 -0.3401 -1.8422
   10DOPE  H18T 1243   2.632   4.491  14.560 -0.4074  0.3353 -1.1295
   10DOPE   C33 1244   2.076   4.432  16.355  0.4839  0.4818 -0.3559
   10DOPE   H3X 1245   2.055   4.337  16.300  1.3207 -0.4829  0.9418
   10DOPE   H3Y 1246   2.065   4.518  16.286  0.3824  0.3114 -0.5552
   10DOPE   C34 1247   1.952   4.442  16.454 -0.0394 -0.4530 -0.1168
   10DOPE   H4X 1248   1.950   4.359  16.528 -1.3060 -0.3023  0.0297
   10DOPE   H4Y 1249   1.948   4.543  16.500  0.6234 -0.5658  0.2048
   10DOPE   C35 1250   1.815   4.425  16.394  0.1223  0.2271  1.0307
   10DOPE   H5X 1251   1.755   4.382  16.477  2.6199 -1.7164  1.9694
   10DOPE   H5Y 1252   1.818   4.350  16.313  0.5809  1.0177  0.2960
   10DOPE   C36 1253   1.763   4.557  16.327  0.2292  0.1878  0.5622
   10DOPE   H6X 1254   1.850   4.608  16.280  0.3451  3.4539  3.8500
   10DOPE   H6Y 1255   1.720   4.625  16.403 -2.7126 -0.7899 -0.1067
   10DOPE   C37 1256   1.646   4.544  16.225  0.0814 -0.2921  0.2101
   10DOPE   H7X 1257   1.576   4.478  16.281 -0.8201  0.3349 -0.1598
   10DOPE   H7Y 1258   1.601   4.646  16.220  0.3004 -0.2360 -0.9765
   10DOPE   C38 1259   1.682   4.491  16.088  0.1385  0.3205  0.1962
   10DOPE   H8X 1260   1.739   4.396  16.101  3.0755  1.8565 -0.5378
   10DOPE   H8Y 1261   1.758   4.559  16.044 -1.3967  0.9830 -1.5320
   10DOPE   C39 1262   1.560   4.470  16.004 -0.0361 -0.2382 -0.3027
   10DOPE   H9X 1263   1.476   4.434  16.064 -0.6156  0.6835 -0.5397
   10DOPE  C310 1264   1.546   4.478  15.869  0.3953  0.4028 -0.3344
   10DOPE  H10X 1265   1.443   4.468  15.832  0.4642 -0.1139 -0.3815
   10DOPE  C311 1266   1.653   4.535  15.774 -0.5744  0.2832  0.2344
   10DOPE  H11X 1267   1.602   4.612  15.712 -1.7626 -1.7227 -1.4151
   10DOPE  H11Y 1268   1.741   4.577  15.827  1.7110 -1.2271 -2.1279
   10DOPE  C312 1269   1.701   4.416  15.683  0.6759 -0.3475 -0.9960
   10DOPE  H12X 1270   1.722   4.326  15.744  0.1454  0.6257  0.6594
   10DOPE  H12Y 1271   1.802   4.434  15.640  0.3484 -1.8689 -2.5476
   10DOPE  C313 1272   1.597   4.381  15.572 -0.3515  0.1537 -0.3346
   10DOPE  H13X 1273   1.509   4.348  15.631  1.0873 -1.4094  1.0469
   10DOPE  H13Y 1274   1.567   4.467  15.508  2.1991  0.4014 -1.3333
   10DOPE  C314 1275   1.644   4.267  15.479  0.2743 -0.1419 -0.0350
   10DOPE  H14X 1276   1.556   4.221  15.430  1.4682  0.1421 -2.5766
   10DOPE  H14Y 1277   1.668   4.181  15.545  0.4157 -0.4257 -0.4525
   10DOPE  C315 1278   1.755   4.301  15.382  0.0874 -0.1515 -0.2822
   10DOPE  H15X 1279   1.756   4.217  15.309 -0.8191 -1.3575  1.0530
   10DOPE  H15Y 1280   1.855   4.311  15.429  0.0103  2.9169 -0.5450
   10DOPE  C316 1281   1.723   4.423  15.297  0.8218 -0.1876 -0.4084
   10DOPE  H16X 1282   1.697   4.510  15.361  1.0141 -1.0810  0.9293
   10DOPE  H16Y 1283   1.633   4.398  15.237 -0.1149  1.2461  0.3241
   10DOPE  C317 1284   1.834   4.449  15.203 -0.8945  0.2339 -0.3017
   10DOPE  H17X 1285   1.925   4.456  15.266 -1.1936  0.6018  0.0892
   10DOPE  H17Y 1286   1.847   4.354  15.146  0.1465  0.6330 -0.7759
   10DOPE  C318 1287   1.813   4.555  15.087 -0.1585 -0.7305 -0.3767
   10DOPE  H18X 1288   1.909   4.566  15.032  0.4377  2.8471  1.1404
   10DOPE  H18Y 1289   1.728   4.526  15.021  1.0863 -3.0292 -1.0926
   10DOPE  H18Z 1290   1.786   4.652  15.133  0.2129 -2.1768  3.1705
   11DOPE     N 1291   2.061   0.872  17.371  0.0647 -0.5440 -0.3986
   11DOPE   HN1 1292   2.037   0.892  17.471 -3.1472 -2.4727 -0.6498
   11DOPE   HN2 1293   1.970   0.851  17.324 -0.0011 -0.1330 -0.4523
   11DOPE   HN3 1294   2.118   0.785  17.359  1.0234  0.1103 -0.6802
   11DOPE   C12 1295   2.134   0.997  17.310  0.4499 -0.1982  0.6341
   11DOPE  H12A 1296   2.217   1.032  17.375  1.8305  0.7896 -1.5498
   11DOPE  H12B 1297   2.059   1.079  17.310  1.1689  0.4656  0.2760
   11DOPE   C11 1298   2.180   0.962  17.169  0.7156 -1.2444  0.1528
   11DOPE  H11A 1299   2.278   0.914  17.187  0.9705 -2.5320 -3.7724
   11DOPE  H11B 1300   2.207   1.055  17.114  0.2790 -1.0846  0.2074
   11DOPE     P 1301   1.982   0.942  16.997 -0.1346 -0.5874  0.4286
   11DOPE   O13 1302   1.925   1.056  17.069 -0.6557 -0.2809 -0.5894
   11DOPE   O14 1303   1.892   0.846  16.930  0.2461  0.0710  0.2424
   11DOPE   O11 1304   2.070   1.008  16.888 -0.8079 -0.0830 -0.5974
   11DOPE   O12 1305   2.100   0.877  17.087  0.5136 -0.0120 -0.6689
   11DOPE    C1 1306   2.180   0.939  16.829  0.3812 -0.3230 -0.0811
   11DOPE    HA 1307   2.170   0.828  16.831 -2.2172 -0.1678  2.5960
   11DOPE    HB 1308   2.273   0.956  16.887 -0.3094 -0.3181  1.0491
   11DOPE    C2 1309   2.201   0.982  16.680  0.1959  0.1866  0.1814
   11DOPE    HS 1310   2.271   0.911  16.631 -1.3841  0.0804 -2.0063
   11DOPE   O21 1311   2.248   1.116  16.690  0.2337 -0.1306 -0.4327
   11DOPE   C21 1312   2.378   1.124  16.709 -0.1645  0.2114 -0.1013
   11DOPE   O22 1313   2.458   1.037  16.735 -0.1169 -0.0896  1.0422
   11DOPE   C22 1314   2.415   1.266  16.675  0.1207  0.0127  0.5098
   11DOPE   H2R 1315   2.420   1.319  16.773  1.0227 -1.4236  1.2945
   11DOPE   H2S 1316   2.340   1.321  16.615  0.3775 -0.0265  0.1506
   11DOPE    C3 1317   2.061   0.989  16.607  0.2376 -0.5767  0.1938
   11DOPE    HX 1318   2.004   1.080  16.638  0.5223 -0.2893 -0.1161
   11DOPE    HY 1319   1.999   0.903  16.639 -1.6353  0.8103  0.5087
   11DOPE   O31 1320   2.089   0.994  16.467  0.3476  0.7469 -0.2304
   11DOPE   C31 1321   1.988   1.023  16.393  0.5230 -0.7545  0.9472
   11DOPE   O32 1322   1.874   1.036  16.427  0.1428  0.7807  0.1261
   11DOPE   C32 1323   2.038   1.024  16.245 -0.3180 -0.8766 -0.4508
   11DOPE   H2X 1324   2.141   1.064  16.235  0.6198 -2.5564  1.6648
   11DOPE   H2Y 1325   2.045   0.914  16.234  0.4256 -0.7762 -1.0284
   11DOPE   C23 1326   2.550   1.275  16.610  0.3363 -0.1329  0.9464
   11DOPE   H3R 1327   2.626   1.228  16.676  0.7038 -2.8642 -1.1771
   11DOPE   H3S 1328   2.572   1.384  16.610 -2.0741  0.4571 -0.6211
   11DOPE   C24 1329   2.562   1.221  16.467  0.5004  0.3205  0.3138
   11DOPE   H4R 1330   2.547   1.112  16.458 -1.5572  0.5299  0.7129
   11DOPE   H4S 1331   2.669   1.234  16.442  0.5383  1.0238  0.7920
   11DOPE   C25 1332   2.472   1.299  16.368 -0.2343 -0.7272 -0.1972
   11DOPE   H5R 1333   2.454   1.401  16.407  2.6469 -0.0098 -0.5064
   11DOPE   H5S 1334   2.376   1.244  16.369  0.5156 -2.1758  2.1796
   11DOPE   C26 1335   2.532   1.320  16.221 -0.1616  0.4790 -0.3765
   11DOPE   H6R 1336   2.606   1.402  16.235  0.4235  0.1438 -1.3418
   11DOPE   H6S 1337   2.450   1.360  16.157  1.1413  1.8425 -1.2877
   11DOPE   C27 1338   2.595   1.198  16.151 -0.5254 -0.1738 -0.7927
   11DOPE   H7R 1339   2.687   1.176  16.209 -1.5160  2.5615  2.0542
   11DOPE   H7S 1340   2.639   1.233  16.055  0.8134  1.0169  0.2057
   11DOPE   C28 1341   2.498   1.078  16.133  0.7041  0.8169  0.4399
   11DOPE   H8R 1342   2.448   1.054  16.230  1.6330 -1.9945  0.3360
   11DOPE   H8S 1343   2.566   0.994  16.104 -2.2490 -0.9981 -1.8191
   11DOPE   C29 1344   2.389   1.100  16.031 -0.1338  0.0907 -0.0890
   11DOPE   H9R 1345   2.299   1.147  16.074  0.4469 -0.2182  1.4919
   11DOPE  C210 1346   2.386   1.064  15.898 -0.3363  0.3272 -0.1390
   11DOPE  H10R 1347   2.291   1.077  15.844 -0.1371  0.4887 -0.4511
   11DOPE  C211 1348   2.495   1.007  15.805  0.2773 -0.2315 -0.4993
   11DOPE  H11R 1349   2.587   0.996  15.866  1.1785 -1.0182 -1.9708
   11DOPE  H11S 1350   2.517   1.079  15.723 -0.8755 -0.7463 -1.2866
   11DOPE  C212 1351   2.437   0.876  15.744  0.1204  0.3601 -0.1507
   11DOPE  H12R 1352   2.503   0.834  15.665  0.2925  1.1178 -0.4177
   11DOPE  H12S 1353   2.344   0.902  15.688 -0.5442  0.6309  1.0535
   11DOPE  C213 1354   2.420   0.766  15.843 -0.7611  0.3933 -0.5018
   11DOPE  H13R 1355   2.357   0.689  15.793  1.1450 -0.3294 -1.9055
   11DOPE  H13S 1356   2.363   0.807  15.929 -0.3905 -0.2384  0.0472
   11DOPE  C214 1357   2.549   0.702  15.901 -0.1664  0.0901  0.2763
   11DOPE  H14R 1358   2.593   0.790  15.954 -1.0486  0.9148 -0.3335
   11DOPE  H14S 1359   2.606   0.679  15.809  0.6241  2.0197  0.2346
   11DOPE  C215 1360   2.531   0.578  15.989 -0.0624 -0.0411  0.2925
   11DOPE  H15R 1361   2.631   0.543  16.022 -0.7667 -0.2803  2.2858
   11DOPE  H15S 1362   2.483   0.497  15.930 -0.5189  1.4705 -1.5448
   11DOPE  C216 1363   2.462   0.612  16.121  0.1445  1.1242 -0.6514
   11DOPE  H16R 1364   2.361   0.660  16.120 -0.2573  0.2953 -0.6585
   11DOPE  H16S 1365   2.532   0.675  16.180  3.3956 -2.5224 -0.2308
   11DOPE  C217 1366   2.431   0.492  16.213  0.3064 -0.7443  0.1494
   11DOPE  H17R 1367   2.361   0.425  16.160 -0.0915  0.4419 -0.8645
   11DOPE  H17S 1368   2.376   0.530  16.301  0.7229 -1.2761  0.6432
   11DOPE  C218 1369   2.567   0.433  16.254 -1.0694 -0.3827  0.1627
   11DOPE  H18R 1370   2.630   0.505  16.310 -0.8753 -0.1044 -0.4068
   11DOPE  H18S 1371   2.622   0.394  16.166  1.3756  2.2983  0.3415
   11DOPE  H18T 1372   2.544   0.351  16.325  2.4424  0.6040  2.7340
   11DOPE   C33 1373   1.931   1.098  16.152 -0.2740 -0.0099  0.9447
   11DOPE   H3X 1374   1.923   1.206  16.175  1.6798  0.2291  0.6619
   11DOPE   H3Y 1375   1.835   1.046  16.172 -0.4151 -1.0389 -1.9362
   11DOPE   C34 1376   1.964   1.086  16.001  0.8358  0.6947 -0.5742
   11DOPE   H4X 1377   1.877   1.121  15.942  2.2461  0.7529 -2.7136
   11DOPE   H4Y 1378   2.052   1.145  15.970  3.9461 -2.9691  0.5340
   11DOPE   C35 1379   2.005   0.946  15.961 -0.0089  0.2711 -0.3646
   11DOPE   H5X 1380   1.932   0.874  16.005 -0.7178  0.5722 -1.0368
   11DOPE   H5Y 1381   2.100   0.921  16.013  0.0954 -1.9676 -1.4834
   11DOPE   C36 1382   2.020   0.913  15.813  0.3970  0.1151  0.4956
   11DOPE   H6X 1383   2.065   0.814  15.790 -2.4735 -0.8321 -1.5549
   11DOPE   H6Y 1384   2.089   0.984  15.762 -0.5612 -1.7356 -3.7728
   11DOPE   C37 1385   1.889   0.919  15.735  0.8759  0.4357  0.3143
   11DOPE   H7X 1386   1.830   0.840  15.784  1.1749 -0.0562 -0.1094
   11DOPE   H7Y 1387   1.838   1.017  15.750  1.5458  0.7722  0.4527
   11DOPE   C38 1388   1.887   0.869  15.586  0.1066  0.5931 -0.0739
   11DOPE   H8X 1389   1.784   0.846  15.552  0.1653  0.5485 -0.2231
   11DOPE   H8Y 1390   1.934   0.768  15.586 -0.8642  0.0807 -2.2596
   11DOPE   C39 1391   1.957   0.956  15.485 -0.6877  0.4489 -0.3433
   11DOPE   H9X 1392   1.909   1.052  15.461 -0.8506  0.3734 -0.3236
   11DOPE  C310 1393   2.071   0.925  15.429  0.4532  0.2303  0.4496
   11DOPE  H10X 1394   2.117   0.996  15.358  3.0233 -1.4812  0.2982
   11DOPE  C311 1395   2.152   0.797  15.457 -0.1168  0.5362  0.6505
   11DOPE  H11X 1396   2.162   0.794  15.568 -0.6877 -0.0455  0.6901
   11DOPE  H11Y 1397   2.099   0.705  15.423  0.1796 -0.1432  1.9398
   11DOPE  C312 1398   2.299   0.804  15.386  0.1945 -0.4621  0.5220
   11DOPE  H12X 1399   2.351   0.895  15.423 -0.6175  0.2928 -0.1652
   11DOPE  H12Y 1400   2.276   0.812  15.278 -0.1343  0.6328  0.6591
   11DOPE  C313 1401   2.373   0.676  15.425 -0.2500 -0.7951  0.2043
   11DOPE  H13X 1402   2.403   0.696  15.530 -0.8171 -2.6187  0.7497
   11DOPE  H13Y 1403   2.307   0.587  15.430 -1.0209 -0.1648  2.6749
   11DOPE  C314 1404   2.503   0.640  15.345 -0.1058 -0.4147  0.0493
   11DOPE  H14X 1405   2.519   0.534  15.373 -0.2316 -0.0165  1.7992
   11DOPE  H14Y 1406   2.590   0.697  15.384  0.3196 -1.8568  1.3037
   11DOPE  C315 1407   2.484   0.647  15.196 -0.0685  0.4150 -0.1788
   11DOPE  H15X 1408   2.490   0.752  15.162  1.3629  0.1159 -0.9304
   11DOPE  H15Y 1409   2.378   0.625  15.171  0.2857 -0.2409 -1.1589
   11DOPE  C316 1410   2.578   0.552  15.119 -0.7734 -0.5380 -0.2354
   11DOPE  H16X 1411   2.546   0.556  15.012  2.3802 -0.5754 -1.2833
   11DOPE  H16Y 1412   2.556   0.448  15.149 -0.9255 -1.0731 -2.0568
   11DOPE  C317 1413   2.731   0.577  15.125 -0.2376 -0.3772  0.0559
   11DOPE  H17X 1414   2.760   0.678  15.162  0.7870 -1.2706  1.8286
   11DOPE  H17Y 1415   2.774   0.517  15.209 -1.2403 -1.5431 -0.2365
   11DOPE  C318 1416   2.808   0.542  14.997 -0.5126  0.4598 -0.2317
   11DOPE  H18X 1417   2.791   0.434  14.975 -1.5176  0.3362  1.0473
   11DOPE  H18Y 1418   2.777   0.609  14.914 -0.3917  3.1361  1.7823
   11DOPE  H18Z 1419   2.915   0.564  15.014 -0.7389  1.5917 -0.1954
   12DOPE     N 1420   3.218   5.211  17.047 -0.0080  0.0703 -0.4957
   12DOPE   HN1 1421   3.135   5.172  16.998 -2.1817 -0.9400  3.5004
   12DOPE   HN2 1422   3.185   5.198  17.145 -3.0753 -0.1260 -1.4398
   12DOPE   HN3 1423   3.227   5.314  17.036  2.6657 -0.1520 -1.1451
   12DOPE   C12 1424   3.349   5.141  17.027 -0.4565  0.2844  0.0971
   12DOPE  H12A 1425   3.368   5.149  16.918  0.1567  1.1646  0.2541
   12DOPE  H12B 1426   3.341   5.032  17.048 -0.0112 -0.1343 -1.7063
   12DOPE   C11 1427   3.466   5.198  17.106  0.0650  0.0572  0.8475
   12DOPE  H11A 1428   3.555   5.137  17.081  0.1814  1.3562 -2.3949
   12DOPE  H11B 1429   3.450   5.183  17.215 -1.0143 -0.9183  0.5767
   12DOPE     P 1430   3.605   5.371  16.964 -0.1765 -0.4156  0.1202
   12DOPE   O13 1431   3.737   5.339  17.018 -0.2845 -0.2082  0.3799
   12DOPE   O14 1432   3.580   5.514  16.930 -0.1440 -0.3372 -0.1400
   12DOPE   O11 1433   3.570   5.281  16.832 -0.6509  0.3069  0.2282
   12DOPE   O12 1434   3.492   5.332  17.064  0.5468  0.0060 -0.3661
   12DOPE    C1 1435   3.672   5.202  16.762 -0.0455 -0.3573  0.1906
   12DOPE    HA 1436   3.617   5.121  16.711 -1.4493  1.3632 -1.1932
   12DOPE    HB 1437   3.745   5.147  16.825 -1.4726 -0.7344  1.5797
   12DOPE    C2 1438   3.743   5.299  16.654  0.0122  0.9659 -0.0284
   12DOPE    HS 1439   3.814   5.354  16.720 -0.2205  0.4303  0.6832
   12DOPE   O21 1440   3.653   5.395  16.590 -0.2898  0.4387  0.3880
   12DOPE   C21 1441   3.549   5.342  16.537  0.1545 -0.7307  0.1990
   12DOPE   O22 1442   3.516   5.226  16.515 -0.1701 -0.6603 -0.4350
   12DOPE   C22 1443   3.457   5.460  16.499 -0.6404 -0.7803  0.2631
   12DOPE   H2R 1444   3.512   5.531  16.433 -1.6031 -1.5362 -1.4353
   12DOPE   H2S 1445   3.419   5.531  16.576 -0.1574  1.0764 -1.1273
   12DOPE    C3 1446   3.831   5.224  16.550  0.6287  0.7230  0.2109
   12DOPE    HX 1447   3.765   5.147  16.505 -0.9502  0.5681  2.6216
   12DOPE    HY 1448   3.905   5.159  16.601 -1.4218 -0.3631  1.9769
   12DOPE   O31 1449   3.875   5.301  16.444 -0.4920  0.3441 -0.1323
   12DOPE   C31 1450   3.994   5.363  16.462 -0.3941 -0.0560  0.0506
   12DOPE   O32 1451   4.067   5.358  16.559 -0.2719 -0.1597  0.5892
   12DOPE   C32 1452   4.026   5.442  16.335  0.0764 -0.1196  0.5779
   12DOPE   H2X 1453   3.974   5.401  16.245 -1.1978  1.5013  0.5182
   12DOPE   H2Y 1454   3.998   5.548  16.350 -0.4544 -0.1031 -0.3942
   12DOPE   C23 1455   3.330   5.408  16.430 -0.7267  0.5398 -0.4313
   12DOPE   H3R 1456   3.283   5.334  16.499 -0.1724  2.1273  1.7201
   12DOPE   H3S 1457   3.356   5.348  16.340  2.1514 -0.0343  0.6721
   12DOPE   C24 1458   3.240   5.521  16.384 -0.2114 -0.6284 -0.2610
   12DOPE   H4R 1459   3.212   5.592  16.465  0.1837  0.6396 -1.1960
   12DOPE   H4S 1460   3.143   5.482  16.346  0.4889 -0.3908 -2.4848
   12DOPE   C25 1461   3.296   5.588  16.264 -0.2788 -0.9792  0.4489
   12DOPE   H5R 1462   3.323   5.516  16.184  3.0149  0.6971 -0.1484
   12DOPE   H5S 1463   3.393   5.641  16.279 -0.0845 -0.8766 -1.0448
   12DOPE   C26 1464   3.202   5.699  16.218 -0.6926  0.6099  0.2050
   12DOPE   H6R 1465   3.182   5.769  16.302 -0.2951  0.5015  0.3903
   12DOPE   H6S 1466   3.103   5.653  16.197 -0.3518  0.0465 -0.1878
   12DOPE   C27 1467   3.251   5.782  16.096 -0.1709 -0.2911  0.1809
   12DOPE   H7R 1468   3.299   5.726  16.013 -2.4233  0.0341 -1.4195
   12DOPE   H7S 1469   3.333   5.850  16.129 -0.6914  0.4752 -0.0738
   12DOPE   C28 1470   3.151   5.875  16.031  0.7188  0.0700  0.1811
   12DOPE   H8R 1471   3.208   5.930  15.954  0.5006  2.0218  1.3479
   12DOPE   H8S 1472   3.110   5.953  16.099  2.2495  2.4830 -1.5341
   12DOPE   C29 1473   3.036   5.803  15.966  0.0542 -0.8154 -0.1100
   12DOPE   H9R 1474   2.945   5.789  16.026  0.5140 -2.0243  0.3449
   12DOPE  C210 1475   3.031   5.749  15.842  0.4982  0.2835 -0.0258
   12DOPE  H10R 1476   2.944   5.687  15.815  0.7472  0.6734 -1.8637
   12DOPE  C211 1477   3.142   5.756  15.740  0.6431  0.4299  0.8415
   12DOPE  H11R 1478   3.181   5.656  15.712  0.7149  0.7559 -0.2799
   12DOPE  H11S 1479   3.227   5.812  15.786  1.4625 -1.6088  1.9181
   12DOPE  C212 1480   3.103   5.838  15.615 -0.3429  0.2470 -0.4827
   12DOPE  H12R 1481   3.040   5.926  15.640 -1.3359 -0.1727 -1.4443
   12DOPE  H12S 1482   3.037   5.772  15.554  1.5960 -0.8967 -1.4516
   12DOPE  C213 1483   3.238   5.862  15.545  0.2043  0.4980 -0.4690
   12DOPE  H13R 1484   3.293   5.767  15.531  0.4395  0.4445  0.7269
   12DOPE  H13S 1485   3.297   5.925  15.616  1.1198 -2.3464  1.5025
   12DOPE  C214 1486   3.227   5.925  15.411 -0.2577  0.3259 -0.6010
   12DOPE  H14R 1487   3.191   6.029  15.420 -3.4405 -0.8558  2.8833
   12DOPE  H14S 1488   3.156   5.868  15.347 -1.7017  0.1011  1.1376
   12DOPE  C215 1489   3.356   5.919  15.334  0.5963 -0.1576 -0.1337
   12DOPE  H15R 1490   3.377   5.812  15.316 -2.3985 -1.1795  1.6297
   12DOPE  H15S 1491   3.437   5.961  15.398  1.0754  0.9271 -1.4080
   12DOPE  C216 1492   3.367   5.994  15.203 -0.1118  0.3177  0.0466
   12DOPE  H16R 1493   3.356   6.102  15.226  1.8153  0.8076 -1.1104
   12DOPE  H16S 1494   3.295   5.960  15.125  0.4487  0.6382 -0.6230
   12DOPE  C217 1495   3.508   5.975  15.142  0.2551 -0.0711 -0.5103
   12DOPE  H17R 1496   3.578   5.974  15.229 -0.1748  1.0016 -0.1318
   12DOPE  H17S 1497   3.536   6.060  15.076  1.8331  1.7248  2.2620
   12DOPE  C218 1498   3.529   5.846  15.072  0.3013 -0.1032 -0.3549
   12DOPE  H18R 1499   3.456   5.829  14.990 -0.2096 -2.1655  0.4673
   12DOPE  H18S 1500   3.508   5.764  15.144 -1.9554  1.1142  0.5096
   12DOPE  H18T 1501   3.633   5.849  15.034  0.9282 -0.3102  1.2591
   12DOPE   C33 1502   4.170   5.446  16.312 -0.3201  0.0641  1.1560
   12DOPE   H3X 1503   4.217   5.346  16.308  1.4863  0.8091  2.2005
   12DOPE   H3Y 1504   4.228   5.509  16.383  1.2184  0.0688 -0.0645
   12DOPE   C34 1505   4.210   5.501  16.174 -0.9237 -0.4858 -0.6915
   12DOPE   H4X 1506   4.166   5.602  16.180  0.1520 -0.1024  1.9734
   12DOPE   H4Y 1507   4.320   5.512  16.187 -1.1744  0.8458  0.4864
   12DOPE   C35 1508   4.181   5.419  16.055  0.1641  0.3975  0.0125
   12DOPE   H5X 1509   4.070   5.415  16.048  0.2014  0.2673 -0.5404
   12DOPE   H5Y 1510   4.218   5.317  16.080 -0.1986  0.3643  0.4248
   12DOPE   C36 1511   4.236   5.465  15.917  0.2920  0.7249  0.1826
   12DOPE   H6X 1512   4.343   5.492  15.930  0.7328 -0.2861 -1.1710
   12DOPE   H6Y 1513   4.182   5.559  15.895 -0.0953  0.1256 -1.5526
   12DOPE   C37 1514   4.222   5.365  15.802  0.6893 -0.3089  0.2157
   12DOPE   H7X 1515   4.269   5.266  15.823 -2.1556 -1.7800  0.1273
   12DOPE   H7Y 1516   4.114   5.342  15.791  0.7846 -2.2910  2.4645
   12DOPE   C38 1517   4.280   5.422  15.664  0.0892  0.1178 -0.3104
   12DOPE   H8X 1518   4.385   5.458  15.675 -0.0270  0.2984  0.2415
   12DOPE   H8Y 1519   4.203   5.499  15.641 -0.6669 -0.1052  1.3326
   12DOPE   C39 1520   4.266   5.318  15.557 -0.1064  0.3306  0.9335
   12DOPE   H9X 1521   4.296   5.215  15.584  1.7001  0.7756  0.6841
   12DOPE  C310 1522   4.231   5.336  15.425  0.0865 -0.5169 -0.0338
   12DOPE  H10X 1523   4.202   5.245  15.370 -1.0256 -1.8369  2.5766
   12DOPE  C311 1524   4.205   5.468  15.360 -0.7197 -0.3964  0.0068
   12DOPE  H11X 1525   4.188   5.453  15.251  0.5834 -0.7730 -0.1671
   12DOPE  H11Y 1526   4.112   5.518  15.392  0.3336  1.3424  0.5012
   12DOPE  C312 1527   4.326   5.557  15.356 -0.1217 -1.0324 -0.2104
   12DOPE  H12X 1528   4.400   5.521  15.282  0.5372  1.5758 -0.9242
   12DOPE  H12Y 1529   4.377   5.551  15.455  0.1338  1.6337 -0.1010
   12DOPE  C313 1530   4.309   5.707  15.320 -0.0701  0.1890  0.1252
   12DOPE  H13X 1531   4.238   5.764  15.383 -1.8581 -2.0105  0.2610
   12DOPE  H13Y 1532   4.405   5.762  15.321  0.9691 -1.5385  1.0178
   12DOPE  C314 1533   4.238   5.725  15.182 -0.1714 -0.0503  0.0594
   12DOPE  H14X 1534   4.135   5.692  15.205  0.3314 -1.1113  0.9330
   12DOPE  H14Y 1535   4.286   5.659  15.107 -0.8232 -0.1175 -0.2979
   12DOPE  C315 1536   4.245   5.880  15.131 -0.5593  0.1988 -0.2979
   12DOPE  H15X 1537   4.351   5.910  15.114 -0.8257  1.2072 -0.2511
   12DOPE  H15Y 1538   4.208   5.940  15.217 -1.6607  0.9511 -1.2567
   12DOPE  C316 1539   4.161   5.886  15.009 -0.8524 -0.3864  0.4133
   12DOPE  H16X 1540   4.061   5.851  15.043 -0.8694  0.6575  1.5048
   12DOPE  H16Y 1541   4.201   5.812  14.937 -0.8049 -0.9277  0.9907
   12DOPE  C317 1542   4.130   6.023  14.938 -0.7973 -0.4920  0.2228
   12DOPE  H17X 1543   4.215   6.055  14.873  0.6360  0.0341  2.2459
   12DOPE  H17Y 1544   4.033   6.028  14.885 -0.2297 -1.2190 -0.9380
   12DOPE  C318 1545   4.122   6.137  15.048  0.3513 -0.0485 -0.7953
   12DOPE  H18X 1546   4.089   6.236  15.011  1.9696 -0.0601 -2.4103
   12DOPE  H18Y 1547   4.052   6.095  15.123  0.7124  2.3280  0.9984
   12DOPE  H18Z 1548   4.222   6.163  15.090  0.8536 -1.8137 -0.7931
   13DOPE     N 1549   3.346   7.549  16.907 -0.0031 -0.5879  0.3958
   13DOPE   HN1 1550   3.411   7.584  16.833 -0.2093  1.2735  1.0456
   13DOPE   HN2 1551   3.252   7.574  16.869 -0.3319 -4.2080 -1.6340
   13DOPE   HN3 1552   3.371   7.595  16.996 -0.2489  1.1315 -0.3767
   13DOPE   C12 1553   3.368   7.401  16.927  0.7347 -0.9000 -0.0126
   13DOPE  H12A 1554   3.271   7.347  16.925  1.6489 -2.6393  0.0878
   13DOPE  H12B 1555   3.427   7.379  17.019  1.6065 -1.0687 -0.6006
   13DOPE   C11 1556   3.446   7.347  16.813 -0.5050 -0.1425  0.3661
   13DOPE  H11A 1557   3.392   7.353  16.716  1.5247 -2.8346 -1.0729
   13DOPE  H11B 1558   3.453   7.236  16.824  1.0224 -0.0308  0.8067
   13DOPE     P 1559   3.703   7.349  16.879 -0.1315 -0.7031 -0.0913
   13DOPE   O13 1560   3.667   7.289  17.006 -0.6345  0.0007 -0.2120
   13DOPE   O14 1561   3.801   7.459  16.896 -0.3747 -0.2344  0.6077
   13DOPE   O11 1562   3.764   7.240  16.783  0.4856 -0.2727  0.0829
   13DOPE   O12 1563   3.576   7.407  16.800 -0.3542 -0.2361  0.5613
   13DOPE    C1 1564   3.799   7.265  16.643  0.3826 -0.2645  0.3946
   13DOPE    HA 1565   3.884   7.200  16.613  0.3006 -1.4069  2.4439
   13DOPE    HB 1566   3.831   7.368  16.618  0.3452 -0.8134 -2.2335
   13DOPE    C2 1567   3.673   7.237  16.556 -0.3307 -0.5200  0.0649
   13DOPE    HS 1568   3.592   7.297  16.601  0.0753  1.6126 -1.8364
   13DOPE   O21 1569   3.642   7.099  16.566 -0.2530 -0.3320  0.3089
   13DOPE   C21 1570   3.529   7.052  16.509 -0.6209 -1.0233 -0.6846
   13DOPE   O22 1571   3.437   7.123  16.477  0.2370  0.1933  0.1226
   13DOPE   C22 1572   3.526   6.907  16.491 -0.6685 -0.3889 -0.8004
   13DOPE   H2R 1573   3.568   6.870  16.587 -1.2256 -0.1936 -0.4787
   13DOPE   H2S 1574   3.594   6.879  16.408  0.9364 -1.0229  0.6642
   13DOPE    C3 1575   3.683   7.285  16.404  0.3978 -0.0132  0.2916
   13DOPE    HX 1576   3.687   7.396  16.408  0.9386  0.0292 -0.9203
   13DOPE    HY 1577   3.601   7.262  16.333  2.2788 -1.8498 -1.4083
   13DOPE   O31 1578   3.815   7.256  16.353 -0.9558 -0.1349 -0.7087
   13DOPE   C31 1579   3.814   7.143  16.287 -0.2915 -0.0806  0.2670
   13DOPE   O32 1580   3.719   7.076  16.258  0.1353  0.8591  0.0494
   13DOPE   C32 1581   3.960   7.103  16.251 -0.6011  0.5675 -0.2269
   13DOPE   H2X 1582   4.026   7.183  16.292 -0.8227  1.3570 -1.3740
   13DOPE   H2Y 1583   3.987   7.002  16.290 -1.6118  0.8312  1.2539
   13DOPE   C23 1584   3.384   6.847  16.467  0.1976 -0.3743  0.5253
   13DOPE   H3R 1585   3.317   6.881  16.549 -0.0538 -1.7704  0.9303
   13DOPE   H3S 1586   3.397   6.737  16.478 -0.4216 -0.4502  0.5326
   13DOPE   C24 1587   3.320   6.873  16.326 -0.0632  0.4607 -0.0193
   13DOPE   H4R 1588   3.350   6.973  16.288 -0.4375  0.1849 -1.0784
   13DOPE   H4S 1589   3.212   6.892  16.343 -0.5857 -2.3510  0.3118
   13DOPE   C25 1590   3.338   6.755  16.231  0.7151  0.1071 -0.6210
   13DOPE   H5R 1591   3.277   6.677  16.282  0.0804  1.4644  0.7681
   13DOPE   H5S 1592   3.443   6.719  16.225 -0.2483 -2.7928 -2.3998
   13DOPE   C26 1593   3.284   6.788  16.090 -0.3132 -0.6665 -0.2961
   13DOPE   H6R 1594   3.367   6.848  16.046 -2.2598  1.4378 -1.2766
   13DOPE   H6S 1595   3.201   6.860  16.101  0.0502 -0.2637 -0.1439
   13DOPE   C27 1596   3.235   6.671  15.999  0.6043  0.5798  0.3767
   13DOPE   H7R 1597   3.182   6.603  16.069  1.6958 -0.7997 -0.0881
   13DOPE   H7S 1598   3.331   6.627  15.965 -0.1278  0.4686 -1.6675
   13DOPE   C28 1599   3.141   6.706  15.887 -0.2707 -0.2259  0.6364
   13DOPE   H8R 1600   3.182   6.783  15.818 -0.6435 -1.0435 -0.5321
   13DOPE   H8S 1601   3.051   6.754  15.930  0.3873  0.3528  1.4122
   13DOPE   C29 1602   3.110   6.581  15.809 -0.3893  1.5291  0.2726
   13DOPE   H9R 1603   3.121   6.485  15.862 -1.8947  1.6099  0.7862
   13DOPE  C210 1604   3.103   6.563  15.677 -0.7948 -0.2335  0.6168
   13DOPE  H10R 1605   3.080   6.461  15.642  0.2542 -0.2751  0.0291
   13DOPE  C211 1606   3.110   6.677  15.572 -0.3444  0.2976  0.3103
   13DOPE  H11R 1607   3.096   6.778  15.617 -1.6870  0.3270 -0.1510
   13DOPE  H11S 1608   3.027   6.671  15.498 -2.6167  0.6491  2.7002
   13DOPE  C212 1609   3.250   6.692  15.502 -0.2314  0.3496  0.6945
   13DOPE  H12R 1610   3.230   6.759  15.416 -0.8057 -0.8224 -0.1176
   13DOPE  H12S 1611   3.300   6.600  15.464  0.7595  1.4819 -0.8971
   13DOPE  C213 1612   3.349   6.765  15.591  0.0336 -0.5246  0.3011
   13DOPE  H13R 1613   3.374   6.708  15.683 -0.7068  1.8450  2.0709
   13DOPE  H13S 1614   3.309   6.867  15.607  0.4016  0.2281 -2.8480
   13DOPE  C214 1615   3.486   6.781  15.514  0.3846 -0.0391 -0.0714
   13DOPE  H14R 1616   3.468   6.811  15.409 -0.1288  2.3229  0.6332
   13DOPE  H14S 1617   3.528   6.678  15.506  0.2058 -0.1401  0.2240
   13DOPE  C215 1618   3.586   6.886  15.572 -0.3226 -0.6545  0.3189
   13DOPE  H15R 1619   3.537   6.984  15.550 -0.9836 -0.9581  0.4062
   13DOPE  H15S 1620   3.687   6.879  15.528 -0.4900  0.1338 -0.2102
   13DOPE  C216 1621   3.575   6.898  15.721 -0.7699  0.2160  0.6812
   13DOPE  H16R 1622   3.609   6.803  15.769  1.5084  0.8262  0.3378
   13DOPE  H16S 1623   3.474   6.926  15.760 -0.9004 -0.6628  1.0171
   13DOPE  C217 1624   3.667   7.008  15.779  0.2253 -0.3758  0.1495
   13DOPE  H17R 1625   3.674   7.089  15.703 -1.5954 -2.3713 -2.3187
   13DOPE  H17S 1626   3.766   6.957  15.783 -0.6345 -2.0542  0.9167
   13DOPE  C218 1627   3.624   7.046  15.922 -0.7157  0.1935 -0.0615
   13DOPE  H18R 1628   3.525   7.097  15.916 -1.0381 -0.1572  1.6934
   13DOPE  H18S 1629   3.701   7.104  15.977 -2.5309  0.7828  1.9856
   13DOPE  H18T 1630   3.606   6.953  15.981  0.1434  0.1459  0.1316
   13DOPE   C33 1631   4.002   7.083  16.102 -0.0903  0.2302  0.4543
   13DOPE   H3X 1632   3.939   7.019  16.038  4.1184 -3.0298 -0.9032
   13DOPE   H3Y 1633   4.102   7.035  16.116 -0.2199 -0.1347  0.1198
   13DOPE   C34 1634   4.022   7.215  16.026 -1.1768 -0.5770 -0.0852
   13DOPE   H4X 1635   3.926   7.265  15.999  0.4481  2.6706 -0.2961
   13DOPE   H4Y 1636   4.073   7.286  16.095 -1.9212 -0.4230  0.3189
   13DOPE   C35 1637   4.098   7.192  15.890  0.2556 -0.3639 -0.3365
   13DOPE   H5X 1638   4.192   7.136  15.911  0.2759 -0.3640 -0.4248
   13DOPE   H5Y 1639   4.129   7.293  15.856  1.7636 -0.3768  0.8930
   13DOPE   C36 1640   4.013   7.124  15.777  0.2628  0.6171  0.3353
   13DOPE   H6X 1641   3.912   7.170  15.766 -0.2894 -0.2658  1.5233
   13DOPE   H6Y 1642   3.991   7.025  15.822  1.7455 -0.4401 -1.1653
   13DOPE   C37 1643   4.088   7.095  15.637 -0.1712 -0.3883  0.1393
   13DOPE   H7X 1644   4.149   7.180  15.601 -1.3232  0.1986 -0.4917
   13DOPE   H7Y 1645   4.162   7.015  15.658 -1.3637 -2.1773 -2.0565
   13DOPE   C38 1646   3.994   7.037  15.528  0.3249 -0.1534  0.3821
   13DOPE   H8X 1647   3.933   7.127  15.504 -0.0027 -0.1769  1.0830
   13DOPE   H8Y 1648   3.933   6.956  15.573 -0.6180  0.3786  0.1101
   13DOPE   C39 1649   4.075   6.998  15.408  0.0033 -0.0677  0.4158
   13DOPE   H9X 1650   4.165   7.060  15.400 -0.9944  1.5364  1.0124
   13DOPE  C310 1651   4.048   6.901  15.325 -0.7382  0.3279  0.0573
   13DOPE  H10X 1652   4.113   6.897  15.237 -0.1831  2.5854  0.2784
   13DOPE  C311 1653   3.935   6.805  15.328  0.0415 -0.0713 -0.4519
   13DOPE  H11X 1654   3.965   6.711  15.276  0.3332  1.4767 -3.2621
   13DOPE  H11Y 1655   3.890   6.790  15.428  3.0254  1.7438  1.3015
   13DOPE  C312 1656   3.828   6.871  15.244  0.1095  0.1030 -0.5468
   13DOPE  H12X 1657   3.813   6.979  15.265  0.1292  0.2475 -1.2436
   13DOPE  H12Y 1658   3.729   6.833  15.278 -0.0716  2.4342  1.7866
   13DOPE  C313 1659   3.826   6.838  15.095 -0.0569  0.9476  0.6712
   13DOPE  H13X 1660   3.910   6.896  15.053  0.0429  1.0842  1.0552
   13DOPE  H13Y 1661   3.847   6.730  15.080 -2.0036  0.7292 -0.8421
   13DOPE  C314 1662   3.700   6.885  15.024 -0.2589  0.0180 -1.0066
   13DOPE  H14X 1663   3.662   6.976  15.075  1.8379  0.5893 -0.3341
   13DOPE  H14Y 1664   3.617   6.821  15.060 -1.1671  1.3623 -0.6423
   13DOPE  C315 1665   3.712   6.908  14.875  0.3261  0.7190  0.1742
   13DOPE  H15X 1666   3.790   6.981  14.845  0.6031  0.5089  0.3844
   13DOPE  H15Y 1667   3.620   6.952  14.831 -0.2706 -0.2302  0.4519
   13DOPE  C316 1668   3.747   6.776  14.794 -0.0822  0.2895 -0.4250
   13DOPE  H16X 1669   3.670   6.700  14.816  1.7572 -1.7207 -0.5675
   13DOPE  H16Y 1670   3.834   6.722  14.837  0.6214  1.6354 -0.1042
   13DOPE  C317 1671   3.750   6.793  14.640 -0.5097 -0.2066  0.7918
   13DOPE  H17X 1672   3.650   6.822  14.600 -0.5970 -2.2614 -0.6320
   13DOPE  H17Y 1673   3.834   6.863  14.618  0.4418 -1.7897 -0.9160
   13DOPE  C318 1674   3.789   6.673  14.556 -0.3733  0.2700  0.0943
   13DOPE  H18X 1675   3.802   6.708  14.451 -0.2232  0.2760  0.1132
   13DOPE  H18Y 1676   3.879   6.618  14.591 -0.7245 -1.0665 -1.0164
   13DOPE  H18Z 1677   3.701   6.606  14.553 -0.0445 -0.1882  0.5895
   14DOPE     N 1678   7.429   3.347  17.005 -0.0259  0.2318  0.6529
   14DOPE   HN1 1679   7.390   3.256  17.037 -0.6385 -0.0792 -0.9016
   14DOPE   HN2 1680   7.527   3.359  17.039 -0.0363 -1.2033  1.2842
   14DOPE   HN3 1681   7.383   3.430  17.046  0.6080  0.1057  1.6505
   14DOPE   C12 1682   7.434   3.350  16.855  0.3359  0.4339  0.2400
   14DOPE  H12A 1683   7.540   3.368  16.825  0.2407 -0.9967 -1.0825
   14DOPE  H12B 1684   7.382   3.442  16.822  0.6220  0.0716 -1.2938
   14DOPE   C11 1685   7.357   3.234  16.797  0.1378  0.1695 -0.0596
   14DOPE  H11A 1686   7.379   3.224  16.689  1.8054  0.3132  0.2324
   14DOPE  H11B 1687   7.248   3.243  16.817 -0.7233 -4.7384 -1.0748
   14DOPE     P 1688   7.516   3.020  16.831 -0.4714 -0.3676  0.1378
   14DOPE   O13 1689   7.492   2.885  16.894 -0.6172  0.3044 -0.2045
   14DOPE   O14 1690   7.625   3.106  16.886 -0.4412 -0.7099  0.3606
   14DOPE   O11 1691   7.518   3.006  16.674 -0.7414 -0.0504 -0.5461
   14DOPE   O12 1692   7.384   3.103  16.850  0.2395  0.0674  0.1669
   14DOPE    C1 1693   7.636   3.023  16.596 -0.1514  0.1802  0.1708
   14DOPE    HA 1694   7.617   2.957  16.508  1.7942 -0.0176 -0.1473
   14DOPE    HB 1695   7.730   2.996  16.650  0.1129  1.7754  0.5435
   14DOPE    C2 1696   7.650   3.161  16.529  0.1765 -0.2078 -0.5250
   14DOPE    HS 1697   7.668   3.231  16.612 -0.7962 -1.4058  0.7477
   14DOPE   O21 1698   7.523   3.188  16.456 -0.1098  0.4639 -0.7165
   14DOPE   C21 1699   7.494   3.319  16.438 -0.3828  0.5497  0.0372
   14DOPE   O22 1700   7.550   3.405  16.501  0.3793 -0.3176  0.2207
   14DOPE   C22 1701   7.380   3.332  16.344  0.6487 -0.9799 -0.1633
   14DOPE   H2R 1702   7.303   3.260  16.379  0.1283 -0.1484  0.4164
   14DOPE   H2S 1703   7.406   3.306  16.239  2.2476 -2.1142  0.4659
   14DOPE    C3 1704   7.769   3.164  16.436  0.1176 -0.0053 -0.3280
   14DOPE    HX 1705   7.860   3.149  16.498 -0.8572  0.7145  1.3577
   14DOPE    HY 1706   7.785   3.266  16.395  1.5214  0.9500  2.3841
   14DOPE   O31 1707   7.762   3.063  16.333 -0.6986  0.0027  0.0698
   14DOPE   C31 1708   7.728   3.111  16.217  0.1824  0.1815 -0.0396
   14DOPE   O32 1709   7.691   3.226  16.198 -0.5905 -0.1456  0.5953
   14DOPE   C32 1710   7.744   3.005  16.107  0.6140  0.3538  0.4322
   14DOPE   H2X 1711   7.769   2.909  16.157  3.5674  1.0444  0.4370
   14DOPE   H2Y 1712   7.646   2.988  16.058  1.4232  0.1688 -1.2033
   14DOPE   C23 1713   7.327   3.481  16.350 -0.1466 -0.5420  0.1983
   14DOPE   H3R 1714   7.326   3.533  16.448  0.4898 -0.5172  0.1964
   14DOPE   H3S 1715   7.222   3.490  16.314  0.3539 -1.5222 -1.6187
   14DOPE   C24 1716   7.410   3.572  16.255  0.0882  0.0389  0.0216
   14DOPE   H4R 1717   7.482   3.518  16.190  0.6855  2.4216 -1.4305
   14DOPE   H4S 1718   7.470   3.642  16.317 -2.1888  1.7797  0.4027
   14DOPE   C25 1719   7.329   3.655  16.150 -0.6792 -0.7816 -0.5168
   14DOPE   H5R 1720   7.401   3.713  16.087  0.8538 -2.2987 -0.2186
   14DOPE   H5S 1721   7.260   3.724  16.204  1.0591  0.9182 -0.3538
   14DOPE   C26 1722   7.265   3.569  16.043 -0.4652 -0.1592 -0.6474
   14DOPE   H6R 1723   7.215   3.491  16.104  1.9387 -0.3585  1.2413
   14DOPE   H6S 1724   7.348   3.527  15.982 -1.0008  2.3466 -3.3063
   14DOPE   C27 1725   7.168   3.633  15.957 -0.4395 -0.3894  0.3639
   14DOPE   H7R 1726   7.210   3.721  15.904  0.1085 -0.6743  0.3186
   14DOPE   H7S 1727   7.081   3.673  16.014 -1.1089 -0.4213 -0.6209
   14DOPE   C28 1728   7.100   3.536  15.854  0.5368 -0.5777 -1.0070
   14DOPE   H8R 1729   7.017   3.600  15.818  0.2748 -0.7980 -0.7924
   14DOPE   H8S 1730   7.061   3.441  15.896  1.6507 -0.9560 -0.7727
   14DOPE   C29 1731   7.184   3.498  15.734  0.4380  0.6351 -0.0719
   14DOPE   H9R 1732   7.292   3.496  15.754  0.6091 -1.2810 -0.9512
   14DOPE  C210 1733   7.152   3.487  15.608  0.9704  0.9660 -0.4106
   14DOPE  H10R 1734   7.231   3.449  15.543  1.9860  0.3192  1.1543
   14DOPE  C211 1735   7.012   3.518  15.553 -0.0014 -0.5894  0.2264
   14DOPE  H11R 1736   6.937   3.503  15.633 -1.7307  2.5533 -0.6485
   14DOPE  H11S 1737   6.998   3.449  15.467  1.2199 -1.6639  0.8462
   14DOPE  C212 1738   6.993   3.654  15.482  0.0457 -0.5145 -0.0769
   14DOPE  H12R 1739   7.068   3.669  15.401  0.1712  1.9729  0.3991
   14DOPE  H12S 1740   7.011   3.742  15.547  1.2037 -0.7647 -0.0410
   14DOPE  C213 1741   6.848   3.687  15.435  0.2488 -0.0960  0.3365
   14DOPE  H13R 1742   6.776   3.657  15.515  2.5236 -2.2041  1.7535
   14DOPE  H13S 1743   6.842   3.627  15.342  0.9528  0.9859 -0.4307
   14DOPE  C214 1744   6.832   3.831  15.400 -0.3391 -0.0487  0.4828
   14DOPE  H14R 1745   6.910   3.853  15.325  0.3786 -0.1569  1.1849
   14DOPE  H14S 1746   6.873   3.884  15.489 -0.5798 -1.0394  1.2082
   14DOPE  C215 1747   6.692   3.878  15.345  0.2812 -0.4397 -0.2344
   14DOPE  H15R 1748   6.621   3.841  15.422 -2.0178  1.6540 -1.1954
   14DOPE  H15S 1749   6.668   3.823  15.251 -1.9587  0.4713 -0.2604
   14DOPE  C216 1750   6.685   4.030  15.312  0.6567  0.6799  0.4918
   14DOPE  H16R 1751   6.616   4.053  15.229 -0.8627  0.3927  1.6416
   14DOPE  H16S 1752   6.781   4.057  15.263  0.1069  0.3425 -0.8237
   14DOPE  C217 1753   6.655   4.115  15.439  0.5535  0.7062  0.2466
   14DOPE  H17R 1754   6.732   4.085  15.513  0.0350 -0.5419  0.3071
   14DOPE  H17S 1755   6.556   4.078  15.472  0.5266 -0.1051 -0.7051
   14DOPE  C218 1756   6.659   4.263  15.408 -0.1619  0.8116 -0.2196
   14DOPE  H18R 1757   6.650   4.322  15.502 -1.8936 -0.8150  0.7030
   14DOPE  H18S 1758   6.591   4.286  15.323  1.5946 -3.6407 -3.1879
   14DOPE  H18T 1759   6.762   4.284  15.373  1.0533 -2.7295  0.8520
   14DOPE   C33 1760   7.854   3.029  15.995  0.0601 -0.0471 -0.4616
   14DOPE   H3X 1761   7.949   3.060  16.044 -0.6999 -1.2604  1.9586
   14DOPE   H3Y 1762   7.835   3.120  15.934 -0.7253  0.7895  0.9748
   14DOPE   C34 1763   7.884   2.896  15.916  0.0254 -0.4129  0.4094
   14DOPE   H4X 1764   7.875   2.804  15.977 -1.4042 -1.5605 -1.4380
   14DOPE   H4Y 1765   7.809   2.875  15.837  1.7259 -0.9544 -1.1504
   14DOPE   C35 1766   8.018   2.897  15.838 -0.0961  0.3440 -0.4374
   14DOPE   H5X 1767   8.099   2.879  15.913  0.8809  0.7568 -1.3642
   14DOPE   H5Y 1768   8.034   2.999  15.798 -2.0175  1.3697  1.2178
   14DOPE   C36 1769   8.019   2.785  15.734  0.5164  0.6723  0.1597
   14DOPE   H6X 1770   7.965   2.824  15.645 -2.2021 -2.4717  0.2378
   14DOPE   H6Y 1771   7.965   2.694  15.769  1.9603 -0.1080  0.4184
   14DOPE   C37 1772   8.156   2.738  15.690 -0.5943  0.0483  0.7320
   14DOPE   H7X 1773   8.229   2.815  15.660 -0.1934 -1.1544 -1.5994
   14DOPE   H7Y 1774   8.204   2.698  15.782  1.0292  1.2769  0.4568
   14DOPE   C38 1775   8.144   2.634  15.577 -0.1954 -0.7411  0.0424
   14DOPE   H8X 1776   8.086   2.686  15.498 -2.5884 -0.3488  1.9389
   14DOPE   H8Y 1777   8.086   2.549  15.620  0.2456 -1.8285 -1.4488
   14DOPE   C39 1778   8.282   2.590  15.535  0.6028  0.0684  0.2573
   14DOPE   H9X 1779   8.323   2.641  15.446 -0.6271  3.8840  1.6534
   14DOPE  C310 1780   8.349   2.487  15.593 -0.4906 -0.6100  0.5286
   14DOPE  H10X 1781   8.445   2.460  15.548 -0.6603  3.1675 -2.6765
   14DOPE  C311 1782   8.303   2.405  15.709  0.0243 -0.5194 -0.2392
   14DOPE  H11X 1783   8.393   2.384  15.770  0.3282  1.5795  0.1211
   14DOPE  H11Y 1784   8.228   2.461  15.769 -0.4390 -2.2405  0.8257
   14DOPE  C312 1785   8.240   2.277  15.650  0.1331  0.2118  0.0979
   14DOPE  H12X 1786   8.308   2.204  15.600 -0.4547  0.1724 -0.6460
   14DOPE  H12Y 1787   8.176   2.310  15.566  0.7557  1.8215  0.2150
   14DOPE  C313 1788   8.151   2.204  15.760 -0.0113  0.0234  0.0760
   14DOPE  H13X 1789   8.208   2.163  15.846 -1.3031 -0.9036  0.5240
   14DOPE  H13Y 1790   8.075   2.278  15.795  1.6590  2.0457 -0.3542
   14DOPE  C314 1791   8.088   2.082  15.693  0.7589  0.3193 -0.1376
   14DOPE  H14X 1792   8.080   2.106  15.585  1.2303  1.3608  0.0442
   14DOPE  H14Y 1793   7.982   2.066  15.723  1.8595 -1.8192  3.1614
   14DOPE  C315 1794   8.166   1.953  15.708  0.4360  0.4823  0.0831
   14DOPE  H15X 1795   8.090   1.875  15.687  0.5783 -0.1482  1.7228
   14DOPE  H15Y 1796   8.198   1.942  15.814 -1.2252 -1.6342  0.4218
   14DOPE  C316 1797   8.296   1.936  15.628  0.3499  0.4383  0.3037
   14DOPE  H16X 1798   8.363   2.018  15.664  1.3846 -0.5318  0.6367
   14DOPE  H16Y 1799   8.267   1.949  15.522 -0.5136  0.2026  0.4976
   14DOPE  C317 1800   8.359   1.800  15.651  0.6674 -0.1541  0.0155
   14DOPE  H17X 1801   8.394   1.787  15.756  3.2233 -1.7114 -0.9305
   14DOPE  H17Y 1802   8.281   1.729  15.617 -0.4289  1.5277 -1.2078
   14DOPE  C318 1803   8.483   1.790  15.564  0.5203  0.3023  0.1592
   14DOPE  H18X 1804   8.462   1.783  15.455 -1.1461  0.3302  0.4513
   14DOPE  H18Y 1805   8.537   1.886  15.579 -1.7043  1.6077  0.3082
   14DOPE  H18Z 1806   8.542   1.699  15.589 -1.4240 -1.3262 -0.9557
   15DOPE     N 1807   1.268   0.640  16.990 -0.1629  0.1533  0.5950
   15DOPE   HN1 1808   1.350   0.674  16.937  2.0564 -1.3591  2.8514
   15DOPE   HN2 1809   1.183   0.670  16.937 -1.9678 -1.9210  2.1002
   15DOPE   HN3 1810   1.271   0.677  17.087  2.5537  0.4653  0.4753
   15DOPE   C12 1811   1.266   0.490  16.992  0.5312 -0.5791  0.0098
   15DOPE  H12A 1812   1.160   0.455  16.994  0.7800 -1.3254  0.6336
   15DOPE  H12B 1813   1.315   0.448  17.083 -0.2934 -2.0306 -0.1933
   15DOPE   C11 1814   1.340   0.422  16.878  0.2775 -0.0922 -0.6985
   15DOPE  H11A 1815   1.270   0.389  16.799 -0.4163  1.1536 -0.6300
   15DOPE  H11B 1816   1.387   0.329  16.917  0.8578  0.4947  0.0233
   15DOPE     P 1817   1.582   0.466  16.795 -0.3522 -0.0891  0.2078
   15DOPE   O13 1818   1.627   0.382  16.909 -0.6917  0.0301 -0.4071
   15DOPE   O14 1819   1.657   0.589  16.772 -0.3523  0.2696  0.3639
   15DOPE   O11 1820   1.588   0.386  16.663  0.4843 -0.3241 -0.2234
   15DOPE   O12 1821   1.430   0.501  16.808 -0.5113  0.3611  0.4139
   15DOPE    C1 1822   1.530   0.455  16.549 -0.5796 -0.3908  0.4033
   15DOPE    HA 1823   1.434   0.509  16.566 -1.0720 -0.3354 -2.2156
   15DOPE    HB 1824   1.500   0.374  16.479 -3.2259 -0.3510  1.3580
   15DOPE    C2 1825   1.626   0.553  16.476  0.6461 -0.3293  0.1137
   15DOPE    HS 1826   1.651   0.635  16.547 -3.0454  0.7896  0.3688
   15DOPE   O21 1827   1.556   0.604  16.352 -0.2958  0.1990 -1.0273
   15DOPE   C21 1828   1.599   0.716  16.307 -0.1552 -0.3197 -0.1037
   15DOPE   O22 1829   1.665   0.805  16.357  0.0138  0.5179 -0.2155
   15DOPE   C22 1830   1.553   0.720  16.157 -1.0750 -0.0010 -0.2219
   15DOPE   H2R 1831   1.480   0.640  16.135  2.9748 -3.5235 -2.3210
   15DOPE   H2S 1832   1.640   0.697  16.091  0.1547  0.9105  1.0017
   15DOPE    C3 1833   1.754   0.477  16.438  0.2618 -0.1461 -0.6587
   15DOPE    HX 1834   1.739   0.396  16.362 -2.6720 -1.2332  0.9147
   15DOPE    HY 1835   1.800   0.426  16.525 -0.8948 -1.3563 -0.7338
   15DOPE   O31 1836   1.852   0.568  16.398 -0.4659 -0.2056  0.0068
   15DOPE   C31 1837   1.963   0.513  16.349  0.1407  1.4576  0.0252
   15DOPE   O32 1838   1.990   0.389  16.366  0.0586 -0.4476  0.5836
   15DOPE   C32 1839   2.036   0.608  16.267 -0.5782 -0.1932  0.9571
   15DOPE   H2X 1840   1.985   0.706  16.273 -1.1153 -0.3116 -1.1697
   15DOPE   H2Y 1841   2.141   0.614  16.306 -0.4971  0.2271  0.6687
   15DOPE   C23 1842   1.491   0.861  16.133 -0.2840  0.0935 -0.5278
   15DOPE   H3R 1843   1.562   0.946  16.142 -0.5079  0.2585 -0.3051
   15DOPE   H3S 1844   1.408   0.873  16.206  0.2217 -0.5960  0.1722
   15DOPE   C24 1845   1.414   0.866  16.001 -0.0781  0.8299 -0.3729
   15DOPE   H4R 1846   1.368   0.968  15.995  0.1398  1.0230  1.0803
   15DOPE   H4S 1847   1.333   0.790  16.008  0.2689  0.2737 -1.9572
   15DOPE   C25 1848   1.505   0.835  15.882 -0.0341  0.8269  0.2578
   15DOPE   H5R 1849   1.527   0.726  15.878 -2.0000  0.3831  0.3931
   15DOPE   H5S 1850   1.598   0.895  15.889  1.3006 -1.0776 -0.2334
   15DOPE   C26 1851   1.424   0.861  15.750  0.2854  0.6570 -0.1378
   15DOPE   H6R 1852   1.367   0.956  15.758  0.0526  0.3976  2.1101
   15DOPE   H6S 1853   1.339   0.789  15.745  1.2472 -0.4422 -1.5210
   15DOPE   C27 1854   1.498   0.850  15.612 -0.0564 -0.0929 -0.3415
   15DOPE   H7R 1855   1.563   0.761  15.601  0.4256  0.2987 -0.7118
   15DOPE   H7S 1856   1.569   0.936  15.609 -0.7221  0.5743  1.5612
   15DOPE   C28 1857   1.402   0.866  15.496 -0.4069 -0.0405  0.0733
   15DOPE   H8R 1858   1.351   0.965  15.501  1.3917  1.2127 -3.1904
   15DOPE   H8S 1859   1.336   0.782  15.528  0.5398 -2.4476 -3.5925
   15DOPE   C29 1860   1.445   0.828  15.360 -0.4409  0.4540 -0.2310
   15DOPE   H9R 1861   1.455   0.722  15.330 -0.9519  1.0033 -2.5246
   15DOPE  C210 1862   1.474   0.914  15.268  0.3171  0.2368 -0.1076
   15DOPE  H10R 1863   1.518   0.880  15.173  0.1930 -1.0392  0.2758
   15DOPE  C211 1864   1.461   1.063  15.282  0.1205 -0.3818 -0.0183
   15DOPE  H11R 1865   1.390   1.098  15.360  2.3338  2.6416  0.8200
   15DOPE  H11S 1866   1.423   1.114  15.191 -1.2285  2.3454  1.9231
   15DOPE  C212 1867   1.595   1.138  15.316 -0.4030  0.7253 -0.1258
   15DOPE  H12R 1868   1.644   1.108  15.411 -2.4968 -2.3958  0.1291
   15DOPE  H12S 1869   1.579   1.247  15.326 -0.8099  0.6846 -0.2915
   15DOPE  C213 1870   1.691   1.123  15.202 -0.4845  0.1990  0.4549
   15DOPE  H13R 1871   1.635   1.151  15.110 -1.6139 -0.4284  0.9239
   15DOPE  H13S 1872   1.723   1.017  15.206 -2.6352 -0.5018  0.7119
   15DOPE  C214 1873   1.810   1.217  15.204 -0.1523 -0.4487  1.0194
   15DOPE  H14R 1874   1.828   1.250  15.309 -1.2515  0.9847  0.7938
   15DOPE  H14S 1875   1.778   1.312  15.156 -0.5358 -1.8311 -1.6309
   15DOPE  C215 1876   1.936   1.161  15.132  0.4308  0.6099 -0.1927
   15DOPE  H15R 1877   1.964   1.061  15.173  0.5031  0.0688 -1.5089
   15DOPE  H15S 1878   2.028   1.222  15.148  0.4571  0.2164  1.2248
   15DOPE  C216 1879   1.935   1.144  14.978  0.7025 -0.0800 -0.3388
   15DOPE  H16R 1880   1.932   1.249  14.942  1.4871 -0.4044 -1.4290
   15DOPE  H16S 1881   1.850   1.083  14.941  0.7248 -0.0782 -0.3935
   15DOPE  C217 1882   2.065   1.079  14.943  0.3003  1.0399  0.7937
   15DOPE  H17R 1883   2.065   0.974  14.980  0.3506 -0.1176 -2.2177
   15DOPE  H17S 1884   2.156   1.127  14.984  2.3874 -0.6106 -1.5890
   15DOPE  C218 1885   2.089   1.081  14.789 -0.3031  0.2573  0.1641
   15DOPE  H18R 1886   2.166   1.005  14.764  0.9954  1.8585 -0.9313
   15DOPE  H18S 1887   2.119   1.179  14.746  0.2758  0.3424  0.7547
   15DOPE  H18T 1888   1.992   1.055  14.741 -0.2259  0.2789 -0.0032
   15DOPE   C33 1889   2.042   0.557  16.117  0.6336 -0.2451  0.0682
   15DOPE   H3X 1890   2.093   0.458  16.114  0.3479 -0.4375  1.1969
   15DOPE   H3Y 1891   2.107   0.629  16.063 -0.3074  0.8691  0.3866
   15DOPE   C34 1892   1.902   0.544  16.045  0.1386  0.3789  0.3677
   15DOPE   H4X 1893   1.840   0.631  16.076 -0.6422  0.0013 -0.0725
   15DOPE   H4Y 1894   1.915   0.557  15.935 -0.1878 -0.3084  0.2420
   15DOPE   C35 1895   1.835   0.404  16.076 -0.7653 -0.6496  0.3407
   15DOPE   H5X 1896   1.840   0.380  16.184 -2.0754 -0.1735  0.5302
   15DOPE   H5Y 1897   1.898   0.329  16.024  2.3211  0.8835  1.6165
   15DOPE   C36 1898   1.686   0.385  16.038 -0.1101 -0.0652  0.3819
   15DOPE   H6X 1899   1.632   0.438  16.119 -1.5562 -0.4324 -0.3221
   15DOPE   H6Y 1900   1.668   0.275  16.039  0.7106 -0.2091  0.3946
   15DOPE   C37 1901   1.641   0.439  15.905 -0.0397 -0.1761  0.1982
   15DOPE   H7X 1902   1.628   0.547  15.924 -0.2877 -0.1457 -0.1418
   15DOPE   H7Y 1903   1.711   0.413  15.822 -2.3704  0.4665 -2.0752
   15DOPE   C38 1904   1.499   0.379  15.865 -0.2029  0.4883  0.2636
   15DOPE   H8X 1905   1.431   0.407  15.948  0.1099  0.8065  0.4146
   15DOPE   H8Y 1906   1.497   0.273  15.831  1.2137  0.8889 -1.1775
   15DOPE   C39 1907   1.435   0.448  15.746 -0.9935 -0.4526 -0.7436
   15DOPE   H9X 1908   1.376   0.538  15.770  0.1747  0.3123 -0.6452
   15DOPE  C310 1909   1.458   0.427  15.615 -0.3547 -0.3108 -0.3659
   15DOPE  H10X 1910   1.420   0.504  15.546 -0.9012 -0.3589 -0.1201
   15DOPE  C311 1911   1.554   0.326  15.565  0.1072 -0.2013  0.4372
   15DOPE  H11X 1912   1.634   0.311  15.641  1.4007  0.5613 -0.7377
   15DOPE  H11Y 1913   1.500   0.229  15.556  0.3650 -0.2446 -0.7520
   15DOPE  C312 1914   1.613   0.362  15.426 -0.3114  0.0374 -0.7849
   15DOPE  H12X 1915   1.531   0.364  15.350 -1.8568 -1.8077  0.7384
   15DOPE  H12Y 1916   1.672   0.273  15.399  1.0665  0.0532  1.9141
   15DOPE  C313 1917   1.700   0.490  15.415 -0.2588 -0.2286 -0.3502
   15DOPE  H13X 1918   1.636   0.579  15.432  0.6404  0.2005  0.9483
   15DOPE  H13Y 1919   1.771   0.483  15.500 -0.1646 -0.2617 -0.4310
   15DOPE  C314 1920   1.779   0.522  15.279  0.0807  0.5281 -0.1782
   15DOPE  H14X 1921   1.711   0.507  15.192 -0.4145 -2.3004  0.5772
   15DOPE  H14Y 1922   1.851   0.443  15.250  0.0371  0.7258 -0.8519
   15DOPE  C315 1923   1.850   0.657  15.285  0.4305 -0.8788 -0.9599
   15DOPE  H15X 1924   1.911   0.666  15.377 -0.3934 -2.0524 -0.2796
   15DOPE  H15Y 1925   1.778   0.741  15.283 -0.0691 -1.2810 -0.1887
   15DOPE  C316 1926   1.935   0.685  15.158 -0.5773  0.5886  0.7929
   15DOPE  H16X 1927   1.978   0.785  15.176  1.2874 -0.3577  1.8845
   15DOPE  H16Y 1928   1.870   0.703  15.070  0.5298  0.4244 -0.0879
   15DOPE  C317 1929   2.044   0.584  15.123 -0.2172  0.1001  0.1650
   15DOPE  H17X 1930   2.131   0.637  15.080 -0.4584  0.8631  0.5928
   15DOPE  H17Y 1931   2.083   0.535  15.215  0.6657  1.7435  0.7070
   15DOPE  C318 1932   2.009   0.479  15.021  0.2951  0.2623  0.2421
   15DOPE  H18X 1933   1.982   0.530  14.925  3.4336  0.7255 -0.4821
   15DOPE  H18Y 1934   2.090   0.407  15.000 -1.2825 -1.4927 -0.0611
   15DOPE  H18Z 1935   1.926   0.414  15.055 -0.2316  0.1914 -1.0941
   16DOPE     N 1936   0.778   2.754  17.167  0.1643 -0.1718 -0.3381
   16DOPE   HN1 1937   0.759   2.856  17.159 -0.3813 -0.2444 -0.0125
   16DOPE   HN2 1938   0.740   2.715  17.078 -0.9523  1.7909 -0.7663
   16DOPE   HN3 1939   0.732   2.711  17.249 -0.0088  0.7830  0.0690
   16DOPE   C12 1940   0.925   2.733  17.176  0.4550 -0.5881  0.7538
   16DOPE  H12A 1941   0.940   2.635  17.228  1.8139 -0.7605  0.1013
   16DOPE  H12B 1942   0.980   2.802  17.244  1.5860 -0.5816 -0.1380
   16DOPE   C11 1943   1.001   2.740  17.037 -0.0800  1.0830  0.1908
   16DOPE  H11A 1944   0.953   2.652  16.989 -0.2906  1.4609 -0.2969
   16DOPE  H11B 1945   1.107   2.708  17.051 -0.0318  1.7219  1.4334
   16DOPE     P 1946   1.070   2.971  16.942 -0.0468 -0.4425  0.2692
   16DOPE   O13 1947   1.154   2.988  17.066  0.1778 -0.2144  0.6030
   16DOPE   O14 1948   1.005   3.097  16.886 -0.0635 -0.7668 -0.6747
   16DOPE   O11 1949   1.168   2.923  16.821  0.4034  0.0311 -0.1997
   16DOPE   O12 1950   0.967   2.852  16.951  0.0926 -0.1268  0.0496
   16DOPE    C1 1951   1.126   2.849  16.714  0.1596 -0.2096 -0.1746
   16DOPE    HA 1952   1.168   2.890  16.619  0.4435  1.3144  0.5717
   16DOPE    HB 1953   1.018   2.852  16.690  0.2913  2.3422 -0.7977
   16DOPE    C2 1954   1.168   2.697  16.733 -0.1609  0.3116 -0.2584
   16DOPE    HS 1955   1.141   2.678  16.839 -1.8871  1.8685 -0.3655
   16DOPE   O21 1956   1.307   2.678  16.701 -0.2208 -0.6517 -0.0937
   16DOPE   C21 1957   1.355   2.558  16.707  0.6134 -0.1997 -0.8144
   16DOPE   O22 1958   1.314   2.461  16.775 -0.0228 -0.5691 -0.3674
   16DOPE   C22 1959   1.485   2.550  16.628  0.9844 -0.1180 -0.3437
   16DOPE   H2R 1960   1.566   2.531  16.702  0.8061 -0.2510 -0.1813
   16DOPE   H2S 1961   1.499   2.645  16.573  1.1281 -1.4833 -2.8350
   16DOPE    C3 1962   1.072   2.612  16.652  0.0680 -0.1430  0.1258
   16DOPE    HX 1963   0.965   2.640  16.659 -0.4451 -1.4494 -1.6326
   16DOPE    HY 1964   1.077   2.510  16.696  0.3323  0.2094  0.9387
   16DOPE   O31 1965   1.110   2.595  16.513 -0.0611  0.2266  0.3398
   16DOPE   C31 1966   1.054   2.670  16.415 -0.3593 -0.5123  0.6815
   16DOPE   O32 1967   0.958   2.745  16.431  0.3024  0.0401 -0.3968
   16DOPE   C32 1968   1.134   2.629  16.291  0.5483 -0.2665 -0.1852
   16DOPE   H2X 1969   1.141   2.519  16.282 -0.3514 -0.4357  0.9402
   16DOPE   H2Y 1970   1.075   2.670  16.207  0.9094  0.1959 -0.2181
   16DOPE   C23 1971   1.495   2.431  16.525  0.0926 -0.5627 -0.7812
   16DOPE   H3R 1972   1.414   2.454  16.453 -0.3714  4.6172  0.9919
   16DOPE   H3S 1973   1.475   2.334  16.575  3.7200 -0.3773  1.3983
   16DOPE   C24 1974   1.627   2.407  16.455 -0.3307 -0.2237  0.0622
   16DOPE   H4R 1975   1.627   2.304  16.414 -0.1429  0.4223 -1.6328
   16DOPE   H4S 1976   1.708   2.429  16.528 -1.4827  2.5777  0.6353
   16DOPE   C25 1977   1.651   2.505  16.338 -0.3197  0.0386 -0.1682
   16DOPE   H5R 1978   1.590   2.598  16.349 -1.8721 -0.9848  0.1682
   16DOPE   H5S 1979   1.618   2.452  16.246  0.3705  1.1195 -1.0711
   16DOPE   C26 1980   1.801   2.540  16.325 -0.3692  0.4176 -0.4470
   16DOPE   H6R 1981   1.840   2.570  16.425 -0.3609  1.0842 -0.6457
   16DOPE   H6S 1982   1.789   2.634  16.268 -1.4343  0.5222 -0.0634
   16DOPE   C27 1983   1.889   2.445  16.242  0.3695 -0.1459  0.2527
   16DOPE   H7R 1984   1.826   2.419  16.154  0.6085  0.6965 -0.1754
   16DOPE   H7S 1985   1.912   2.353  16.300  0.4730 -0.0398  0.3811
   16DOPE   C28 1986   2.020   2.506  16.199  0.1815  0.0402 -0.7685
   16DOPE   H8R 1987   2.004   2.557  16.102 -1.8191 -0.0601 -0.5317
   16DOPE   H8S 1988   2.090   2.424  16.174 -0.1665 -0.8248  0.9282
   16DOPE   C29 1989   2.091   2.593  16.300 -0.3316 -0.3191 -0.0602
   16DOPE   H9R 1990   2.090   2.557  16.404  1.0038 -0.5428 -0.1065
   16DOPE  C210 1991   2.150   2.710  16.278 -0.2699  0.4934  0.1001
   16DOPE  H10R 1992   2.201   2.760  16.362 -0.0566  1.2391 -0.4584
   16DOPE  C211 1993   2.176   2.772  16.142  0.8510 -0.1071 -0.1281
   16DOPE  H11R 1994   2.242   2.862  16.142  1.4908 -0.5189 -1.9980
   16DOPE  H11S 1995   2.078   2.792  16.094  0.3867 -0.9956  0.4225
   16DOPE  C212 1996   2.255   2.686  16.044 -0.1756 -0.2898 -0.2471
   16DOPE  H12R 1997   2.232   2.577  16.050  5.0929 -1.6569  0.5114
   16DOPE  H12S 1998   2.366   2.688  16.056  0.0573 -4.0224 -0.3147
   16DOPE  C213 1999   2.218   2.728  15.899  0.2089  0.0966 -0.3564
   16DOPE  H13R 2000   2.231   2.838  15.885  0.5409  0.4113  2.0627
   16DOPE  H13S 2001   2.110   2.706  15.883  0.4851 -0.1310 -2.1381
   16DOPE  C214 2002   2.294   2.652  15.786  0.5041 -0.0979  0.5060
   16DOPE  H14R 2003   2.262   2.545  15.785 -0.3284  0.1394  0.7040
   16DOPE  H14S 2004   2.401   2.675  15.804  0.1388  5.7080 -2.6163
   16DOPE  C215 2005   2.259   2.724  15.653 -0.2166 -0.4949  1.1706
   16DOPE  H15R 2006   2.262   2.835  15.651  1.9055 -0.5095 -1.1192
   16DOPE  H15S 2007   2.153   2.710  15.625 -0.3169  0.9089  0.7825
   16DOPE  C216 2008   2.330   2.662  15.529 -0.3396 -0.2908 -0.8058
   16DOPE  H16R 2009   2.330   2.553  15.547 -0.2242 -0.0210  0.9824
   16DOPE  H16S 2010   2.430   2.708  15.509 -1.8379  2.0901 -3.7409
   16DOPE  C217 2011   2.256   2.679  15.400  1.2168  0.1147  0.5979
   16DOPE  H17R 2012   2.154   2.643  15.425  2.2518 -3.6598 -0.0945
   16DOPE  H17S 2013   2.294   2.603  15.328 -0.7645 -0.1035 -0.2659
   16DOPE  C218 2014   2.260   2.825  15.346  0.8338 -0.0429 -0.4052
   16DOPE  H18R 2015   2.195   2.828  15.256  2.5793  2.2216 -1.7033
   16DOPE  H18S 2016   2.363   2.855  15.320  1.0020 -0.3724 -0.1238
   16DOPE  H18T 2017   2.223   2.892  15.428 -0.2196 -0.1430 -0.7825
   16DOPE   C33 2018   1.265   2.711  16.282  0.1462 -0.3815  0.4522
   16DOPE   H3X 2019   1.320   2.703  16.378 -0.0018  0.5510  0.6235
   16DOPE   H3Y 2020   1.235   2.817  16.268  0.9417 -0.3894 -1.7336
   16DOPE   C34 2021   1.365   2.663  16.177  0.2829 -0.0959 -0.0644
   16DOPE   H4X 2022   1.432   2.750  16.159 -0.9148  0.6491 -1.1129
   16DOPE   H4Y 2023   1.414   2.572  16.219 -0.8609  0.3211  2.3475
   16DOPE   C35 2024   1.299   2.631  16.041 -0.3189  0.8864  0.4447
   16DOPE   H5X 2025   1.240   2.720  16.011 -1.8557 -0.7693 -1.7128
   16DOPE   H5Y 2026   1.218   2.558  16.060 -0.6412  0.3460 -2.4863
   16DOPE   C36 2027   1.398   2.598  15.928 -0.1390  0.3897 -0.2032
   16DOPE   H6X 2028   1.468   2.685  15.926  1.8218 -1.1081 -0.1826
   16DOPE   H6Y 2029   1.334   2.584  15.839 -1.7051  2.0609  0.6091
   16DOPE   C37 2030   1.494   2.484  15.960 -0.2298  0.3855  0.1187
   16DOPE   H7X 2031   1.548   2.502  16.055 -0.7041  1.0992  0.2650
   16DOPE   H7Y 2032   1.425   2.403  15.992  1.4591 -0.3564  2.0680
   16DOPE   C38 2033   1.582   2.433  15.850 -0.1021 -0.5201  0.1618
   16DOPE   H8X 2034   1.529   2.375  15.771 -1.6197  0.7371  0.2058
   16DOPE   H8Y 2035   1.652   2.364  15.902  1.1746  1.0826  0.6617
   16DOPE   C39 2036   1.642   2.554  15.781 -0.4518  0.4256 -0.7276
   16DOPE   H9X 2037   1.719   2.602  15.842  0.2939 -2.6178  0.9329
   16DOPE  C310 2038   1.618   2.600  15.660  0.2038 -0.4406 -0.0175
   16DOPE  H10X 2039   1.673   2.691  15.633  1.2349 -0.9157  0.4165
   16DOPE  C311 2040   1.529   2.537  15.558  0.3255 -0.3325  0.6788
   16DOPE  H11X 2041   1.571   2.442  15.519  2.0866  0.8538 -0.4896
   16DOPE  H11Y 2042   1.433   2.504  15.603 -0.6530  1.0719 -0.2489
   16DOPE  C312 2043   1.501   2.634  15.440  0.5575  0.4725  0.4722
   16DOPE  H12X 2044   1.587   2.686  15.392 -0.2825 -0.0874 -1.7975
   16DOPE  H12Y 2045   1.436   2.713  15.484 -1.5919 -0.5486 -0.7124
   16DOPE  C313 2046   1.406   2.579  15.334  0.3036  0.0391 -0.3576
   16DOPE  H13X 2047   1.332   2.519  15.391  1.5267  0.2030  1.4732
   16DOPE  H13Y 2048   1.366   2.663  15.273 -0.2658 -0.2225 -0.3539
   16DOPE  C314 2049   1.478   2.495  15.225  0.2700  0.6086  0.4595
   16DOPE  H14X 2050   1.525   2.402  15.263 -1.2256 -0.5711 -0.4405
   16DOPE  H14Y 2051   1.568   2.550  15.191  0.8440 -1.0068 -0.7713
   16DOPE  C315 2052   1.393   2.458  15.104 -0.4583 -0.6047 -0.1439
   16DOPE  H15X 2053   1.444   2.392  15.030 -0.0901 -0.1572 -0.2953
   16DOPE  H15Y 2054   1.365   2.553  15.054 -0.0129 -0.6496 -0.4839
   16DOPE  C316 2055   1.266   2.381  15.146 -0.5269  0.4136  0.0486
   16DOPE  H16X 2056   1.215   2.426  15.234 -0.9577 -0.8958  0.4908
   16DOPE  H16Y 2057   1.305   2.285  15.188  0.7812  0.5612 -0.7669
   16DOPE  C317 2058   1.165   2.357  15.035  0.0144  1.0056 -0.7930
   16DOPE  H17X 2059   1.201   2.279  14.965  0.8406  2.4354 -2.0059
   16DOPE  H17Y 2060   1.091   2.293  15.089  0.2632 -0.2693 -1.9118
   16DOPE  C318 2061   1.108   2.478  14.970  0.3725 -0.1211  0.1269
   16DOPE  H18X 2062   1.068   2.543  15.051  1.1000  2.2457 -1.2919
   16DOPE  H18Y 2063   1.177   2.542  14.911  0.1459 -1.0968 -1.2477
   16DOPE  H18Z 2064   1.023   2.454  14.903 -0.6303  0.5856  1.1155
   17DOPE     N 2065   2.859   4.716  17.054  0.3358 -0.0356 -0.9566
   17DOPE   HN1 2066   2.913   4.629  17.075  1.3042  0.1607 -2.4869
   17DOPE   HN2 2067   2.923   4.789  17.091  0.9122 -1.0100  0.0646
   17DOPE   HN3 2068   2.774   4.725  17.112  1.6876 -2.4161  1.6503
   17DOPE   C12 2069   2.848   4.743  16.907  0.1688  0.1198  0.0268
   17DOPE  H12A 2070   2.781   4.669  16.858  0.5867 -0.8828  0.9239
   17DOPE  H12B 2071   2.945   4.732  16.853 -0.1576 -0.9460 -0.3713
   17DOPE   C11 2072   2.791   4.885  16.881 -0.4710  0.2265  0.4771
   17DOPE  H11A 2073   2.692   4.891  16.931  0.0224 -1.3020  1.6857
   17DOPE  H11B 2074   2.795   4.906  16.771  1.6336 -0.6975  0.3317
   17DOPE     P 2075   2.862   5.124  16.929  0.1040 -0.1727  0.0564
   17DOPE   O13 2076   2.988   5.193  16.907 -0.6158 -0.2805  0.0616
   17DOPE   O14 2077   2.783   5.162  17.052 -0.1066  0.1490  0.6309
   17DOPE   O11 2078   2.766   5.148  16.812  0.6377  0.5578 -0.8318
   17DOPE   O12 2079   2.885   4.974  16.928 -0.0313  0.4525  0.0007
   17DOPE    C1 2080   2.823   5.178  16.683  0.3628 -0.5637 -0.4547
   17DOPE    HA 2081   2.830   5.087  16.620 -3.0013 -2.5022  1.6300
   17DOPE    HB 2082   2.929   5.213  16.678  0.2586 -0.3217 -1.0855
   17DOPE    C2 2083   2.747   5.285  16.604 -0.2448 -0.8993  0.2887
   17DOPE    HS 2084   2.735   5.370  16.674  0.7361  0.0240 -0.6281
   17DOPE   O21 2085   2.632   5.212  16.563 -0.9424  0.2437  0.0720
   17DOPE   C21 2086   2.528   5.285  16.538  0.3163 -0.4890  0.7526
   17DOPE   O22 2087   2.520   5.407  16.540  0.0954  0.3351 -0.3530
   17DOPE   C22 2088   2.411   5.193  16.504 -0.5564  0.1630 -0.6514
   17DOPE   H2R 2089   2.340   5.182  16.588  1.3146 -0.6628  0.8993
   17DOPE   H2S 2090   2.442   5.088  16.484  1.2855  0.7688 -1.1362
   17DOPE    C3 2091   2.835   5.318  16.484  0.0138 -0.1361 -0.1487
   17DOPE    HX 2092   2.860   5.224  16.429 -0.5988 -1.5565  1.9006
   17DOPE    HY 2093   2.933   5.353  16.523  0.3989 -2.2074  0.8357
   17DOPE   O31 2094   2.785   5.404  16.378  0.1051 -0.0879 -0.2262
   17DOPE   C31 2095   2.778   5.527  16.394  0.1848 -0.4128  0.0318
   17DOPE   O32 2096   2.797   5.585  16.497  0.0577  0.2298 -0.4636
   17DOPE   C32 2097   2.742   5.602  16.264 -0.5411 -0.2046 -0.9771
   17DOPE   H2X 2098   2.831   5.668  16.251  0.1616 -0.9898 -0.2741
   17DOPE   H2Y 2099   2.752   5.538  16.173  0.0697  0.3966 -1.3476
   17DOPE   C23 2100   2.331   5.251  16.385  0.4193 -0.2363 -0.1484
   17DOPE   H3R 2101   2.327   5.360  16.402  2.4373  0.0093 -1.0003
   17DOPE   H3S 2102   2.227   5.210  16.389 -0.6362  2.1035 -1.6895
   17DOPE   C24 2103   2.387   5.219  16.252 -0.3697 -0.8235 -0.4174
   17DOPE   H4R 2104   2.405   5.110  16.245 -2.1138 -1.1442 -0.2769
   17DOPE   H4S 2105   2.478   5.282  16.243  0.2751 -1.8666 -1.5861
   17DOPE   C25 2106   2.296   5.239  16.131  0.9923  0.3342 -0.1806
   17DOPE   H5R 2107   2.255   5.342  16.123  1.0859  0.3997  0.1417
   17DOPE   H5S 2108   2.205   5.181  16.161  2.6785 -1.3893  2.0425
   17DOPE   C26 2109   2.365   5.188  16.005 -0.0873  0.3576  0.0648
   17DOPE   H6R 2110   2.412   5.090  16.023 -2.0884 -0.9877 -1.5402
   17DOPE   H6S 2111   2.455   5.247  15.978  1.1075 -1.8514 -1.0317
   17DOPE   C27 2112   2.273   5.189  15.885  0.2216  0.1649  0.4358
   17DOPE   H7R 2113   2.195   5.267  15.899 -1.0285 -1.2986  2.1060
   17DOPE   H7S 2114   2.217   5.093  15.872 -2.4061  1.5334  0.9954
   17DOPE   C28 2115   2.353   5.213  15.752  0.5061 -0.3981  0.3636
   17DOPE   H8R 2116   2.445   5.150  15.754  1.3161  0.7663  0.9658
   17DOPE   H8S 2117   2.376   5.319  15.773 -0.1971 -0.0841 -0.3950
   17DOPE   C29 2118   2.268   5.188  15.624  0.2275 -0.5487 -0.2140
   17DOPE   H9R 2119   2.216   5.277  15.585 -0.9744  0.0124  2.4162
   17DOPE  C210 2120   2.273   5.083  15.543 -0.4741  0.1813  0.2816
   17DOPE  H10R 2121   2.234   5.074  15.441 -0.8319 -2.5920  0.5925
   17DOPE  C211 2122   2.350   4.955  15.573 -0.4596 -0.1188  0.4961
   17DOPE  H11R 2123   2.399   4.957  15.673  1.5310  2.7461 -0.3913
   17DOPE  H11S 2124   2.428   4.941  15.495  0.3331  1.2128  1.0077
   17DOPE  C212 2125   2.261   4.830  15.565  0.5166  0.0806 -0.2369
   17DOPE  H12R 2126   2.196   4.837  15.476 -0.5569  0.1873  0.5415
   17DOPE  H12S 2127   2.190   4.823  15.651 -0.5224 -1.4179 -1.1591
   17DOPE  C213 2128   2.342   4.704  15.557  0.0848  0.5550 -0.2538
   17DOPE  H13R 2129   2.277   4.615  15.565 -0.5737  0.9608 -0.9771
   17DOPE  H13S 2130   2.414   4.709  15.641 -1.8227 -2.5506  1.7856
   17DOPE  C214 2131   2.418   4.671  15.426  0.6599 -0.3140 -0.5516
   17DOPE  H14R 2132   2.472   4.574  15.420  2.4932  0.6430 -0.1876
   17DOPE  H14S 2133   2.497   4.747  15.408  0.0950  0.2200 -0.7986
   17DOPE  C215 2134   2.326   4.666  15.306  0.3625  0.2092 -0.6851
   17DOPE  H15R 2135   2.276   4.763  15.283  0.7977  0.5523 -0.1895
   17DOPE  H15S 2136   2.248   4.593  15.335 -0.6848  0.8033 -1.9115
   17DOPE  C216 2137   2.399   4.623  15.180 -0.0489 -0.5774 -0.0062
   17DOPE  H16R 2138   2.413   4.513  15.178  1.4003 -0.4631  1.5747
   17DOPE  H16S 2139   2.499   4.671  15.185 -0.2520 -0.2459  1.6726
   17DOPE  C217 2140   2.323   4.669  15.045 -1.0966 -0.4251 -0.3771
   17DOPE  H17R 2141   2.391   4.632  14.965  0.2356 -2.4968  1.5775
   17DOPE  H17S 2142   2.317   4.779  15.035 -1.6839 -0.2635  1.4399
   17DOPE  C218 2143   2.186   4.605  15.026  0.0725  0.3472 -0.2826
   17DOPE  H18R 2144   2.123   4.635  14.940 -1.1419 -0.5045  0.2759
   17DOPE  H18S 2145   2.113   4.622  15.109  1.2159 -0.3991  0.9205
   17DOPE  H18T 2146   2.199   4.495  15.019 -0.3179  0.3427 -0.9869
   17DOPE   C33 2147   2.610   5.681  16.275  0.5482  0.3362 -0.7684
   17DOPE   H3X 2148   2.609   5.750  16.362 -1.6774  0.4840 -0.8547
   17DOPE   H3Y 2149   2.520   5.616  16.272  0.2586  0.7279 -0.4622
   17DOPE   C34 2150   2.601   5.764  16.150 -0.0010  0.4379  0.1418
   17DOPE   H4X 2151   2.523   5.840  16.169  0.4092  0.3157  2.8359
   17DOPE   H4Y 2152   2.697   5.818  16.134  0.6579 -1.6758 -4.4833
   17DOPE   C35 2153   2.556   5.687  16.024 -0.3440  0.3030  0.1110
   17DOPE   H5X 2154   2.455   5.644  16.044 -1.0426  1.7617 -0.1028
   17DOPE   H5Y 2155   2.618   5.601  15.992 -2.6904 -0.5915 -2.3904
   17DOPE   C36 2156   2.557   5.775  15.895 -0.0968  0.3160  0.4149
   17DOPE   H6X 2157   2.664   5.777  15.868 -0.2472 -0.6471 -0.3328
   17DOPE   H6Y 2158   2.526   5.876  15.927  1.7144  1.1740 -0.4434
   17DOPE   C37 2159   2.479   5.726  15.769  0.0797 -0.2197 -0.1024
   17DOPE   H7X 2160   2.474   5.616  15.781  0.0804 -0.0360  1.8997
   17DOPE   H7Y 2161   2.376   5.766  15.780 -1.5644 -3.7716 -1.1915
   17DOPE   C38 2162   2.542   5.765  15.634  0.8001 -0.4385  0.4669
   17DOPE   H8X 2163   2.652   5.769  15.647  0.8265 -0.7961  0.3679
   17DOPE   H8Y 2164   2.515   5.870  15.610  2.4266  0.2865  1.6528
   17DOPE   C39 2165   2.495   5.676  15.520  0.1510 -0.1607  0.0283
   17DOPE   H9X 2166   2.387   5.659  15.511  0.0963  0.7824 -1.5561
   17DOPE  C310 2167   2.575   5.609  15.434  0.4781  0.7037 -0.6061
   17DOPE  H10X 2168   2.526   5.530  15.374  1.2089 -0.3871  0.2024
   17DOPE  C311 2169   2.731   5.619  15.418 -0.0649 -0.7373  0.3034
   17DOPE  H11X 2170   2.779   5.706  15.469  2.6212 -2.1879  0.4279
   17DOPE  H11Y 2171   2.774   5.535  15.475  0.0415 -1.0718 -0.2668
   17DOPE  C312 2172   2.776   5.618  15.271  0.7377  0.2458  1.1349
   17DOPE  H12X 2173   2.740   5.714  15.228  1.6170 -0.3507 -1.0508
   17DOPE  H12Y 2174   2.721   5.538  15.217 -0.2287  0.0404  2.3633
   17DOPE  C313 2175   2.929   5.590  15.251 -0.0493  0.3015  0.2417
   17DOPE  H13X 2176   2.986   5.653  15.322  0.7597 -1.5959  1.3778
   17DOPE  H13Y 2177   2.948   5.484  15.280 -2.7933  0.0591  1.4509
   17DOPE  C314 2178   2.956   5.612  15.100  0.5165 -0.3838 -0.3001
   17DOPE  H14X 2179   2.911   5.711  15.076  2.0551  0.2047 -0.8802
   17DOPE  H14Y 2180   2.890   5.550  15.037 -2.1051  2.4854 -0.6416
   17DOPE  C315 2181   3.104   5.602  15.069  0.0028 -0.5333  0.0067
   17DOPE  H15X 2182   3.133   5.498  15.097  1.0529 -0.5687 -1.1281
   17DOPE  H15Y 2183   3.164   5.679  15.123 -2.4271 -0.7615  3.3079
   17DOPE  C316 2184   3.128   5.612  14.919 -0.2444 -0.1695  0.1873
   17DOPE  H16X 2185   3.113   5.721  14.902 -0.2082 -0.0354  0.9684
   17DOPE  H16Y 2186   3.051   5.560  14.858 -0.9740  1.2762 -0.1692
   17DOPE  C317 2187   3.258   5.561  14.870  0.1588 -0.5467  0.2663
   17DOPE  H17X 2188   3.344   5.614  14.916  1.0531 -0.7379 -1.1285
   17DOPE  H17Y 2189   3.271   5.450  14.878 -0.9753 -0.9495 -2.5032
   17DOPE  C318 2190   3.268   5.576  14.719  0.6056  0.4244 -0.1204
   17DOPE  H18X 2191   3.261   5.682  14.689 -2.4267 -0.2388 -2.1658
   17DOPE  H18Y 2192   3.358   5.523  14.683 -0.5916  0.4403 -3.4539
   17DOPE  H18Z 2193   3.191   5.524  14.658  0.7804  1.2367 -1.0600
   18DOPE     N 2194   0.708   1.993  17.160  0.7927 -0.3850 -0.6607
   18DOPE   HN1 2195   0.729   2.061  17.236 -0.0723  0.4982 -1.1978
   18DOPE   HN2 2196   0.685   2.051  17.078 -0.3698 -0.3446 -0.3224
   18DOPE   HN3 2197   0.633   1.934  17.202  0.2342  2.1236  2.2252
   18DOPE   C12 2198   0.822   1.912  17.117 -0.6698 -0.1967  0.1542
   18DOPE  H12A 2199   0.776   1.822  17.070 -1.6698 -0.7902  2.1370
   18DOPE  H12B 2200   0.882   1.878  17.204  0.7692 -1.1158 -1.1520
   18DOPE   C11 2201   0.927   1.993  17.038 -0.2229  0.0429  0.1403
   18DOPE  H11A 2202   1.009   1.920  17.021 -0.4197 -0.2028  0.2499
   18DOPE  H11B 2203   0.968   2.076  17.100 -0.8361  0.4422  0.0163
   18DOPE     P 2204   0.873   1.964  16.777  0.4067 -0.1370 -0.2298
   18DOPE   O13 2205   0.746   2.011  16.709 -0.5799  0.0986 -0.3566
   18DOPE   O14 2206   0.892   1.820  16.808  0.0228 -0.0282  0.4929
   18DOPE   O11 2207   1.003   2.010  16.698  0.6723 -0.0873  0.0063
   18DOPE   O12 2208   0.880   2.044  16.911 -0.7450  0.0593 -1.1364
   18DOPE    C1 2209   1.024   2.155  16.677 -0.3488 -0.1529 -0.5505
   18DOPE    HA 2210   1.101   2.189  16.749 -0.6612 -0.0478 -0.2690
   18DOPE    HB 2211   0.934   2.219  16.681  0.5788  1.1225  1.0240
   18DOPE    C2 2212   1.072   2.184  16.530 -0.8102 -0.4538 -0.2016
   18DOPE    HS 2213   1.032   2.283  16.501 -0.2625 -0.3561 -0.6367
   18DOPE   O21 2214   1.028   2.083  16.435  0.1518  0.4382 -0.2681
   18DOPE   C21 2215   0.909   2.115  16.388  0.4788 -0.4003 -0.1603
   18DOPE   O22 2216   0.847   2.218  16.416  0.0521  0.0006 -0.8011
   18DOPE   C22 2217   0.870   2.004  16.294 -0.0706  0.1153 -0.3198
   18DOPE   H2R 2218   0.931   1.912  16.306 -1.8982 -1.1977 -0.6391
   18DOPE   H2S 2219   0.883   2.042  16.191 -0.5193 -0.7719 -0.7146
   18DOPE    C3 2220   1.226   2.205  16.528 -1.0732  0.6624 -0.3062
   18DOPE    HX 2221   1.279   2.119  16.575  0.1197  0.8768 -1.2043
   18DOPE    HY 2222   1.251   2.301  16.579 -0.7697  0.4414 -0.0362
   18DOPE   O31 2223   1.277   2.236  16.394 -0.1105 -0.5769 -0.3490
   18DOPE   C31 2224   1.337   2.142  16.328 -1.0091 -0.7073 -0.1719
   18DOPE   O32 2225   1.355   2.026  16.366  0.3690 -0.2581 -0.6231
   18DOPE   C32 2226   1.418   2.205  16.213 -1.0059  0.0476 -0.4026
   18DOPE   H2X 2227   1.422   2.314  16.230  2.6000  0.8203 -4.3591
   18DOPE   H2Y 2228   1.521   2.170  16.234 -1.4011 -0.9562 -0.0611
   18DOPE   C23 2229   0.714   1.970  16.298 -0.1350  0.0263 -0.3334
   18DOPE   H3R 2230   0.663   2.068  16.287  2.3927  1.2636 -2.4722
   18DOPE   H3S 2231   0.677   1.936  16.397  0.2048  1.1578  0.1946
   18DOPE   C24 2232   0.661   1.873  16.200 -0.2942 -0.8264  0.7517
   18DOPE   H4R 2233   0.715   1.776  16.204  0.9150 -0.2914 -1.1298
   18DOPE   H4S 2234   0.684   1.905  16.096 -0.3688  0.0194  0.9876
   18DOPE   C25 2235   0.511   1.844  16.207 -0.2695 -0.3938  0.5897
   18DOPE   H5R 2236   0.485   1.819  16.312  0.1786 -1.4220  0.4778
   18DOPE   H5S 2237   0.492   1.748  16.154 -0.3165 -0.1565  0.1782
   18DOPE   C26 2238   0.433   1.957  16.143  0.0094  0.9561 -0.0123
   18DOPE   H6R 2239   0.478   1.981  16.045 -0.0263 -0.9199 -0.5221
   18DOPE   H6S 2240   0.452   2.040  16.215 -0.7660 -0.2078  1.6243
   18DOPE   C27 2241   0.279   1.930  16.127 -0.1859 -0.7604  0.0584
   18DOPE   H7R 2242   0.244   1.891  16.225  2.1393  0.9259  1.6669
   18DOPE   H7S 2243   0.244   1.859  16.050  0.2545 -1.8795  0.8675
   18DOPE   C28 2244   0.205   2.067  16.122  0.1237 -0.4258 -0.6185
   18DOPE   H8R 2245   0.234   2.107  16.022 -0.8196  0.4939 -0.5313
   18DOPE   H8S 2246   0.246   2.138  16.196  2.8919  0.2320 -2.6395
   18DOPE   C29 2247   0.055   2.065  16.135  0.5334  0.5276 -0.1508
   18DOPE   H9R 2248   0.013   2.068  16.237 -0.7610  0.9675 -0.6772
   18DOPE  C210 2249  -0.029   2.036  16.032 -0.1136 -0.5585  0.0659
   18DOPE  H10R 2250  -0.136   2.028  16.056  0.4001 -1.1612  2.4377
   18DOPE  C211 2251   0.016   2.008  15.888  0.2103  0.1652 -0.0132
   18DOPE  H11R 2252   0.123   2.036  15.874  0.4075  0.0732  1.1624
   18DOPE  H11S 2253  -0.043   2.076  15.822  0.5295  0.2859 -0.1772
   18DOPE  C212 2254  -0.006   1.860  15.843  0.4827 -0.8661 -0.1129
   18DOPE  H12R 2255  -0.111   1.832  15.866 -0.3503  1.9701 -0.0794
   18DOPE  H12S 2256   0.065   1.794  15.896  0.5752 -1.8492 -1.4094
   18DOPE  C213 2257   0.024   1.817  15.697  0.0491  0.1118  0.6135
   18DOPE  H13R 2258  -0.001   1.709  15.684  1.0097 -0.0693  0.1472
   18DOPE  H13S 2259   0.130   1.821  15.663 -0.7722  0.3896 -2.1526
   18DOPE  C214 2260  -0.054   1.905  15.600 -0.6946  0.4351  0.3885
   18DOPE  H14R 2261  -0.015   2.009  15.614  1.1985  0.0179 -1.3035
   18DOPE  H14S 2262  -0.157   1.904  15.641 -0.1896 -2.5297  1.8496
   18DOPE  C215 2263  -0.046   1.858  15.452 -0.0869 -0.6908  0.1510
   18DOPE  H15R 2264  -0.101   1.929  15.388  0.4762  0.4237  0.8829
   18DOPE  H15S 2265  -0.110   1.769  15.433  0.7694 -0.9145 -1.9134
   18DOPE  C216 2266   0.101   1.838  15.401  0.0613  0.1550  0.2403
   18DOPE  H16R 2267   0.079   1.820  15.294 -0.7764  2.9947 -0.1494
   18DOPE  H16S 2268   0.144   1.748  15.449 -0.0141 -0.0822 -0.1336
   18DOPE  C217 2269   0.177   1.970  15.417  0.0783  0.0315 -0.0893
   18DOPE  H17R 2270   0.222   1.976  15.518 -0.0497 -2.3814  0.1697
   18DOPE  H17S 2271   0.101   2.051  15.416 -0.9755 -0.8520 -3.3952
   18DOPE  C218 2272   0.283   1.991  15.310 -0.5944  0.8431 -0.1787
   18DOPE  H18R 2273   0.354   1.906  15.300 -0.1559  0.9491  1.6235
   18DOPE  H18S 2274   0.337   2.083  15.341  1.1898  0.3677 -1.6737
   18DOPE  H18T 2275   0.231   2.015  15.215 -0.7352 -3.9978 -1.6175
   18DOPE   C33 2276   1.367   2.164  16.072  0.2771  0.2249  0.4336
   18DOPE   H3X 2277   1.313   2.248  16.023  0.3102  0.5873  1.0030
   18DOPE   H3Y 2278   1.288   2.090  16.095 -0.2010  0.7164  0.4003
   18DOPE   C34 2279   1.480   2.104  15.988 -0.1761 -0.6948 -0.2687
   18DOPE   H4X 2280   1.554   2.187  15.982 -0.4976 -0.2760  1.1634
   18DOPE   H4Y 2281   1.534   2.017  16.030  0.6860  0.5039  1.2463
   18DOPE   C35 2282   1.445   2.050  15.848 -0.1268 -0.1141  0.6195
   18DOPE   H5X 2283   1.378   2.110  15.782 -0.9925 -0.1748  1.4195
   18DOPE   H5Y 2284   1.385   1.959  15.872  1.2106 -0.5273  2.6560
   18DOPE   C36 2285   1.577   2.031  15.763  0.5058 -0.3007 -0.3795
   18DOPE   H6X 2286   1.642   1.964  15.823 -0.4894 -1.2822 -0.3656
   18DOPE   H6Y 2287   1.626   2.127  15.735 -1.8306  0.9628 -0.3324
   18DOPE   C37 2288   1.547   1.963  15.628 -0.2512 -0.0512 -0.2737
   18DOPE   H7X 2289   1.511   1.862  15.656  0.9361 -0.8576 -1.5370
   18DOPE   H7Y 2290   1.474   2.027  15.573 -1.6832 -1.7621 -0.4366
   18DOPE   C38 2291   1.679   1.950  15.547  0.1995 -0.1274  0.0296
   18DOPE   H8X 2292   1.740   1.886  15.615 -1.1162 -0.3656  1.0391
   18DOPE   H8Y 2293   1.734   2.047  15.537  1.1041 -0.6818 -0.4735
   18DOPE   C39 2294   1.639   1.898  15.410 -0.8203 -0.2540  0.4182
   18DOPE   H9X 2295   1.573   1.959  15.345 -0.0603  0.5940  0.4242
   18DOPE  C310 2296   1.659   1.772  15.368 -0.0805 -0.1943 -0.8217
   18DOPE  H10X 2297   1.619   1.739  15.272 -0.8089  0.5485 -0.7794
   18DOPE  C311 2298   1.731   1.652  15.429  0.0901  0.6207 -0.8970
   18DOPE  H11X 2299   1.732   1.662  15.539  1.4370 -3.5637 -0.3391
   18DOPE  H11Y 2300   1.677   1.558  15.403 -2.2237  1.2324  1.3040
   18DOPE  C312 2301   1.875   1.645  15.375  0.0641 -0.1767  0.7350
   18DOPE  H12X 2302   1.927   1.552  15.406 -1.6029 -1.5577 -0.3495
   18DOPE  H12Y 2303   1.929   1.735  15.410 -1.7257  1.2882 -0.0968
   18DOPE  C313 2304   1.888   1.659  15.221  0.3190  0.3225  0.4693
   18DOPE  H13X 2305   1.813   1.583  15.189 -0.2885  1.8110 -1.9126
   18DOPE  H13Y 2306   1.849   1.754  15.179 -1.2651 -0.3452  0.3549
   18DOPE  C314 2307   2.034   1.629  15.187  0.3829  0.4767  0.4859
   18DOPE  H14X 2308   2.062   1.536  15.240  1.5731  0.8643  0.5684
   18DOPE  H14Y 2309   2.114   1.695  15.226  2.7028 -2.1890  0.5733
   18DOPE  C315 2310   2.055   1.609  15.038  0.0947 -0.3220  0.5450
   18DOPE  H15X 2311   2.071   1.699  14.975  0.1786 -1.2073 -0.7362
   18DOPE  H15Y 2312   1.972   1.567  14.978  1.2845  0.5781 -1.8552
   18DOPE  C316 2313   2.177   1.514  15.018  0.3846  0.2035  0.2498
   18DOPE  H16X 2314   2.165   1.432  15.092 -0.1292  1.1107  1.1978
   18DOPE  H16Y 2315   2.268   1.574  15.041 -0.6147  2.5045 -1.4510
   18DOPE  C317 2316   2.191   1.466  14.878 -0.8543  0.4390  0.3182
   18DOPE  H17X 2317   2.288   1.413  14.879 -1.0389 -0.0504 -2.0621
   18DOPE  H17Y 2318   2.112   1.392  14.853 -0.0353 -0.5755  0.6591
   18DOPE  C318 2319   2.202   1.582  14.766  0.3009  0.6571 -0.4911
   18DOPE  H18X 2320   2.103   1.630  14.749 -0.2383 -0.9585 -2.2027
   18DOPE  H18Y 2321   2.270   1.664  14.799 -0.3737  0.8841  0.3839
   18DOPE  H18Z 2322   2.235   1.533  14.672 -0.9452 -0.1417 -0.5385
   19DOPE     N 2323   6.487   3.530  17.044 -0.7492  0.6412  0.3409
   19DOPE   HN1 2324   6.517   3.452  17.107  2.6795  1.0162 -0.6697
   19DOPE   HN2 2325   6.398   3.573  17.077 -1.2279  0.5622 -0.8229
   19DOPE   HN3 2326   6.473   3.514  16.943 -1.4344  0.5548  0.4430
   19DOPE   C12 2327   6.595   3.636  17.063 -0.0747  0.0251  0.0414
   19DOPE  H12A 2328   6.630   3.641  17.168 -1.5574 -1.1328  0.6225
   19DOPE  H12B 2329   6.547   3.735  17.046 -2.8273 -0.7630  2.4000
   19DOPE   C11 2330   6.706   3.615  16.960 -0.4165  0.5469 -0.1651
   19DOPE  H11A 2331   6.780   3.697  16.965 -1.0550  1.0673  2.6422
   19DOPE  H11B 2332   6.662   3.611  16.858 -0.1942 -1.0787 -0.2237
   19DOPE     P 2333   6.896   3.440  16.906  0.1358  0.3639  0.5159
   19DOPE   O13 2334   6.923   3.296  16.942 -0.0036 -0.1087  0.0514
   19DOPE   O14 2335   7.002   3.537  16.937 -0.1042  0.0677 -0.5726
   19DOPE   O11 2336   6.870   3.461  16.755 -0.0074  0.6618  0.2410
   19DOPE   O12 2337   6.769   3.484  16.984  0.4733 -0.1479  0.8977
   19DOPE    C1 2338   6.751   3.398  16.693 -0.5597 -0.1787  0.0356
   19DOPE    HA 2339   6.711   3.476  16.625  3.0241 -0.2047 -2.4060
   19DOPE    HB 2340   6.672   3.365  16.764 -0.2376 -0.4353  0.2787
   19DOPE    C2 2341   6.779   3.269  16.602 -0.0040  0.1777 -0.5556
   19DOPE    HS 2342   6.843   3.201  16.662 -1.6694 -0.1501  0.9390
   19DOPE   O21 2343   6.849   3.316  16.483 -0.1510 -0.4664  0.0931
   19DOPE   C21 2344   6.892   3.223  16.405  0.0419  0.1339 -0.5065
   19DOPE   O22 2345   6.907   3.106  16.434  0.0293 -0.4476 -0.1487
   19DOPE   C22 2346   6.933   3.291  16.276  0.4687 -0.1831  0.6418
   19DOPE   H2R 2347   7.012   3.366  16.299  0.2806 -0.3937  2.0316
   19DOPE   H2S 2348   6.856   3.360  16.235  2.2234  1.8707  0.6144
   19DOPE    C3 2349   6.643   3.206  16.567  0.3122  0.0083 -0.6549
   19DOPE    HX 2350   6.603   3.162  16.661  0.7661 -1.3435 -1.0677
   19DOPE    HY 2351   6.667   3.135  16.485  0.3352  2.5564 -2.9967
   19DOPE   O31 2352   6.545   3.308  16.522 -0.6723 -0.5495  0.0425
   19DOPE   C31 2353   6.527   3.332  16.392  0.1301  0.4398 -0.4914
   19DOPE   O32 2354   6.596   3.275  16.307 -0.5082 -0.0740 -0.3908
   19DOPE   C32 2355   6.421   3.433  16.362  0.3470 -0.2496 -0.4517
   19DOPE   H2X 2356   6.334   3.403  16.424  2.3690 -0.9923  2.1994
   19DOPE   H2Y 2357   6.455   3.530  16.402  2.3533 -0.8193 -0.6623
   19DOPE   C23 2358   6.961   3.191  16.164 -0.1896  0.0517  0.3594
   19DOPE   H3R 2359   6.891   3.216  16.082 -1.8681  0.3675  1.8387
   19DOPE   H3S 2360   6.938   3.086  16.192  1.4527 -0.9527 -1.7826
   19DOPE   C24 2361   7.109   3.191  16.121  0.2631  0.3063  0.1727
   19DOPE   H4R 2362   7.166   3.142  16.203  2.9118  3.0403  0.1753
   19DOPE   H4S 2363   7.153   3.293  16.111  2.0191 -0.2474  1.6793
   19DOPE   C25 2364   7.131   3.116  15.989 -0.6196  0.5605  0.5950
   19DOPE   H5R 2365   7.087   3.171  15.904 -4.9952  0.2486  2.4240
   19DOPE   H5S 2366   7.080   3.018  16.006 -4.1318  2.1462  0.0042
   19DOPE   C26 2367   7.283   3.088  15.954 -0.0211  0.8847  0.4009
   19DOPE   H6R 2368   7.287   3.017  15.868  0.0127 -0.9343  1.8302
   19DOPE   H6S 2369   7.336   3.035  16.036  0.9168  0.8503 -0.2129
   19DOPE   C27 2370   7.364   3.212  15.923  0.1650  0.3996 -0.0758
   19DOPE   H7R 2371   7.392   3.249  16.024 -0.1410  1.5236 -0.3857
   19DOPE   H7S 2372   7.302   3.294  15.881  2.4900  1.9225 -0.7221
   19DOPE   C28 2373   7.488   3.200  15.833  0.2866 -0.8176  0.0354
   19DOPE   H8R 2374   7.547   3.108  15.850  0.0663 -1.2586 -1.4146
   19DOPE   H8S 2375   7.549   3.286  15.869 -1.6333  0.9609 -0.7388
   19DOPE   C29 2376   7.454   3.213  15.692  0.1163 -0.5691  0.1411
   19DOPE   H9R 2377   7.405   3.309  15.670  1.6546  0.8419  2.4820
   19DOPE  C210 2378   7.487   3.125  15.593 -0.1258  0.2111 -0.4090
   19DOPE  H10R 2379   7.469   3.150  15.487  0.0828 -0.8766 -0.7077
   19DOPE  C211 2380   7.557   2.993  15.610  0.3097 -0.3916 -0.1708
   19DOPE  H11R 2381   7.537   2.962  15.715 -0.7193 -0.1837 -0.2915
   19DOPE  H11S 2382   7.666   2.996  15.589  0.6882  1.0345  1.7173
   19DOPE  C212 2383   7.504   2.877  15.516  0.7172  0.0625  0.3680
   19DOPE  H12R 2384   7.580   2.796  15.522  0.2464 -0.3557  0.7306
   19DOPE  H12S 2385   7.501   2.914  15.411 -0.3188  2.1288  1.0722
   19DOPE  C213 2386   7.373   2.812  15.564  0.5268 -0.1095  0.3431
   19DOPE  H13R 2387   7.288   2.873  15.526  0.3827 -2.5157 -3.8830
   19DOPE  H13S 2388   7.378   2.803  15.674 -2.8114 -1.0279  0.5135
   19DOPE  C214 2389   7.350   2.667  15.502 -1.0150  0.7088 -0.6717
   19DOPE  H14R 2390   7.409   2.594  15.561 -1.6435  0.1522 -0.7216
   19DOPE  H14S 2391   7.392   2.659  15.399  1.3070  3.1769 -0.0321
   19DOPE  C215 2392   7.204   2.620  15.510  0.2034 -0.4111 -0.0210
   19DOPE  H15R 2393   7.162   2.673  15.598 -2.2483  0.8782 -1.8382
   19DOPE  H15S 2394   7.189   2.511  15.521 -2.1357  0.0450  2.0685
   19DOPE  C216 2395   7.128   2.669  15.387  0.2503  0.0596 -0.4801
   19DOPE  H16R 2396   7.178   2.642  15.292  1.2568  2.4402 -0.6950
   19DOPE  H16S 2397   7.132   2.780  15.385  0.2849  0.1936  2.5172
   19DOPE  C217 2398   6.985   2.614  15.382 -0.1275  0.5421  0.1275
   19DOPE  H17R 2399   6.934   2.640  15.477  0.8507  0.5289  0.6671
   19DOPE  H17S 2400   6.988   2.504  15.393 -0.1404  0.7024  2.1246
   19DOPE  C218 2401   6.917   2.661  15.257  0.6276 -0.1402  0.7579
   19DOPE  H18R 2402   6.907   2.771  15.248 -2.3360 -0.4576 -1.4119
   19DOPE  H18S 2403   6.813   2.628  15.241  1.0653 -0.7331 -1.1791
   19DOPE  H18T 2404   6.970   2.635  15.163  1.6372  2.8057  0.4004
   19DOPE   C33 2405   6.375   3.448  16.217  0.1494  0.6152 -0.5775
   19DOPE   H3X 2406   6.343   3.347  16.184 -0.4857  0.1081  1.4371
   19DOPE   H3Y 2407   6.463   3.477  16.157  1.0486  0.6393  0.7229
   19DOPE   C34 2408   6.262   3.549  16.199  0.0641 -0.4983 -0.1696
   19DOPE   H4X 2409   6.179   3.520  16.267  0.4136 -0.9871  0.0563
   19DOPE   H4Y 2410   6.301   3.647  16.231 -1.3378 -0.3512  1.1794
   19DOPE   C35 2411   6.200   3.570  16.064 -0.5095 -0.2298  0.1708
   19DOPE   H5X 2412   6.285   3.594  15.997 -1.2153  1.5038 -0.1785
   19DOPE   H5Y 2413   6.146   3.667  16.062 -0.3640 -0.1121  1.5243
   19DOPE   C36 2414   6.106   3.458  16.019  0.1914 -0.4815  0.8484
   19DOPE   H6X 2415   6.010   3.472  16.073  0.9432  0.6790  1.9350
   19DOPE   H6Y 2416   6.156   3.361  16.040 -0.1608 -0.6784  0.7840
   19DOPE   C37 2417   6.061   3.468  15.865  0.3546 -0.6900 -0.6074
   19DOPE   H7X 2418   6.023   3.570  15.840  0.4310 -0.0030  1.8130
   19DOPE   H7Y 2419   6.160   3.461  15.816  0.4794 -1.1982 -0.2831
   19DOPE   C38 2420   5.970   3.359  15.810  0.2654 -0.4480 -0.1852
   19DOPE   H8X 2421   5.968   3.282  15.891  1.1706  1.1901  1.4633
   19DOPE   H8Y 2422   6.016   3.311  15.721 -0.3634  2.4720 -2.2153
   19DOPE   C39 2423   5.825   3.400  15.782 -0.5626 -0.7203  0.3401
   19DOPE   H9X 2424   5.781   3.443  15.874 -0.2443 -1.1203  0.6832
   19DOPE  C310 2425   5.751   3.389  15.674  0.2124  0.8450  0.1382
   19DOPE  H10X 2426   5.641   3.397  15.671  0.1837  0.4543  0.0764
   19DOPE  C311 2427   5.805   3.341  15.540 -0.4723 -1.0619 -1.0097
   19DOPE  H11X 2428   5.855   3.419  15.479 -0.0434 -1.0962 -0.7091
   19DOPE  H11Y 2429   5.866   3.249  15.554 -0.7864 -1.1348 -0.1124
   19DOPE  C312 2430   5.689   3.282  15.456  0.0186  0.1998  0.4126
   19DOPE  H12X 2431   5.634   3.204  15.512 -1.4453  1.8873  1.4477
   19DOPE  H12Y 2432   5.735   3.232  15.369 -1.4888  1.5965 -1.2708
   19DOPE  C313 2433   5.583   3.384  15.398  0.3751 -0.2756  0.1812
   19DOPE  H13X 2434   5.496   3.332  15.352  0.6291  1.9201 -3.0991
   19DOPE  H13Y 2435   5.548   3.440  15.487  1.7873 -1.8716  1.8248
   19DOPE  C314 2436   5.644   3.492  15.308  0.0034 -0.2947  0.3626
   19DOPE  H14X 2437   5.715   3.545  15.375  0.3286 -2.1856  1.5830
   19DOPE  H14Y 2438   5.562   3.564  15.287  1.5705  1.7887  1.0323
   19DOPE  C315 2439   5.727   3.439  15.191  0.4098 -0.0046 -0.0553
   19DOPE  H15X 2440   5.654   3.368  15.146 -0.4788 -0.0997  1.4807
   19DOPE  H15Y 2441   5.815   3.378  15.220  0.6025 -0.1284 -0.8627
   19DOPE  C316 2442   5.770   3.545  15.090 -1.0114 -0.4916 -0.0302
   19DOPE  H16X 2443   5.799   3.641  15.138 -1.9658  0.2021 -0.7915
   19DOPE  H16Y 2444   5.677   3.575  15.036 -0.8465  1.3439  0.6357
   19DOPE  C317 2445   5.893   3.501  15.009  0.4866  0.7034 -0.3194
   19DOPE  H17X 2446   5.971   3.497  15.088 -0.5166  0.5806  0.6946
   19DOPE  H17Y 2447   5.888   3.398  14.967 -1.0305  0.5560  0.1725
   19DOPE  C318 2448   5.932   3.599  14.898  0.3860  0.8258  0.0572
   19DOPE  H18X 2449   5.967   3.696  14.940 -0.4730  1.3463 -0.4053
   19DOPE  H18Y 2450   6.008   3.553  14.832 -2.2378 -0.4901 -2.2725
   19DOPE  H18Z 2451   5.853   3.612  14.821  1.1941  1.8878 -0.6335
   20DOPE     N 2452   7.239   6.626  16.910  0.3179 -0.3095 -0.4364
   20DOPE   HN1 2453   7.157   6.641  16.973  0.8561  0.9049 -0.0092
   20DOPE   HN2 2454   7.318   6.623  16.977 -0.1801  2.2303  0.3972
   20DOPE   HN3 2455   7.254   6.699  16.838  2.2154  0.1834  0.3921
   20DOPE   C12 2456   7.221   6.497  16.832  0.1686 -0.0033 -1.3065
   20DOPE  H12A 2457   7.319   6.471  16.786  1.1705 -1.0726  1.2428
   20DOPE  H12B 2458   7.136   6.506  16.761 -1.1890 -0.8688  0.1361
   20DOPE   C11 2459   7.184   6.391  16.938 -0.1430  0.1650  0.5005
   20DOPE  H11A 2460   7.095   6.429  16.992 -0.5057 -0.0158  0.0319
   20DOPE  H11B 2461   7.271   6.391  17.007  1.0188  1.6190 -0.9002
   20DOPE     P 2462   7.286   6.178  16.808  0.2405 -0.0589 -0.0996
   20DOPE   O13 2463   7.238   6.040  16.794 -0.3272 -0.3682  0.2070
   20DOPE   O14 2464   7.414   6.201  16.874 -0.1345 -0.1692  0.2447
   20DOPE   O11 2465   7.283   6.238  16.669  0.3527 -0.5233 -0.5314
   20DOPE   O12 2466   7.167   6.258  16.879  0.6435  0.6713  0.6082
   20DOPE    C1 2467   7.169   6.202  16.580 -0.0026  0.2018 -0.3943
   20DOPE    HA 2468   7.138   6.289  16.519 -1.7483 -0.8817 -1.1347
   20DOPE    HB 2469   7.080   6.164  16.634  0.0191 -0.3373 -0.7304
   20DOPE    C2 2470   7.200   6.085  16.481 -0.3074 -0.1416 -0.6700
   20DOPE    HS 2471   7.224   5.996  16.543  0.0231 -0.0857 -0.7143
   20DOPE   O21 2472   7.308   6.124  16.397  0.0578 -0.1136  0.5659
   20DOPE   C21 2473   7.426   6.073  16.435 -0.3119  0.2031 -0.4731
   20DOPE   O22 2474   7.440   5.992  16.530 -0.0251 -0.2315  0.2842
   20DOPE   C22 2475   7.536   6.141  16.358 -0.5836 -0.1143  0.0901
   20DOPE   H2R 2476   7.595   6.189  16.440 -0.7259  0.3474 -0.0725
   20DOPE   H2S 2477   7.500   6.226  16.296 -0.4252  0.2863  0.5387
   20DOPE    C3 2478   7.075   6.051  16.397  0.7959 -0.0553  0.3900
   20DOPE    HX 2479   7.040   6.142  16.345  1.0330  0.4969  1.1826
   20DOPE    HY 2480   6.999   6.019  16.472 -0.6172  0.9323 -0.5738
   20DOPE   O31 2481   7.115   5.955  16.291  0.0114  0.6748  0.0035
   20DOPE   C31 2482   7.021   5.895  16.221  0.2686 -0.0688 -0.3269
   20DOPE   O32 2483   6.902   5.924  16.230 -0.0494  0.2673  0.1833
   20DOPE   C32 2484   7.086   5.774  16.157 -0.2652 -0.2789  0.6387
   20DOPE   H2X 2485   7.157   5.811  16.081 -0.0460  0.0290  0.9942
   20DOPE   H2Y 2486   7.144   5.713  16.229 -1.4593  0.7179  2.5198
   20DOPE   C23 2487   7.624   6.039  16.283  0.1358  0.2869  0.0268
   20DOPE   H3R 2488   7.583   6.010  16.184 -0.7852  1.6387 -0.0136
   20DOPE   H3S 2489   7.634   5.946  16.343  1.4692 -0.1989 -0.8970
   20DOPE   C24 2490   7.773   6.081  16.273  0.1534 -0.2498  0.1068
   20DOPE   H4R 2491   7.820   6.107  16.371  1.6059  2.6317 -1.2353
   20DOPE   H4S 2492   7.769   6.176  16.216  2.8629 -0.0966  0.0423
   20DOPE   C25 2493   7.864   5.998  16.193 -0.6838 -0.2861  0.5363
   20DOPE   H5R 2494   7.816   5.993  16.093 -0.0004 -1.4749  0.2484
   20DOPE   H5S 2495   7.876   5.894  16.232 -0.9699 -0.2192  0.8041
   20DOPE   C26 2496   8.006   6.058  16.181 -0.2564  0.7647  0.6414
   20DOPE   H6R 2497   8.082   5.981  16.154 -0.7572  0.7649 -0.8551
   20DOPE   H6S 2498   8.029   6.093  16.284 -0.0461 -0.7240  1.1158
   20DOPE   C27 2499   8.022   6.174  16.085  0.1937 -0.0765  0.1719
   20DOPE   H7R 2500   7.970   6.269  16.112  0.4170  0.1379 -0.1405
   20DOPE   H7S 2501   7.973   6.144  15.990  0.4899  1.9187 -0.6550
   20DOPE   C28 2502   8.166   6.203  16.035  0.3126  0.0100  0.7087
   20DOPE   H8R 2503   8.169   6.276  15.951  0.9567  0.9402  1.5175
   20DOPE   H8S 2504   8.207   6.110  15.991  1.0965  0.8697 -0.4397
   20DOPE   C29 2505   8.252   6.244  16.146 -0.7149  0.4258  0.0480
   20DOPE   H9R 2506   8.202   6.277  16.239 -1.5087  0.9371 -0.5382
   20DOPE  C210 2507   8.384   6.279  16.136 -0.7475  0.0962  0.4147
   20DOPE  H10R 2508   8.438   6.334  16.215 -0.8334 -1.0041  1.2654
   20DOPE  C211 2509   8.471   6.279  16.015 -0.3868  0.2990  0.2694
   20DOPE  H11R 2510   8.491   6.383  15.984 -1.3548 -0.1364 -1.9951
   20DOPE  H11S 2511   8.420   6.244  15.923  2.5020 -0.3039 -1.2290
   20DOPE  C212 2512   8.599   6.190  16.025  0.4178 -0.1081 -0.0216
   20DOPE  H12R 2513   8.641   6.181  15.923  3.6424  2.0097  0.9666
   20DOPE  H12S 2514   8.578   6.084  16.054  2.5157 -0.5446  0.0249
   20DOPE  C213 2515   8.715   6.241  16.108 -0.1637  0.1957 -0.5829
   20DOPE  H13R 2516   8.676   6.226  16.211 -0.2509 -1.1024 -0.7797
   20DOPE  H13S 2517   8.731   6.348  16.083 -0.0288  1.1487  3.0027
   20DOPE  C214 2518   8.844   6.159  16.087  0.8998 -0.3756  0.0596
   20DOPE  H14R 2519   8.904   6.184  16.177  1.5397  1.4084 -0.8060
   20DOPE  H14S 2520   8.894   6.195  15.994  2.2059  1.4871  1.3857
   20DOPE  C215 2521   8.819   6.002  16.092  0.1852  0.1112  0.7804
   20DOPE  H15R 2522   8.912   5.948  16.064 -0.9687 -1.0878 -0.8753
   20DOPE  H15S 2523   8.742   5.976  16.016 -0.0806  1.0467  0.7180
   20DOPE  C216 2524   8.771   5.946  16.229 -0.4218  0.1647  0.0797
   20DOPE  H16R 2525   8.666   5.978  16.246 -1.1515 -2.4363  1.1027
   20DOPE  H16S 2526   8.845   5.986  16.302  0.8942  0.3517 -1.3083
   20DOPE  C217 2527   8.781   5.788  16.216 -0.2133  0.2280 -0.3520
   20DOPE  H17R 2528   8.871   5.763  16.156 -0.6007  0.1191 -0.9008
   20DOPE  H17S 2529   8.694   5.740  16.166  1.4950 -2.2391 -1.1948
   20DOPE  C218 2530   8.801   5.719  16.353  0.0225  0.0911 -0.5554
   20DOPE  H18R 2531   8.880   5.763  16.416 -2.1264  0.2644  2.2065
   20DOPE  H18S 2532   8.824   5.610  16.344  2.1045  0.5362 -1.1458
   20DOPE  H18T 2533   8.705   5.727  16.409  0.7255  0.8551  0.5721
   20DOPE   C33 2534   6.989   5.676  16.083 -0.0244  0.1476  0.2168
   20DOPE   H3X 2535   6.944   5.736  16.001 -1.8736 -0.9071  0.4249
   20DOPE   H3Y 2536   6.905   5.647  16.149 -1.5504  1.9059 -0.8638
   20DOPE   C34 2537   7.034   5.551  16.012 -0.3554  0.0243  0.2722
   20DOPE   H4X 2538   7.119   5.577  15.946  0.8130  0.2110  1.7879
   20DOPE   H4Y 2539   7.070   5.479  16.088  1.1651  0.8630  0.3838
   20DOPE   C35 2540   6.920   5.477  15.935 -0.3205 -0.0830  0.4251
   20DOPE   H5X 2541   6.839   5.544  15.899 -0.8666 -0.8694  0.1627
   20DOPE   H5Y 2542   6.868   5.415  16.012 -0.0712  0.8579  1.3835
   20DOPE   C36 2543   6.966   5.383  15.831  0.3801  0.3970  0.2896
   20DOPE   H6X 2544   7.022   5.299  15.877  0.5172  0.0172 -0.5457
   20DOPE   H6Y 2545   7.036   5.442  15.767 -1.1868  0.0684 -1.8353
   20DOPE   C37 2546   6.853   5.329  15.742 -0.4859 -0.2514  0.5136
   20DOPE   H7X 2547   6.884   5.237  15.689 -3.5623 -2.0888  1.6781
   20DOPE   H7Y 2548   6.764   5.304  15.803 -0.0873 -0.9639  0.8239
   20DOPE   C38 2549   6.810   5.438  15.631 -0.8776 -0.3324 -0.0590
   20DOPE   H8X 2550   6.761   5.524  15.682  0.9484  1.0919 -0.5940
   20DOPE   H8Y 2551   6.742   5.371  15.575  2.2568 -2.0192 -2.1257
   20DOPE   C39 2552   6.918   5.495  15.535 -0.2999  0.1994 -0.0358
   20DOPE   H9X 2553   7.004   5.427  15.537 -1.5675 -1.5101 -0.2871
   20DOPE  C310 2554   6.911   5.603  15.460  0.1637 -0.1354 -0.5410
   20DOPE  H10X 2555   7.001   5.632  15.403  0.8971 -1.8437 -0.3273
   20DOPE  C311 2556   6.786   5.692  15.459 -0.8059  0.4590 -1.2741
   20DOPE  H11X 2557   6.709   5.657  15.531  1.2400  0.4092  1.0226
   20DOPE  H11Y 2558   6.800   5.801  15.474 -0.4315  0.1048  1.6051
   20DOPE  C312 2559   6.732   5.679  15.315  0.2365 -0.3231 -0.7719
   20DOPE  H12X 2560   6.805   5.674  15.232 -0.0126  0.5886 -1.0549
   20DOPE  H12Y 2561   6.651   5.755  15.312  0.6193  0.4100  2.9660
   20DOPE  C313 2562   6.651   5.551  15.292  0.0171  0.1112 -1.6774
   20DOPE  H13X 2563   6.707   5.459  15.317 -1.3105 -0.1802  0.5172
   20DOPE  H13Y 2564   6.571   5.541  15.369  2.0679 -1.9219  0.3506
   20DOPE  C314 2565   6.584   5.553  15.154  0.0022  0.2994  0.4787
   20DOPE  H14X 2566   6.662   5.568  15.076  0.8071  2.4954  1.5987
   20DOPE  H14Y 2567   6.522   5.643  15.137  0.5577  0.6427  0.2434
   20DOPE  C315 2568   6.507   5.426  15.124 -0.4582  0.0177  0.1679
   20DOPE  H15X 2569   6.432   5.411  15.204 -0.2755 -1.5786  0.0834
   20DOPE  H15Y 2570   6.588   5.349  15.128  0.9174  1.4272  0.2395
   20DOPE  C316 2571   6.452   5.410  14.980  0.4786 -0.0787  0.3198
   20DOPE  H16X 2572   6.384   5.322  14.979 -1.1032  1.0269 -3.1156
   20DOPE  H16Y 2573   6.527   5.392  14.900  0.1433  2.0095 -0.5137
   20DOPE  C317 2574   6.368   5.532  14.931 -0.3496  0.2812  0.5060
   20DOPE  H17X 2575   6.295   5.568  15.005  1.1071  0.5209  1.8816
   20DOPE  H17Y 2576   6.439   5.617  14.933  0.2032 -0.0608  4.8360
   20DOPE  C318 2577   6.314   5.511  14.792 -0.1374  0.1300 -0.8561
   20DOPE  H18X 2578   6.244   5.593  14.767 -1.8813 -0.1448  2.6547
   20DOPE  H18Y 2579   6.392   5.475  14.721  1.7906  1.3225  0.5603
   20DOPE  H18Z 2580   6.237   5.431  14.805  0.2960 -0.5541 -2.2233
   21DOPE     N 2581   3.476   5.730  17.064  0.0754  0.0039 -0.3394
   21DOPE   HN1 2582   3.546   5.797  17.100  0.9210 -0.7752 -0.5166
   21DOPE   HN2 2583   3.412   5.716  17.145 -0.1838  1.1861 -0.3219
   21DOPE   HN3 2584   3.518   5.639  17.036  1.8548  0.4543  0.7191
   21DOPE   C12 2585   3.395   5.789  16.941  0.8018 -0.3375 -0.6326
   21DOPE  H12A 2586   3.323   5.856  16.993  0.9684 -0.6424  0.0024
   21DOPE  H12B 2587   3.341   5.705  16.893 -1.5498  1.0033 -0.4782
   21DOPE   C11 2588   3.481   5.862  16.843  0.1574  0.5884  0.2161
   21DOPE  H11A 2589   3.428   5.880  16.747 -0.8535 -0.6510  0.5163
   21DOPE  H11B 2590   3.566   5.792  16.826  0.9967  1.0778  2.2056
   21DOPE     P 2591   3.668   6.014  16.961 -0.2380  0.0681 -0.5965
   21DOPE   O13 2592   3.706   5.895  17.047 -0.9316 -0.3448  0.5360
   21DOPE   O14 2593   3.654   6.144  17.029  0.5956  0.2000 -0.4733
   21DOPE   O11 2594   3.770   6.031  16.833  0.0954 -0.0008  0.1763
   21DOPE   O12 2595   3.524   5.983  16.906 -0.4467 -0.1264  0.8057
   21DOPE    C1 2596   3.742   6.144  16.762 -0.3695  0.6513  0.8914
   21DOPE    HA 2597   3.807   6.224  16.802  0.3676 -0.3716  1.7714
   21DOPE    HB 2598   3.641   6.189  16.772 -0.1274  0.8008  3.0163
   21DOPE    C2 2599   3.779   6.130  16.609  0.2863 -0.1018 -0.3538
   21DOPE    HS 2600   3.722   6.211  16.559  1.0437  2.9874  3.3440
   21DOPE   O21 2601   3.740   5.998  16.567  0.2035 -0.1816  0.7753
   21DOPE   C21 2602   3.631   5.980  16.494 -0.0590 -0.3574 -0.6411
   21DOPE   O22 2603   3.555   6.066  16.454 -0.6031  0.2280  0.1114
   21DOPE   C22 2604   3.620   5.834  16.463  0.2345 -0.0787  0.2225
   21DOPE   H2R 2605   3.517   5.801  16.488  0.2211 -0.2621 -0.0736
   21DOPE   H2S 2606   3.697   5.783  16.525  0.3944 -0.6685 -0.4520
   21DOPE    C3 2607   3.927   6.153  16.581  0.1554 -0.1613  0.4245
   21DOPE    HX 2608   3.988   6.088  16.647 -1.5006  0.0661  2.2709
   21DOPE    HY 2609   3.948   6.258  16.610  0.3682 -0.2588  0.6254
   21DOPE   O31 2610   3.959   6.139  16.441 -0.2407  0.8845 -0.2573
   21DOPE   C31 2611   4.061   6.063  16.400  0.1451 -0.2851  0.2912
   21DOPE   O32 2612   4.127   5.985  16.469 -0.2385  0.2195  0.2421
   21DOPE   C32 2613   4.083   6.077  16.252 -0.3725 -0.0454 -0.1414
   21DOPE   H2X 2614   3.981   6.069  16.208 -0.5838 -0.0008  0.3394
   21DOPE   H2Y 2615   4.119   6.180  16.231 -2.9698  1.2433  1.2987
   21DOPE   C23 2616   3.651   5.788  16.320 -0.5284 -0.3063 -0.0390
   21DOPE   H3R 2617   3.597   5.853  16.248 -1.4296 -0.2765  0.6398
   21DOPE   H3S 2618   3.597   5.691  16.309 -3.8070  1.4629 -1.1167
   21DOPE   C24 2619   3.798   5.782  16.281  0.2038 -0.3650 -0.0556
   21DOPE   H4R 2620   3.846   5.702  16.341  0.5803  0.2948  0.5487
   21DOPE   H4S 2621   3.843   5.882  16.299  0.0781 -0.4873  0.9962
   21DOPE   C25 2622   3.822   5.752  16.133  0.1452 -0.5676 -0.2137
   21DOPE   H5R 2623   3.922   5.705  16.123 -0.7904 -2.3848 -1.5827
   21DOPE   H5S 2624   3.809   5.838  16.064 -0.6447  0.6350  1.3484
   21DOPE   C26 2625   3.736   5.642  16.066 -0.4471  0.1050 -0.8933
   21DOPE   H6R 2626   3.639   5.688  16.035  0.3711  1.6854 -1.1784
   21DOPE   H6S 2627   3.720   5.557  16.135 -1.3878  0.6791 -0.3751
   21DOPE   C27 2628   3.794   5.583  15.937 -0.2345  0.4547  0.6869
   21DOPE   H7R 2629   3.722   5.510  15.896 -0.9786  2.0445 -0.9939
   21DOPE   H7S 2630   3.888   5.535  15.973 -0.6957 -0.9042  0.1008
   21DOPE   C28 2631   3.812   5.687  15.824  0.0414  0.0988  0.5005
   21DOPE   H8R 2632   3.847   5.627  15.737 -0.8617 -0.4330  0.4995
   21DOPE   H8S 2633   3.901   5.750  15.850 -0.4295  1.1788 -0.4276
   21DOPE   C29 2634   3.690   5.769  15.787  0.6409 -0.1341  0.2149
   21DOPE   H9R 2635   3.646   5.825  15.871 -1.6156 -1.3504 -0.0704
   21DOPE  C210 2636   3.618   5.765  15.668 -0.0601 -0.8914  0.3927
   21DOPE  H10R 2637   3.539   5.839  15.650  2.3162  2.1384  1.5692
   21DOPE  C211 2638   3.654   5.686  15.544  0.1913 -1.1160  0.3141
   21DOPE  H11R 2639   3.559   5.645  15.504  0.1040 -0.9498  0.3526
   21DOPE  H11S 2640   3.703   5.592  15.579 -1.1699 -1.3697  1.6346
   21DOPE  C212 2641   3.736   5.751  15.438  0.3647  0.4370 -0.0884
   21DOPE  H12R 2642   3.842   5.759  15.468  0.1488 -0.5021  1.0003
   21DOPE  H12S 2643   3.706   5.857  15.424  0.4116  0.2875 -1.5004
   21DOPE  C213 2644   3.721   5.692  15.298  0.1002 -0.1778  0.3634
   21DOPE  H13R 2645   3.771   5.758  15.224  2.9800 -1.5422  0.9506
   21DOPE  H13S 2646   3.616   5.668  15.274  0.4456 -1.9978  0.5539
   21DOPE  C214 2647   3.798   5.557  15.282  0.2401 -0.0878 -0.5297
   21DOPE  H14R 2648   3.745   5.487  15.349  2.3453 -1.2829  0.0020
   21DOPE  H14S 2649   3.901   5.584  15.313  0.1623 -0.9008  0.4881
   21DOPE  C215 2650   3.808   5.511  15.134 -0.8330 -0.4547  0.3896
   21DOPE  H15R 2651   3.875   5.579  15.076 -1.9636  0.4115  0.0648
   21DOPE  H15S 2652   3.707   5.512  15.089 -0.5484 -0.6156 -0.2634
   21DOPE  C216 2653   3.880   5.380  15.135  0.0801 -0.1663  0.0988
   21DOPE  H16R 2654   3.816   5.304  15.186  1.1577 -1.2885 -0.1835
   21DOPE  H16S 2655   3.980   5.384  15.184  0.7259 -1.9888 -0.9756
   21DOPE  C217 2656   3.910   5.324  14.994 -0.7908 -0.4550 -0.0792
   21DOPE  H17R 2657   3.986   5.388  14.945  1.4838 -3.2171 -0.3922
   21DOPE  H17S 2658   3.816   5.327  14.935 -0.9731 -3.3429 -0.0944
   21DOPE  C218 2659   3.961   5.177  14.999  0.1715  0.1232  0.7522
   21DOPE  H18R 2660   4.058   5.164  15.051  1.0425 -0.0219 -0.8498
   21DOPE  H18S 2661   3.982   5.146  14.894 -0.4365 -1.3050  1.0216
   21DOPE  H18T 2662   3.897   5.095  15.039  0.2587 -0.3180  0.0285
   21DOPE   C33 2663   4.164   5.953  16.202 -0.4309  0.0115  0.1263
   21DOPE   H3X 2664   4.127   5.848  16.211  1.0816 -0.5476  0.2501
   21DOPE   H3Y 2665   4.255   5.941  16.266 -2.1542 -3.3328  2.2556
   21DOPE   C34 2666   4.208   5.966  16.058  0.9654 -0.5996  0.2456
   21DOPE   H4X 2667   4.266   6.061  16.058  2.5190 -1.5124 -1.5541
   21DOPE   H4Y 2668   4.282   5.885  16.043  0.2341 -1.1506 -0.4269
   21DOPE   C35 2669   4.103   5.960  15.953  0.3870  0.6156 -0.5226
   21DOPE   H5X 2670   4.021   6.036  15.956 -1.4683 -1.3158  0.1266
   21DOPE   H5Y 2671   4.054   5.861  15.961  1.3586  0.1265 -0.4752
   21DOPE   C36 2672   4.165   5.973  15.817  0.0406 -0.1108  0.6850
   21DOPE   H6X 2673   4.269   5.933  15.821  0.5210  1.1169  0.9109
   21DOPE   H6Y 2674   4.183   6.083  15.812  1.9321 -0.3925  0.6781
   21DOPE   C37 2675   4.081   5.919  15.698 -0.1550 -0.6197 -0.5818
   21DOPE   H7X 2676   4.055   5.811  15.705 -0.5104 -0.6492 -2.1833
   21DOPE   H7Y 2677   3.983   5.970  15.703  0.2779  0.5945 -3.1045
   21DOPE   C38 2678   4.149   5.977  15.564 -0.3679  0.2349 -0.6447
   21DOPE   H8X 2679   4.100   5.931  15.475  0.1564 -2.3604  0.3113
   21DOPE   H8Y 2680   4.257   5.950  15.560 -0.9285 -3.3962  2.2908
   21DOPE   C39 2681   4.126   6.130  15.555  0.0988  0.5400 -0.8637
   21DOPE   H9X 2682   4.023   6.167  15.564 -0.7904 -1.7436 -1.1572
   21DOPE  C310 2683   4.231   6.208  15.533  0.0813 -0.3384 -0.5449
   21DOPE  H10X 2684   4.210   6.316  15.538 -1.6500 -0.7144  1.8101
   21DOPE  C311 2685   4.380   6.172  15.514 -0.3913 -0.8575  0.2036
   21DOPE  H11X 2686   4.415   6.067  15.527  4.5886  0.7127  1.9193
   21DOPE  H11Y 2687   4.421   6.204  15.416 -0.2218 -2.0496 -0.1365
   21DOPE  C312 2688   4.472   6.248  15.621 -0.0600 -0.0544  0.1391
   21DOPE  H12X 2689   4.451   6.357  15.617  3.7269  0.8094 -0.1071
   21DOPE  H12Y 2690   4.573   6.234  15.578  0.2966  1.3244  0.5136
   21DOPE  C313 2691   4.457   6.188  15.765  0.3590 -0.3475 -0.3204
   21DOPE  H13X 2692   4.355   6.216  15.799 -0.1429 -2.0472 -0.3181
   21DOPE  H13Y 2693   4.451   6.077  15.766 -0.4447 -0.3141 -0.0388
   21DOPE  C314 2694   4.549   6.250  15.871 -0.3709 -0.2901 -0.2366
   21DOPE  H14X 2695   4.568   6.355  15.843  2.0353 -1.1796 -2.2557
   21DOPE  H14Y 2696   4.650   6.205  15.866 -0.1282 -0.1468  2.1632
   21DOPE  C315 2697   4.482   6.236  16.011 -0.1471  0.2302 -0.6455
   21DOPE  H15X 2698   4.530   6.148  16.061  1.2946  1.6027  0.5306
   21DOPE  H15Y 2699   4.373   6.221  16.001 -0.1702  0.6378 -1.0371
   21DOPE  C316 2700   4.524   6.356  16.101  0.8074  0.3210  0.2137
   21DOPE  H16X 2701   4.501   6.449  16.045 -2.4649 -0.5814 -0.1503
   21DOPE  H16Y 2702   4.635   6.354  16.109  0.9462 -0.3963 -1.4927
   21DOPE  C317 2703   4.440   6.366  16.229  0.1663  0.0974 -0.2561
   21DOPE  H17X 2704   4.336   6.360  16.192 -0.6101  2.6740  1.2810
   21DOPE  H17Y 2705   4.465   6.274  16.287  1.1006  1.4076  1.5169
   21DOPE  C318 2706   4.464   6.488  16.309 -0.0182  0.6168 -0.5546
   21DOPE  H18X 2707   4.453   6.580  16.248  0.4198  0.2371 -1.2282
   21DOPE  H18Y 2708   4.394   6.497  16.395  1.2998  0.5472  0.5498
   21DOPE  H18Z 2709   4.568   6.497  16.346 -0.4691  2.4525  0.3668
   22DOPE     N 2710   1.087   3.353  17.011 -0.5545 -0.0304 -0.3848
   22DOPE   HN1 2711   1.182   3.374  17.047 -1.9705  2.2257  2.4439
   22DOPE   HN2 2712   1.065   3.252  17.025 -1.4159 -0.1064 -2.0609
   22DOPE   HN3 2713   1.072   3.380  16.912  0.3528  3.1143  0.2345
   22DOPE   C12 2714   0.985   3.438  17.084  0.0034 -0.5832  0.2269
   22DOPE  H12A 2715   0.981   3.540  17.040 -0.7408 -0.1617  1.2245
   22DOPE  H12B 2716   1.025   3.463  17.185 -3.1446  1.2486  1.1401
   22DOPE   C11 2717   0.849   3.367  17.082  0.4793 -0.6659  0.5497
   22DOPE  H11A 2718   0.813   3.370  16.977 -1.3867 -0.5253  1.1608
   22DOPE  H11B 2719   0.779   3.430  17.141 -1.5121 -2.4351  0.1928
   22DOPE     P 2720   0.688   3.171  17.115 -0.0084  0.0996 -0.0872
   22DOPE   O13 2721   0.589   3.242  17.202  0.2816 -0.5062 -0.2367
   22DOPE   O14 2722   0.699   3.025  17.146  0.3019  0.1785  0.4330
   22DOPE   O11 2723   0.656   3.211  16.966  0.4110  0.3475 -0.6102
   22DOPE   O12 2724   0.835   3.241  17.143  0.4861  0.2630 -0.0938
   22DOPE    C1 2725   0.619   3.102  16.879  0.2971 -0.1937  0.4680
   22DOPE    HA 2726   0.513   3.112  16.848  0.1611  0.8388  1.1854
   22DOPE    HB 2727   0.619   3.002  16.927 -0.2714  0.5380  2.0750
   22DOPE    C2 2728   0.702   3.097  16.750  0.2674 -0.5854 -0.1015
   22DOPE    HS 2729   0.806   3.134  16.763  0.2206 -0.7328  0.7893
   22DOPE   O21 2730   0.631   3.174  16.646 -0.1291 -0.5362  0.0280
   22DOPE   C21 2731   0.635   3.309  16.657 -0.2557  0.0609 -0.6389
   22DOPE   O22 2732   0.713   3.368  16.730  0.1518  0.5255 -0.3588
   22DOPE   C22 2733   0.530   3.377  16.565  0.6325 -0.2148  0.1593
   22DOPE   H2R 2734   0.508   3.469  16.624  0.5103 -0.8619  1.1332
   22DOPE   H2S 2735   0.440   3.312  16.564  0.3348  0.1881  0.4618
   22DOPE    C3 2736   0.716   2.946  16.706 -0.7242 -0.3572  0.6142
   22DOPE    HX 2737   0.611   2.911  16.719 -0.7099 -0.4287  0.5406
   22DOPE    HY 2738   0.786   2.890  16.772 -0.5267  1.2040  1.7822
   22DOPE   O31 2739   0.762   2.937  16.564 -0.0931 -0.2239 -1.0001
   22DOPE   C31 2740   0.664   2.938  16.470  0.4342  0.0249 -0.6340
   22DOPE   O32 2741   0.548   2.955  16.494  0.0589 -0.1129  0.2090
   22DOPE   C32 2742   0.724   2.918  16.328  0.2538  0.1154 -0.2948
   22DOPE   H2X 2743   0.812   2.983  16.310  1.6122 -1.7075 -0.5745
   22DOPE   H2Y 2744   0.765   2.814  16.330 -0.8418 -0.3986 -2.2823
   22DOPE   C23 2745   0.591   3.419  16.430 -0.3811 -0.6824 -0.6300
   22DOPE   H3R 2746   0.621   3.338  16.360 -0.7574 -0.2751 -1.2710
   22DOPE   H3S 2747   0.687   3.467  16.455 -1.1841  1.4023 -1.3674
   22DOPE   C24 2748   0.504   3.521  16.358  0.0958 -0.8411  0.0191
   22DOPE   H4R 2749   0.570   3.585  16.296  2.3322 -0.2882  2.7725
   22DOPE   H4S 2750   0.457   3.584  16.436  0.2795 -0.6537 -0.0214
   22DOPE   C25 2751   0.406   3.452  16.264  0.9003  0.0368 -0.7359
   22DOPE   H5R 2752   0.347   3.533  16.215  3.3128  2.6891  0.4326
   22DOPE   H5S 2753   0.338   3.392  16.327  3.5308 -0.9337  1.3472
   22DOPE   C26 2754   0.457   3.340  16.172 -0.3876 -0.2437 -0.0920
   22DOPE   H6R 2755   0.371   3.288  16.124  0.0198  0.5802 -1.7810
   22DOPE   H6S 2756   0.524   3.263  16.216  0.1239  1.2276  1.8182
   22DOPE   C27 2757   0.527   3.408  16.051  0.3685 -0.3522 -0.1618
   22DOPE   H7R 2758   0.621   3.451  16.089  0.4317  0.3031 -1.0386
   22DOPE   H7S 2759   0.456   3.488  16.020 -0.1376 -1.7825 -3.0958
   22DOPE   C28 2760   0.555   3.314  15.940 -0.1242  0.0541 -0.1524
   22DOPE   H8R 2761   0.463   3.292  15.883  0.1773 -0.1777 -0.5530
   22DOPE   H8S 2762   0.583   3.215  15.982  0.1847  0.0207 -0.4326
   22DOPE   C29 2763   0.652   3.373  15.839  0.0871 -0.4554 -0.1772
   22DOPE   H9R 2764   0.675   3.481  15.837  0.0680 -0.4346 -2.5874
   22DOPE  C210 2765   0.695   3.312  15.726  0.3180  0.1536 -0.5675
   22DOPE  H10R 2766   0.770   3.371  15.671 -0.4955  0.5446 -1.3022
   22DOPE  C211 2767   0.688   3.167  15.691 -0.1160 -0.1685 -0.0585
   22DOPE  H11R 2768   0.580   3.141  15.686  0.1760 -1.6737  0.8987
   22DOPE  H11S 2769   0.730   3.106  15.774 -0.8666 -3.3325 -1.8244
   22DOPE  C212 2770   0.762   3.134  15.561  0.4542  0.2796 -0.8014
   22DOPE  H12R 2771   0.766   3.024  15.547 -2.1560  0.0469 -0.1437
   22DOPE  H12S 2772   0.870   3.161  15.554  1.2595 -1.8208  1.8466
   22DOPE  C213 2773   0.685   3.205  15.448  0.3208 -0.5040 -0.2115
   22DOPE  H13R 2774   0.639   3.301  15.480 -0.1442 -1.3838  1.9571
   22DOPE  H13S 2775   0.603   3.140  15.411 -0.3124  0.0878  0.1245
   22DOPE  C214 2776   0.763   3.229  15.321 -0.0244 -0.4989  0.0820
   22DOPE  H14R 2777   0.839   3.150  15.335 -0.0447 -0.6735 -0.7590
   22DOPE  H14S 2778   0.821   3.324  15.323 -1.7545  0.6398 -0.9012
   22DOPE  C215 2779   0.690   3.201  15.192  0.0779 -0.8625 -0.5146
   22DOPE  H15R 2780   0.608   3.275  15.181 -0.7386 -1.8850 -1.5296
   22DOPE  H15S 2781   0.634   3.106  15.208  0.1196 -0.7453  0.3587
   22DOPE  C216 2782   0.781   3.190  15.068 -0.4546 -0.3434  0.5386
   22DOPE  H16R 2783   0.814   3.084  15.068 -1.3578 -0.7267  3.6872
   22DOPE  H16S 2784   0.879   3.238  15.089 -0.7928  0.1517  1.0331
   22DOPE  C217 2785   0.719   3.218  14.931 -0.4307  0.9234 -0.1253
   22DOPE  H17R 2786   0.641   3.145  14.900  1.1512 -1.3898  1.0508
   22DOPE  H17S 2787   0.798   3.201  14.856  0.4883  0.4340  0.9272
   22DOPE  C218 2788   0.666   3.357  14.916  0.5776 -0.9893 -0.0608
   22DOPE  H18R 2789   0.745   3.431  14.944  0.4951 -0.9671  0.1211
   22DOPE  H18S 2790   0.578   3.374  14.983  0.7299 -1.8904  0.3836
   22DOPE  H18T 2791   0.639   3.385  14.812  2.3103 -1.3401 -0.6389
   22DOPE   C33 2792   0.618   2.926  16.209 -0.3342  0.3744  0.0199
   22DOPE   H3X 2793   0.538   3.000  16.231 -2.3352 -1.8637  0.8170
   22DOPE   H3Y 2794   0.567   2.827  16.207  0.8577 -0.2655  0.5571
   22DOPE   C34 2795   0.691   2.951  16.080  0.4192  0.2204  0.2800
   22DOPE   H4X 2796   0.616   3.007  16.020 -0.3872  0.6618  1.6394
   22DOPE   H4Y 2797   0.771   3.026  16.101 -0.7533  1.6099 -0.0539
   22DOPE   C35 2798   0.739   2.819  16.012  0.5751  0.7867 -0.1942
   22DOPE   H5X 2799   0.648   2.757  15.995 -0.5536  2.3940 -0.3345
   22DOPE   H5Y 2800   0.805   2.760  16.078  1.5730  1.1585 -0.8293
   22DOPE   C36 2801   0.819   2.840  15.890 -0.4211 -0.4485  0.1350
   22DOPE   H6X 2802   0.915   2.883  15.923 -0.1124 -2.2593  1.7799
   22DOPE   H6Y 2803   0.778   2.912  15.816  1.0472 -1.0336 -1.3135
   22DOPE   C37 2804   0.851   2.714  15.810 -0.2921 -0.3974  0.0942
   22DOPE   H7X 2805   0.832   2.620  15.866  0.3115 -0.6720 -0.1589
   22DOPE   H7Y 2806   0.787   2.702  15.720 -0.7992 -2.4564  0.6810
   22DOPE   C38 2807   1.003   2.724  15.765  0.1189 -0.5263 -0.6078
   22DOPE   H8X 2808   1.055   2.707  15.862  0.8830 -0.1442 -0.9459
   22DOPE   H8Y 2809   1.021   2.831  15.744 -0.4510 -0.4373 -0.6662
   22DOPE   C39 2810   1.039   2.626  15.654  0.2915  0.5898 -0.5042
   22DOPE   H9X 2811   1.070   2.525  15.687 -0.1622  0.6236  0.0311
   22DOPE  C310 2812   1.049   2.667  15.529  0.1959  0.4099  0.1641
   22DOPE  H10X 2813   1.082   2.589  15.458  1.0424 -1.0781  2.1034
   22DOPE  C311 2814   1.015   2.805  15.474  0.7633 -0.0606  0.7786
   22DOPE  H11X 2815   1.006   2.885  15.551 -1.4440  1.4735 -0.9571
   22DOPE  H11Y 2816   1.098   2.831  15.405 -0.6215 -0.7725 -1.2367
   22DOPE  C312 2817   0.885   2.815  15.384 -0.3005  0.9395 -0.1932
   22DOPE  H12X 2818   0.873   2.912  15.330 -2.9830 -0.5746 -2.5926
   22DOPE  H12Y 2819   0.791   2.809  15.441  0.8245 -0.3825  1.6386
   22DOPE  C313 2820   0.875   2.709  15.271  0.0645 -0.1299 -0.0215
   22DOPE  H13X 2821   0.981   2.697  15.240 -0.4634 -0.4190 -1.7976
   22DOPE  H13Y 2822   0.839   2.613  15.313  0.4682 -0.3529 -0.1832
   22DOPE  C314 2823   0.805   2.763  15.144 -0.3670 -0.4146  0.3807
   22DOPE  H14X 2824   0.805   2.677  15.074 -2.4381 -1.4699  1.5480
   22DOPE  H14Y 2825   0.848   2.854  15.099  0.5313  0.1264  2.2526
   22DOPE  C315 2826   0.657   2.812  15.173 -0.3793  0.1484 -0.2177
   22DOPE  H15X 2827   0.662   2.899  15.241  0.9550 -1.2226  1.5521
   22DOPE  H15Y 2828   0.615   2.731  15.237  3.9604 -2.6413 -0.4487
   22DOPE  C316 2829   0.589   2.845  15.039 -0.4826  0.3407  0.8621
   22DOPE  H16X 2830   0.592   2.752  14.979  2.8790  0.2436  0.9911
   22DOPE  H16Y 2831   0.652   2.920  14.986  0.3365 -0.4095  0.7491
   22DOPE  C317 2832   0.438   2.882  15.046  0.7305 -0.2824 -0.4438
   22DOPE  H17X 2833   0.422   2.978  15.099 -3.7421 -1.0005 -0.0909
   22DOPE  H17Y 2834   0.411   2.907  14.941 -0.4325  1.3881  0.2264
   22DOPE  C318 2835   0.344   2.779  15.104 -0.0728  1.0079 -0.4349
   22DOPE  H18X 2836   0.378   2.763  15.209  1.6929 -0.4039 -1.1636
   22DOPE  H18Y 2837   0.236   2.804  15.102 -0.8691 -1.8602  1.2150
   22DOPE  H18Z 2838   0.360   2.687  15.043 -1.8658  0.9831 -0.9351
   23DOPE     N 2839   5.833   7.164  16.931 -1.1422  0.5726 -0.2591
   23DOPE   HN1 2840   5.775   7.167  17.017 -0.6771 -1.2861  0.1583
   23DOPE   HN2 2841   5.808   7.078  16.878  0.3923  0.3968 -0.7411
   23DOPE   HN3 2842   5.935   7.157  16.953 -1.4794 -0.2088  1.2107
   23DOPE   C12 2843   5.798   7.287  16.856  0.0785 -0.4197 -0.5861
   23DOPE  H12A 2844   5.860   7.299  16.764  2.1731  0.3326  0.8483
   23DOPE  H12B 2845   5.837   7.372  16.915  3.1937 -0.1701 -2.7538
   23DOPE   C11 2846   5.644   7.290  16.830  0.2705  0.0078 -0.3975
   23DOPE  H11A 2847   5.611   7.190  16.793 -0.3266  0.0947 -0.1164
   23DOPE  H11B 2848   5.614   7.365  16.753 -2.0759  0.4665  0.8679
   23DOPE     P 2849   5.414   7.291  16.978 -0.1469  0.6033 -0.1545
   23DOPE   O13 2850   5.352   7.397  17.057  0.0713  0.3655 -0.4670
   23DOPE   O14 2851   5.423   7.153  17.034  0.6415 -0.0821  0.2433
   23DOPE   O11 2852   5.354   7.284  16.833  0.5046  0.1656 -0.1367
   23DOPE   O12 2853   5.567   7.330  16.946  0.0529  0.8445  0.4609
   23DOPE    C1 2854   5.321   7.408  16.764  0.0173  0.5409  0.7359
   23DOPE    HA 2855   5.402   7.483  16.778  0.1841  0.8505 -1.4677
   23DOPE    HB 2856   5.223   7.448  16.797  0.8725  2.9898  0.5637
   23DOPE    C2 2857   5.308   7.386  16.610  0.2597 -0.7517  0.5160
   23DOPE    HS 2858   5.213   7.334  16.584  1.3742 -1.6016 -2.2860
   23DOPE   O21 2859   5.426   7.317  16.560 -1.0563 -0.0353 -0.6173
   23DOPE   C21 2860   5.402   7.193  16.533  0.2782 -0.5136  0.2680
   23DOPE   O22 2861   5.292   7.139  16.525  0.5468  0.6777  0.1357
   23DOPE   C22 2862   5.536   7.125  16.503 -0.5000  0.3545 -0.3687
   23DOPE   H2R 2863   5.567   7.065  16.591  3.9960 -1.2500 -2.7133
   23DOPE   H2S 2864   5.619   7.199  16.499  0.6325 -0.9151 -0.9796
   23DOPE    C3 2865   5.299   7.521  16.531 -0.2748 -0.7094 -0.2984
   23DOPE    HX 2866   5.396   7.574  16.537 -0.2036 -0.9089  0.2946
   23DOPE    HY 2867   5.234   7.590  16.588 -1.1715  0.9614 -3.1129
   23DOPE   O31 2868   5.244   7.504  16.401  0.7205 -0.2872  0.0035
   23DOPE   C31 2869   5.322   7.496  16.303 -0.3391  0.2059  0.5409
   23DOPE   O32 2870   5.442   7.501  16.304 -0.3441  0.0879  0.2306
   23DOPE   C32 2871   5.242   7.481  16.173  0.5893  0.1656 -0.1481
   23DOPE   H2X 2872   5.253   7.379  16.133 -1.0475  0.4578 -1.4380
   23DOPE   H2Y 2873   5.137   7.516  16.182  1.3814  3.6722 -2.5342
   23DOPE   C23 2874   5.531   7.045  16.374  0.3544 -0.0728  0.1669
   23DOPE   H3R 2875   5.454   6.965  16.382 -0.7050  0.9636  0.8678
   23DOPE   H3S 2876   5.630   6.997  16.366 -0.4004 -1.7842  0.6667
   23DOPE   C24 2877   5.495   7.120  16.238  0.3893 -0.0769  0.3482
   23DOPE   H4R 2878   5.554   7.214  16.230 -0.6087  0.4387 -1.7128
   23DOPE   H4S 2879   5.387   7.148  16.238  1.1961  3.5126  0.9417
   23DOPE   C25 2880   5.534   7.035  16.119  0.0019 -0.2495  0.0903
   23DOPE   H5R 2881   5.464   6.949  16.112 -0.1413 -0.1715  0.5072
   23DOPE   H5S 2882   5.637   7.002  16.145  0.6884  0.5593 -1.4732
   23DOPE   C26 2883   5.542   7.100  15.976 -1.0188  0.6356  0.1971
   23DOPE   H6R 2884   5.579   7.025  15.903 -2.9304 -1.1519  0.9436
   23DOPE   H6S 2885   5.624   7.174  15.977  1.1256 -1.5088 -2.2389
   23DOPE   C27 2886   5.408   7.167  15.930  0.5705 -0.0495  0.4824
   23DOPE   H7R 2887   5.367   7.218  16.020  1.3584 -0.2445  0.9583
   23DOPE   H7S 2888   5.332   7.088  15.908  1.5670 -0.6515 -0.9047
   23DOPE   C28 2889   5.427   7.275  15.825 -0.7752  0.4091  0.0870
   23DOPE   H8R 2890   5.504   7.346  15.863 -1.1190  1.2872 -0.8119
   23DOPE   H8S 2891   5.333   7.332  15.814 -1.6247 -1.0187 -0.3678
   23DOPE   C29 2892   5.463   7.208  15.693 -0.1833 -0.2298 -0.4902
   23DOPE   H9R 2893   5.409   7.114  15.674  2.7661 -1.8377 -1.5967
   23DOPE  C210 2894   5.557   7.244  15.610 -0.1037 -0.7010 -0.0071
   23DOPE  H10R 2895   5.578   7.173  15.529  0.3174  1.6517 -2.0841
   23DOPE  C211 2896   5.637   7.367  15.623  0.3363 -0.1729  0.9896
   23DOPE  H11R 2897   5.729   7.359  15.684 -0.3139 -1.3584  1.8494
   23DOPE  H11S 2898   5.578   7.454  15.661  0.4379  0.6733 -0.6779
   23DOPE  C212 2899   5.680   7.422  15.484  0.3816 -0.4696 -0.3408
   23DOPE  H12R 2900   5.736   7.345  15.427 -0.2732 -1.1908 -0.0308
   23DOPE  H12S 2901   5.751   7.504  15.507 -0.4426 -0.3523  2.0561
   23DOPE  C213 2902   5.565   7.475  15.394  0.2102  0.2570 -0.8308
   23DOPE  H13R 2903   5.526   7.555  15.460 -0.6183 -0.2379 -0.7115
   23DOPE  H13S 2904   5.478   7.408  15.381 -0.3606  1.2121 -2.0185
   23DOPE  C214 2905   5.609   7.532  15.256 -0.3922 -0.6144 -0.6220
   23DOPE  H14R 2906   5.625   7.451  15.182 -1.9515 -0.6085 -0.9905
   23DOPE  H14S 2907   5.694   7.601  15.277 -2.0590  2.0555 -1.9496
   23DOPE  C215 2908   5.493   7.611  15.205  0.1839 -0.4683 -0.7866
   23DOPE  H15R 2909   5.462   7.692  15.274  0.8735 -0.3510 -0.6085
   23DOPE  H15S 2910   5.397   7.556  15.201 -1.8586  2.7673  0.5034
   23DOPE  C216 2911   5.528   7.678  15.070  0.1698 -0.2389 -0.5227
   23DOPE  H16R 2912   5.517   7.612  14.981 -0.4978  0.8526 -1.2853
   23DOPE  H16S 2913   5.628   7.725  15.068 -1.2108  3.0419 -0.4094
   23DOPE  C217 2914   5.439   7.807  15.040  0.1763 -0.3429  0.7123
   23DOPE  H17R 2915   5.437   7.875  15.129  0.8310 -1.7604  1.8446
   23DOPE  H17S 2916   5.335   7.772  15.023  0.0345 -0.0010  0.8566
   23DOPE  C218 2917   5.488   7.888  14.921 -0.3960 -0.2933 -0.1657
   23DOPE  H18R 2918   5.592   7.926  14.924  0.1936 -1.7824 -1.0395
   23DOPE  H18S 2919   5.428   7.982  14.910  1.2040  0.6177 -1.5337
   23DOPE  H18T 2920   5.481   7.835  14.824  1.3241 -0.5513 -0.1770
   23DOPE   C33 2921   5.298   7.569  16.057  0.0939  0.3790  0.5502
   23DOPE   H3X 2922   5.393   7.526  16.019  0.1025  1.0171 -0.1711
   23DOPE   H3Y 2923   5.309   7.676  16.085 -1.6596  0.5382  0.7913
   23DOPE   C34 2924   5.194   7.565  15.941  0.3119 -0.1242 -0.2562
   23DOPE   H4X 2925   5.160   7.465  15.906 -3.0529  0.8058 -0.0282
   23DOPE   H4Y 2926   5.097   7.608  15.973 -1.3334 -2.6368 -1.5061
   23DOPE   C35 2927   5.240   7.641  15.819 -0.2272 -0.2952 -0.0993
   23DOPE   H5X 2928   5.335   7.599  15.780 -0.8906 -1.6897 -0.3089
   23DOPE   H5Y 2929   5.274   7.739  15.857  0.2640 -0.5781  0.1908
   23DOPE   C36 2930   5.127   7.659  15.716  0.8627  0.0026  0.4820
   23DOPE   H6X 2931   5.059   7.742  15.742 -0.2919 -0.7126 -0.1648
   23DOPE   H6Y 2932   5.060   7.570  15.721 -0.5087  0.9185 -0.8021
   23DOPE   C37 2933   5.169   7.678  15.569 -0.6231 -0.0242  0.2959
   23DOPE   H7X 2934   5.255   7.748  15.561 -0.0080 -0.6580  1.1232
   23DOPE   H7Y 2935   5.208   7.578  15.538  1.3076  0.6482  0.4338
   23DOPE   C38 2936   5.060   7.731  15.469 -0.1294 -0.0453 -0.2738
   23DOPE   H8X 2937   4.998   7.810  15.516 -1.4745 -1.0814 -0.2339
   23DOPE   H8Y 2938   4.988   7.647  15.460  0.0419 -0.1100 -1.0672
   23DOPE   C39 2939   5.115   7.770  15.333 -0.2131 -0.7159  0.3356
   23DOPE   H9X 2940   5.164   7.867  15.320 -0.5067 -0.3702  1.5925
   23DOPE  C310 2941   5.101   7.700  15.221  0.6301  0.4954 -0.2846
   23DOPE  H10X 2942   5.140   7.724  15.121 -1.6177  0.3628 -1.2548
   23DOPE  C311 2943   5.005   7.584  15.200 -0.6462 -0.1810  0.1884
   23DOPE  H11X 2944   5.065   7.498  15.166  0.5119  0.7070 -0.0720
   23DOPE  H11Y 2945   4.956   7.553  15.295  0.7749  0.1267  1.0457
   23DOPE  C312 2946   4.899   7.629  15.090  0.3345 -0.5788 -0.0850
   23DOPE  H12X 2947   4.955   7.648  14.997 -0.9266  3.5760 -0.1892
   23DOPE  H12Y 2948   4.868   7.733  15.117  1.9777  0.0370 -0.4515
   23DOPE  C313 2949   4.776   7.544  15.064  0.1148 -0.4168  0.2760
   23DOPE  H13X 2950   4.817   7.444  15.040  0.6206 -0.1249 -0.1001
   23DOPE  H13Y 2951   4.716   7.552  15.157  0.4215 -0.3489  0.4699
   23DOPE  C314 2952   4.685   7.590  14.942  0.1861 -0.4927  0.0834
   23DOPE  H14X 2953   4.634   7.688  14.956  2.4973  0.9165 -0.6714
   23DOPE  H14Y 2954   4.600   7.519  14.937  0.4967 -0.8001 -2.5212
   23DOPE  C315 2955   4.761   7.601  14.799  0.0908  0.0072 -0.0789
   23DOPE  H15X 2956   4.851   7.536  14.798  1.4433  1.7888 -1.8998
   23DOPE  H15Y 2957   4.795   7.705  14.781 -0.5429 -0.0806 -2.0800
   23DOPE  C316 2958   4.676   7.560  14.673  0.0389 -0.1530 -0.3194
   23DOPE  H16X 2959   4.731   7.592  14.581  0.5458 -0.2293 -0.0463
   23DOPE  H16Y 2960   4.576   7.608  14.674 -0.0823 -0.4107 -0.0330
   23DOPE  C317 2961   4.660   7.403  14.659 -0.3791  0.2507  0.6175
   23DOPE  H17X 2962   4.759   7.363  14.629 -1.8080 -1.7770 -1.8688
   23DOPE  H17Y 2963   4.630   7.356  14.755 -0.8831  0.3539  0.5127
   23DOPE  C318 2964   4.555   7.361  14.558 -0.6474 -0.2374  0.1392
   23DOPE  H18X 2965   4.550   7.250  14.547 -1.1819 -0.1663 -0.3570
   23DOPE  H18Y 2966   4.459   7.407  14.586 -0.1036  0.0908  1.5299
   23DOPE  H18Z 2967   4.583   7.396  14.456  0.8998 -2.1059 -0.1400
   24DOPE     N 2968   7.321   4.692  16.781  0.6653  0.4434  0.0146
   24DOPE   HN1 2969   7.324   4.613  16.849  2.7596 -0.4521 -1.0448
   24DOPE   HN2 2970   7.409   4.686  16.727  0.8925  1.6705  0.2145
   24DOPE   HN3 2971   7.325   4.781  16.836  1.9201 -0.0609  0.7667
   24DOPE   C12 2972   7.205   4.687  16.693 -0.0643  0.1075  0.0049
   24DOPE  H12A 2973   7.113   4.693  16.755 -1.4457  1.2251 -2.0206
   24DOPE  H12B 2974   7.195   4.586  16.647  1.1080  0.6879 -1.5859
   24DOPE   C11 2975   7.213   4.792  16.582  0.2814 -0.0536 -0.2325
   24DOPE  H11A 2976   7.116   4.771  16.531 -0.1401 -0.7462  0.8349
   24DOPE  H11B 2977   7.300   4.777  16.514  0.8564  1.4332  0.1433
   24DOPE     P 2978   7.195   5.036  16.527  0.5976  0.6806  0.2519
   24DOPE   O13 2979   7.292   5.148  16.555 -0.2120 -0.1049  0.3859
   24DOPE   O14 2980   7.055   5.070  16.554 -0.4078  0.1935  0.5407
   24DOPE   O11 2981   7.217   4.967  16.389 -0.3530  0.3718 -0.4595
   24DOPE   O12 2982   7.227   4.920  16.629  0.0376 -0.8302  0.1357
   24DOPE    C1 2983   7.267   5.043  16.279  0.3057  0.3565  0.0089
   24DOPE    HA 2984   7.363   5.093  16.304  0.4867 -0.1861  0.4302
   24DOPE    HB 2985   7.198   5.127  16.256 -0.2961 -0.9044 -3.5353
   24DOPE    C2 2986   7.268   4.956  16.149  0.0101 -0.1573 -0.4643
   24DOPE    HS 2987   7.307   5.020  16.067  1.1601  1.2250  1.1059
   24DOPE   O21 2988   7.138   4.902  16.121 -0.3592 -0.5811  0.2242
   24DOPE   C21 2989   7.052   4.990  16.070 -0.0069 -0.1317  0.0618
   24DOPE   O22 2990   7.066   5.110  16.064  0.0146  0.1366  0.1842
   24DOPE   C22 2991   6.927   4.907  16.022  0.1282 -0.4842  0.6716
   24DOPE   H2R 2992   6.845   4.909  16.097 -0.8576 -0.4153 -0.3867
   24DOPE   H2S 2993   6.963   4.805  15.998  3.0306  0.7491 -0.7173
   24DOPE    C3 2994   7.368   4.836  16.159 -0.3606 -0.1875  0.1409
   24DOPE    HX 2995   7.338   4.773  16.246  1.2058 -0.3195  0.6232
   24DOPE    HY 2996   7.470   4.867  16.190 -0.9318  0.3018  1.6012
   24DOPE   O31 2997   7.361   4.743  16.048 -0.2267 -0.9224 -0.4646
   24DOPE   C31 2998   7.415   4.626  16.064  0.0072  0.4750 -0.4935
   24DOPE   O32 2999   7.485   4.591  16.161  0.9326  0.6515  0.7463
   24DOPE   C32 3000   7.395   4.542  15.931 -0.0736  0.5162 -0.5960
   24DOPE   H2X 3001   7.290   4.506  15.929  0.9860 -3.0428  0.6092
   24DOPE   H2Y 3002   7.411   4.606  15.842 -1.4973 -1.1515 -2.1198
   24DOPE   C23 3003   6.881   4.966  15.884  0.8257 -0.0864 -0.2099
   24DOPE   H3R 3004   6.853   5.072  15.899  0.5868  0.0189 -1.2698
   24DOPE   H3S 3005   6.788   4.915  15.850 -0.3791  2.0222 -0.2291
   24DOPE   C24 3006   6.977   4.953  15.759 -0.6048  0.6475 -0.5798
   24DOPE   H4R 3007   7.057   5.028  15.777 -0.5637  0.6048 -0.5863
   24DOPE   H4S 3008   6.923   4.973  15.665  0.4335 -0.3301 -1.4121
   24DOPE   C25 3009   7.038   4.820  15.745 -0.3123  0.7638 -0.3385
   24DOPE   H5R 3010   6.966   4.749  15.698  0.2126  0.6266 -0.9451
   24DOPE   H5S 3011   7.071   4.769  15.839  4.3126 -0.7031 -2.4566
   24DOPE   C26 3012   7.166   4.808  15.664 -1.2681  0.3394 -1.5762
   24DOPE   H6R 3013   7.151   4.833  15.557  1.8085  1.3354 -1.8539
   24DOPE   H6S 3014   7.181   4.698  15.668  0.9823  0.6098 -1.5473
   24DOPE   C27 3015   7.288   4.872  15.735  0.4868  0.2681  0.0171
   24DOPE   H7R 3016   7.307   4.825  15.833 -2.9149 -0.0715  0.6314
   24DOPE   H7S 3017   7.246   4.972  15.759 -3.1815 -0.7416 -1.5305
   24DOPE   C28 3018   7.410   4.911  15.657 -0.6081 -0.6228  0.4810
   24DOPE   H8R 3019   7.474   4.968  15.727 -0.9246 -0.6138  0.7640
   24DOPE   H8S 3020   7.381   4.986  15.580 -0.2905 -0.4983  0.4793
   24DOPE   C29 3021   7.484   4.794  15.593  0.6191 -1.0839 -0.2457
   24DOPE   H9R 3022   7.417   4.746  15.519 -1.3608  1.7497 -0.4561
   24DOPE  C210 3023   7.611   4.761  15.608 -1.0612 -0.6538 -0.4749
   24DOPE  H10R 3024   7.644   4.664  15.568  2.3591  0.7236 -1.3648
   24DOPE  C211 3025   7.717   4.833  15.689 -0.2408 -0.1095 -0.2597
   24DOPE  H11R 3026   7.690   4.940  15.694  0.7054  0.1016  1.2335
   24DOPE  H11S 3027   7.816   4.831  15.639 -1.2439 -3.4725 -2.4381
   24DOPE  C212 3028   7.722   4.783  15.828 -0.4877  0.3545 -0.0879
   24DOPE  H12R 3029   7.778   4.688  15.809  1.8782  2.2197 -3.5575
   24DOPE  H12S 3030   7.617   4.765  15.862 -0.7402  1.0276 -0.5099
   24DOPE  C213 3031   7.797   4.859  15.929  0.0301  0.0405 -0.1682
   24DOPE  H13R 3032   7.757   4.963  15.933  2.2227  0.9227  2.9206
   24DOPE  H13S 3033   7.902   4.875  15.894 -0.4508  1.4910 -1.0310
   24DOPE  C214 3034   7.812   4.776  16.062  0.2938 -0.5042  0.0235
   24DOPE  H14R 3035   7.861   4.678  16.042 -1.1874 -1.0774 -1.0223
   24DOPE  H14S 3036   7.711   4.759  16.104  0.2264 -0.5069 -0.1402
   24DOPE  C215 3037   7.882   4.842  16.185 -0.3604 -0.1745  0.2612
   24DOPE  H15R 3038   7.830   4.810  16.277 -0.6727  0.7727  0.4229
   24DOPE  H15S 3039   7.863   4.949  16.162 -0.5289 -0.4655 -1.0200
   24DOPE  C216 3040   8.037   4.829  16.207  0.1019  0.3777 -0.0381
   24DOPE  H16R 3041   8.076   4.906  16.277  3.1254  1.9377 -3.0915
   24DOPE  H16S 3042   8.101   4.863  16.122  0.4033  1.3382  0.5508
   24DOPE  C217 3043   8.085   4.696  16.266 -0.4827 -0.3057  0.1175
   24DOPE  H17R 3044   8.053   4.610  16.203  0.0390 -0.5404  0.1692
   24DOPE  H17S 3045   8.032   4.679  16.363 -0.3380  3.4681  0.9924
   24DOPE  C218 3046   8.233   4.701  16.276  0.4679  0.4980 -0.7122
   24DOPE  H18R 3047   8.269   4.599  16.301  1.3649  0.1692 -3.1377
   24DOPE  H18S 3048   8.255   4.768  16.362 -2.8188  0.9146 -0.0609
   24DOPE  H18T 3049   8.285   4.730  16.183  0.4302  0.4034 -0.7616
   24DOPE   C33 3050   7.483   4.418  15.916 -0.3028  0.2929  0.6145
   24DOPE   H3X 3051   7.451   4.346  15.993 -2.6610 -2.2254 -2.4434
   24DOPE   H3Y 3052   7.586   4.457  15.934  0.2213 -0.7611 -0.0104
   24DOPE   C34 3053   7.478   4.334  15.787  1.2929 -0.4752  0.2014
   24DOPE   H4X 3054   7.549   4.251  15.802  1.1123 -0.3728  1.8138
   24DOPE   H4Y 3055   7.379   4.284  15.779  0.4881  1.2138 -1.5782
   24DOPE   C35 3056   7.507   4.413  15.660 -0.1143  0.4109  0.2915
   24DOPE   H5X 3057   7.602   4.467  15.679 -1.1775  2.6898 -0.5079
   24DOPE   H5Y 3058   7.429   4.488  15.637  1.4167  1.5236 -1.6318
   24DOPE   C36 3059   7.522   4.321  15.536  0.1567 -0.1324 -0.9577
   24DOPE   H6X 3060   7.418   4.286  15.523  0.4657 -1.9538  0.9238
   24DOPE   H6Y 3061   7.598   4.241  15.548  0.4885  0.2559 -0.3817
   24DOPE   C37 3062   7.553   4.406  15.409  0.9099 -0.6479 -0.5903
   24DOPE   H7X 3063   7.463   4.468  15.390  0.4577  0.2822  3.6332
   24DOPE   H7Y 3064   7.634   4.474  15.445  1.2724 -0.8666 -0.9809
   24DOPE   C38 3065   7.594   4.337  15.277 -0.3874 -0.5511  0.6772
   24DOPE   H8X 3066   7.503   4.283  15.246 -0.9483  0.5288  0.3774
   24DOPE   H8Y 3067   7.673   4.260  15.292  1.0579  0.9065  0.9744
   24DOPE   C39 3068   7.620   4.434  15.163  0.0648  0.5826 -0.3331
   24DOPE   H9X 3069   7.537   4.453  15.095 -1.0524  1.7661  1.2973
   24DOPE  C310 3070   7.751   4.471  15.136 -0.8104  0.5683  0.9326
   24DOPE  H10X 3071   7.777   4.539  15.054  0.7463 -2.0642 -0.9105
   24DOPE  C311 3072   7.862   4.437  15.233 -0.5139 -0.2833  0.6510
   24DOPE  H11X 3073   7.844   4.352  15.302  0.9028 -1.2829 -0.1647
   24DOPE  H11Y 3074   7.959   4.423  15.181 -0.5444  0.3027  0.4252
   24DOPE  C312 3075   7.892   4.555  15.331  0.1059 -0.4138 -0.3760
   24DOPE  H12X 3076   7.803   4.582  15.393  0.6255  1.3725 -0.3482
   24DOPE  H12Y 3077   7.924   4.648  15.279 -1.1152 -0.2867 -0.9458
   24DOPE  C313 3078   8.019   4.518  15.417  0.9383 -0.8593 -0.0213
   24DOPE  H13X 3079   7.995   4.430  15.482 -0.8829 -1.5277 -1.5157
   24DOPE  H13Y 3080   8.100   4.490  15.347  1.7094 -1.1991  0.9758
   24DOPE  C314 3081   8.059   4.641  15.506 -0.2559  0.1777  0.9000
   24DOPE  H14X 3082   7.960   4.678  15.542  0.0408  0.9401  0.9589
   24DOPE  H14Y 3083   8.105   4.723  15.446 -1.3900  1.6052  1.9062
   24DOPE  C315 3084   8.128   4.609  15.641 -0.2857  0.2710 -0.0589
   24DOPE  H15X 3085   8.232   4.575  15.626 -0.9542 -2.3647  0.7817
   24DOPE  H15Y 3086   8.058   4.528  15.672 -1.0495  1.1291  0.5172
   24DOPE  C316 3087   8.125   4.723  15.734 -0.2460  0.0355 -0.0728
   24DOPE  H16X 3088   8.029   4.776  15.749  0.7883  1.8808  0.4100
   24DOPE  H16Y 3089   8.205   4.798  15.718 -0.2806  0.0547 -0.1575
   24DOPE  C317 3090   8.156   4.681  15.875  0.2602 -0.1379 -0.1381
   24DOPE  H17X 3091   8.161   4.774  15.936 -1.9631 -0.3716  0.4898
   24DOPE  H17Y 3092   8.064   4.624  15.903 -0.7452  0.6848 -1.6444
   24DOPE  C318 3093   8.285   4.596  15.895  0.0524 -0.2207  0.3130
   24DOPE  H18X 3094   8.276   4.499  15.840  2.2777 -1.7735  2.4327
   24DOPE  H18Y 3095   8.381   4.640  15.860  0.2554 -0.1376  0.9554
   24DOPE  H18Z 3096   8.309   4.567  16.000 -0.1191  1.9546  0.9883
   25DOPE     N 3097   0.825   4.637  17.007  0.2702 -0.3578 -0.1481
   25DOPE   HN1 3098   0.921   4.636  17.046  0.1745 -0.8037  0.0888
   25DOPE   HN2 3099   0.824   4.623  16.904 -1.2430 -1.3367 -0.0290
   25DOPE   HN3 3100   0.798   4.735  17.031  1.1402 -0.4697  1.3760
   25DOPE   C12 3101   0.746   4.535  17.077  0.0725 -0.5046 -0.2938
   25DOPE  H12A 3102   0.754   4.560  17.185 -1.8952  0.4310 -0.3358
   25DOPE  H12B 3103   0.795   4.436  17.063 -0.8354 -0.7007 -2.3200
   25DOPE   C11 3104   0.607   4.507  17.022  0.2019 -0.2627  0.1045
   25DOPE  H11A 3105   0.562   4.422  17.078 -0.5972 -0.4741 -0.8411
   25DOPE  H11B 3106   0.617   4.470  16.918 -0.4699  1.3314 -0.5558
   25DOPE     P 3107   0.377   4.629  17.009  0.2282  0.3196 -0.3795
   25DOPE   O13 3108   0.343   4.708  16.888 -0.4061 -0.0734 -0.5082
   25DOPE   O14 3109   0.316   4.673  17.133  0.0513  0.3091 -0.0727
   25DOPE   O11 3110   0.342   4.477  16.979  0.6229  0.0227 -0.2253
   25DOPE   O12 3111   0.531   4.629  17.029  0.3937 -0.1008  0.2411
   25DOPE    C1 3112   0.239   4.429  16.894 -0.3987  0.1454  0.7262
   25DOPE    HA 3113   0.155   4.500  16.876 -0.3105  0.1865  0.4731
   25DOPE    HB 3114   0.185   4.344  16.941 -2.0213 -0.7364 -2.4323
   25DOPE    C2 3115   0.297   4.395  16.753 -0.4597  0.0005 -1.3898
   25DOPE    HS 3116   0.368   4.472  16.715 -0.1222  0.5616  0.2639
   25DOPE   O21 3117   0.189   4.370  16.661  0.1866 -0.5402 -0.0053
   25DOPE   C21 3118   0.119   4.473  16.603  0.5622 -0.1831 -0.2446
   25DOPE   O22 3119   0.149   4.592  16.618 -0.4263 -0.1207 -0.1952
   25DOPE   C22 3120   0.002   4.420  16.523 -0.9190 -0.4755  0.0010
   25DOPE   H2R 3121  -0.087   4.461  16.576 -1.0628 -4.5260  3.4038
   25DOPE   H2S 3122  -0.013   4.312  16.543  0.8330 -0.3928  2.0937
   25DOPE    C3 3123   0.384   4.270  16.772 -0.3949  0.0567 -0.3074
   25DOPE    HX 3124   0.318   4.189  16.811  1.0813 -1.3573 -0.6082
   25DOPE    HY 3125   0.462   4.291  16.849 -0.4241 -0.0689 -0.2420
   25DOPE   O31 3126   0.461   4.226  16.647  0.5542 -0.1789 -0.5573
   25DOPE   C31 3127   0.574   4.296  16.629 -0.1422 -0.4496 -0.3162
   25DOPE   O32 3128   0.615   4.388  16.693 -0.2355  0.3083 -0.8146
   25DOPE   C32 3129   0.624   4.255  16.490 -0.3726 -0.7567 -0.4444
   25DOPE   H2X 3130   0.642   4.145  16.485 -1.2073 -0.9195 -0.0146
   25DOPE   H2Y 3131   0.542   4.278  16.419 -1.7751 -0.6780  1.1464
   25DOPE   C23 3132   0.011   4.452  16.364 -0.1457  0.2585 -1.1295
   25DOPE   H3R 3133  -0.001   4.559  16.336 -2.3330 -0.2841 -2.5016
   25DOPE   H3S 3134  -0.079   4.404  16.321  0.5800 -0.5798 -1.7340
   25DOPE   C24 3135   0.132   4.385  16.307  0.0324 -0.2122  0.7420
   25DOPE   H4R 3136   0.138   4.275  16.324 -0.3715 -0.5935 -1.3878
   25DOPE   H4S 3137   0.227   4.433  16.339  0.4252  0.1900 -0.9562
   25DOPE   C25 3138   0.145   4.397  16.149 -0.1691  0.4715 -0.4657
   25DOPE   H5R 3139   0.141   4.505  16.121  1.7863  0.8625  0.5273
   25DOPE   H5S 3140   0.055   4.353  16.102 -1.5134  0.4586  1.9822
   25DOPE   C26 3141   0.268   4.316  16.099 -0.2723 -0.6262  0.4812
   25DOPE   H6R 3142   0.258   4.213  16.140 -0.5507 -1.4423 -1.5200
   25DOPE   H6S 3143   0.363   4.348  16.147  1.3831 -4.0442 -0.2400
   25DOPE   C27 3144   0.277   4.322  15.945  0.2737 -0.5026  0.1687
   25DOPE   H7R 3145   0.326   4.418  15.919 -3.4248  0.9297 -2.3052
   25DOPE   H7S 3146   0.173   4.323  15.906 -0.1832 -2.3598  1.1882
   25DOPE   C28 3147   0.358   4.205  15.892 -0.5627  0.3285  0.0103
   25DOPE   H8R 3148   0.295   4.114  15.901 -0.6618  0.4647  0.7744
   25DOPE   H8S 3149   0.444   4.197  15.962 -1.5272  0.6266  1.2486
   25DOPE   C29 3150   0.403   4.223  15.757  0.2721 -0.3851  0.4707
   25DOPE   H9R 3151   0.511   4.238  15.752  0.3090  0.5786  2.7995
   25DOPE  C210 3152   0.335   4.212  15.646 -0.4778  0.0484  0.0417
   25DOPE  H10R 3153   0.391   4.228  15.552 -0.3635  1.2482  0.3009
   25DOPE  C211 3154   0.191   4.188  15.630 -0.0333 -0.0370  0.4572
   25DOPE  H11R 3155   0.167   4.260  15.548  1.4922  2.3043  1.9341
   25DOPE  H11S 3156   0.130   4.227  15.714  1.0324  3.2078 -0.1286
   25DOPE  C212 3157   0.146   4.043  15.600  0.2647  0.5915  0.0990
   25DOPE  H12R 3158   0.037   4.044  15.581 -0.1396  2.0603  2.1643
   25DOPE  H12S 3159   0.173   3.969  15.679 -0.3996 -2.6012 -2.4436
   25DOPE  C213 3160   0.215   3.989  15.475 -0.4845  0.1992 -0.3053
   25DOPE  H13R 3161   0.188   3.883  15.455 -0.5879  0.6521 -3.0427
   25DOPE  H13S 3162   0.326   3.993  15.486 -0.5341 -0.7650  0.7394
   25DOPE  C214 3163   0.174   4.061  15.342  0.6877  0.3800  0.3166
   25DOPE  H14R 3164   0.212   4.164  15.362  1.5232  0.0542  0.4397
   25DOPE  H14S 3165   0.065   4.080  15.342  0.3289 -1.4440 -0.5646
   25DOPE  C215 3166   0.221   3.995  15.208  0.0136 -0.2637  0.4095
   25DOPE  H15R 3167   0.181   3.891  15.212 -1.7397  0.3241 -0.8913
   25DOPE  H15S 3168   0.331   3.989  15.196  0.0311  1.5383 -0.6918
   25DOPE  C216 3169   0.171   4.069  15.085  0.4953 -0.2145 -0.2963
   25DOPE  H16R 3170   0.243   4.152  15.071 -0.1249  0.1993 -1.1487
   25DOPE  H16S 3171   0.072   4.107  15.121 -1.1437 -4.5391  0.3296
   25DOPE  C217 3172   0.156   3.990  14.954  0.3095  0.1938 -0.0641
   25DOPE  H17R 3173   0.102   4.056  14.883  2.6158  1.1805 -1.0081
   25DOPE  H17S 3174   0.111   3.890  14.971 -0.2019 -0.3937 -3.8270
   25DOPE  C218 3175   0.286   3.978  14.868 -0.4030  0.1374 -0.6683
   25DOPE  H18R 3176   0.272   3.909  14.782 -0.0732 -0.1961 -0.4541
   25DOPE  H18S 3177   0.374   3.955  14.931 -0.5174 -0.2106 -0.6347
   25DOPE  H18T 3178   0.304   4.079  14.824 -0.6768  0.6302  0.3295
   25DOPE   C33 3179   0.748   4.331  16.447 -0.3677  0.0456  0.5278
   25DOPE   H3X 3180   0.833   4.304  16.513  1.4988  0.7979 -1.4260
   25DOPE   H3Y 3181   0.733   4.441  16.449 -0.6832  0.2252 -3.5035
   25DOPE   C34 3182   0.800   4.279  16.311  0.0511 -0.3878 -0.2632
   25DOPE   H4X 3183   0.899   4.319  16.282  0.2879  0.2215  1.3088
   25DOPE   H4Y 3184   0.811   4.169  16.313 -1.5549 -0.6219 -1.5568
   25DOPE   C35 3185   0.707   4.312  16.189 -0.5218 -0.0554  0.3072
   25DOPE   H5X 3186   0.668   4.415  16.207 -1.0348  0.0265 -1.1165
   25DOPE   H5Y 3187   0.619   4.245  16.204 -0.3319 -0.4399 -0.2849
   25DOPE   C36 3188   0.773   4.284  16.055  0.5187 -0.4261 -0.5367
   25DOPE   H6X 3189   0.861   4.351  16.044 -1.0376  1.4422 -2.5842
   25DOPE   H6Y 3190   0.700   4.321  15.980  0.1285 -0.3314 -0.1084
   25DOPE   C37 3191   0.811   4.135  16.040 -0.1847  0.0906  0.7436
   25DOPE   H7X 3192   0.905   4.116  16.096  0.1590  0.2370  0.2224
   25DOPE   H7Y 3193   0.726   4.095  16.099 -0.9068  3.6283  2.3548
   25DOPE   C38 3194   0.806   4.082  15.895 -0.2069  0.0579  0.2222
   25DOPE   H8X 3195   0.704   4.106  15.859  0.0439  1.3916  0.3465
   25DOPE   H8Y 3196   0.814   3.972  15.896  2.0433  0.1618 -0.3019
   25DOPE   C39 3197   0.896   4.162  15.801 -0.0170  0.5749  0.0363
   25DOPE   H9X 3198   1.000   4.175  15.832 -0.0726  3.6301 -0.7312
   25DOPE  C310 3199   0.863   4.185  15.673 -0.2182 -0.0218  0.0188
   25DOPE  H10X 3200   0.944   4.238  15.621  1.2523 -1.4931  0.7118
   25DOPE  C311 3201   0.733   4.165  15.594 -0.9515 -0.4441  0.0265
   25DOPE  H11X 3202   0.659   4.116  15.660 -0.0437 -1.3125  0.4373
   25DOPE  H11Y 3203   0.688   4.263  15.567  1.8697  1.3358  1.2781
   25DOPE  C312 3204   0.742   4.079  15.464  0.0036 -0.1266 -0.4374
   25DOPE  H12X 3205   0.644   4.075  15.413  0.0084 -0.6384 -0.4134
   25DOPE  H12Y 3206   0.771   3.973  15.484  2.2931  0.5628  0.2699
   25DOPE  C313 3207   0.858   4.132  15.376  0.2119 -0.0125  0.0405
   25DOPE  H13X 3208   0.848   4.243  15.371  0.3765 -0.0069 -0.1654
   25DOPE  H13Y 3209   0.956   4.109  15.422  1.2843  1.0229 -1.5893
   25DOPE  C314 3210   0.848   4.089  15.228  0.4528  0.3437  0.0092
   25DOPE  H14X 3211   0.743   4.101  15.192  0.0765 -0.7638  0.7143
   25DOPE  H14Y 3212   0.868   3.981  15.219  0.3619  0.0067  3.0360
   25DOPE  C315 3213   0.927   4.175  15.139  0.4910 -0.4126  0.1866
   25DOPE  H15X 3214   1.029   4.176  15.183  0.4154  1.7350  0.4086
   25DOPE  H15Y 3215   0.888   4.279  15.139 -2.3018 -1.3784 -0.9153
   25DOPE  C316 3216   0.926   4.139  14.990  1.1165  0.5680  0.8247
   25DOPE  H16X 3217   0.825   4.168  14.955 -0.4379 -2.1586  2.7083
   25DOPE  H16Y 3218   0.937   4.033  14.957  2.5233  0.9108  0.1137
   25DOPE  C317 3219   1.022   4.228  14.908 -0.0116 -0.0857  0.2171
   25DOPE  H17X 3220   1.114   4.242  14.970  0.7574 -2.0768 -0.3970
   25DOPE  H17Y 3221   1.064   4.174  14.820  3.9782 -1.0350  2.4452
   25DOPE  C318 3222   0.963   4.358  14.871 -0.4662  0.4128  0.5361
   25DOPE  H18X 3223   0.933   4.421  14.958  0.6694  2.4023 -0.4267
   25DOPE  H18Y 3224   1.037   4.424  14.820  0.6666 -0.8473  0.5018
   25DOPE  H18Z 3225   0.868   4.344  14.815 -0.0033 -0.9316  0.0627
   26DOPE     N 3226   0.401   4.928  16.741  0.0678  0.1169 -0.5765
   26DOPE   HN1 3227   0.375   4.839  16.788 -1.7004  0.2121 -1.3214
   26DOPE   HN2 3228   0.430   4.996  16.814 -2.7351 -0.5913  1.3145
   26DOPE   HN3 3229   0.311   4.957  16.698 -0.3733  1.6506  1.2616
   26DOPE   C12 3230   0.506   4.893  16.636  0.0888  0.3493 -0.2381
   26DOPE  H12A 3231   0.468   4.927  16.537 -1.6796 -0.1782  0.2175
   26DOPE  H12B 3232   0.507   4.782  16.631  0.3291  0.3237  0.2901
   26DOPE   C11 3233   0.636   4.963  16.678 -0.0973 -0.1049  0.0442
   26DOPE  H11A 3234   0.620   5.068  16.712 -0.4443 -0.4174  0.8631
   26DOPE  H11B 3235   0.711   4.974  16.596  0.7184  2.5991  1.0404
   26DOPE     P 3236   0.795   4.965  16.890  0.3486  0.1209 -0.2466
   26DOPE   O13 3237   0.781   4.908  17.031  0.8725  0.6919  0.6860
   26DOPE   O14 3238   0.785   5.114  16.874  0.2334  0.3166 -0.6049
   26DOPE   O11 3239   0.933   4.917  16.840 -0.0552  0.4253  0.0727
   26DOPE   O12 3240   0.685   4.891  16.796  0.0965 -0.3240  0.3503
   26DOPE    C1 3241   0.969   4.882  16.705  0.0549  0.1370 -0.1260
   26DOPE    HA 3242   0.882   4.827  16.662 -0.6385 -0.1559  1.5872
   26DOPE    HB 3243   1.060   4.819  16.698  0.4246  0.7501 -0.9346
   26DOPE    C2 3244   1.010   5.006  16.619 -0.1968 -1.4674 -0.3051
   26DOPE    HS 3245   0.917   5.061  16.593  0.1986 -0.4854  0.2865
   26DOPE   O21 3246   1.063   4.972  16.492 -0.3466  0.3632 -0.1191
   26DOPE   C21 3247   0.985   4.914  16.409  0.1795 -0.9207  0.1188
   26DOPE   O22 3248   0.878   4.864  16.428 -0.4099  0.5560 -0.5308
   26DOPE   C22 3249   1.044   4.936  16.271  1.4476 -0.1034 -0.0268
   26DOPE   H2R 3250   1.134   4.873  16.253  0.9572 -0.4807 -1.2721
   26DOPE   H2S 3251   1.068   5.044  16.260 -2.8080  1.2861  2.2674
   26DOPE    C3 3252   1.122   5.088  16.696  0.1577 -0.2392  0.2937
   26DOPE    HX 3253   1.209   5.018  16.699  0.0439 -0.7371 -3.3808
   26DOPE    HY 3254   1.086   5.096  16.801 -0.0737  2.7594  0.0671
   26DOPE   O31 3255   1.157   5.205  16.626 -0.7779  0.3500  0.0536
   26DOPE   C31 3256   1.256   5.284  16.669 -0.1268  0.6932  0.0732
   26DOPE   O32 3257   1.324   5.266  16.768  0.1328 -0.4850  0.4371
   26DOPE   C32 3258   1.272   5.398  16.573 -0.2499 -0.1481 -0.1108
   26DOPE   H2X 3259   1.185   5.399  16.504 -1.6586 -0.9738  1.5766
   26DOPE   H2Y 3260   1.275   5.485  16.642  1.6428  0.3547 -0.7773
   26DOPE   C23 3261   0.926   4.912  16.165 -0.2973  0.7678 -0.1387
   26DOPE   H3R 3262   0.851   4.992  16.185 -0.0273  0.5610  1.8897
   26DOPE   H3S 3263   0.870   4.817  16.175  0.2980  0.3953 -0.2831
   26DOPE   C24 3264   0.986   4.914  16.027 -0.1834  0.3752 -0.0509
   26DOPE   H4R 3265   1.055   4.828  16.013 -1.0902 -0.1137 -1.6640
   26DOPE   H4S 3266   1.043   5.010  16.020 -1.3508  1.4177  2.8254
   26DOPE   C25 3267   0.874   4.907  15.917  0.6715 -0.0032 -0.1152
   26DOPE   H5R 3268   0.813   4.819  15.946  2.4143 -1.1250  0.3438
   26DOPE   H5S 3269   0.919   4.885  15.818  1.5549  0.8510  0.0867
   26DOPE   C26 3270   0.781   5.032  15.925  0.7446  0.1225  0.4378
   26DOPE   H6R 3271   0.852   5.115  15.906  1.5909 -0.8144 -0.6319
   26DOPE   H6S 3272   0.741   5.040  16.029 -0.3781  1.4221 -0.0679
   26DOPE   C27 3273   0.667   5.040  15.822  0.0026 -0.0585  0.1408
   26DOPE   H7R 3274   0.612   4.945  15.834  1.5626 -1.1212 -0.7815
   26DOPE   H7S 3275   0.699   5.046  15.716  0.5391  1.2556  0.3499
   26DOPE   C28 3276   0.566   5.159  15.849 -0.3073  0.1843 -0.3966
   26DOPE   H8R 3277   0.472   5.133  15.797  0.7398 -0.0479 -2.2393
   26DOPE   H8S 3278   0.620   5.249  15.814  0.8206  0.7995  2.5818
   26DOPE   C29 3279   0.532   5.196  15.993  0.0220  0.9211 -0.9375
   26DOPE   H9R 3280   0.613   5.188  16.067  1.1792  2.2682 -2.0268
   26DOPE  C210 3281   0.407   5.227  16.039 -0.0675 -0.2492 -0.3295
   26DOPE  H10R 3282   0.398   5.250  16.146  0.7695 -0.7460 -0.1478
   26DOPE  C211 3283   0.276   5.226  15.971  0.6174  0.1032 -0.1035
   26DOPE  H11R 3284   0.192   5.239  16.043 -0.1326 -0.9073 -0.7737
   26DOPE  H11S 3285   0.263   5.127  15.924 -2.7713  0.9231 -1.1949
   26DOPE  C212 3286   0.255   5.336  15.859  0.0008  0.0269 -0.6359
   26DOPE  H12R 3287   0.155   5.311  15.817 -1.4062  0.2453  2.3746
   26DOPE  H12S 3288   0.334   5.327  15.781  0.4188 -0.5542 -0.1479
   26DOPE  C213 3289   0.269   5.477  15.924 -0.1586  0.5262 -0.3387
   26DOPE  H13R 3290   0.224   5.480  16.025  0.3684 -1.8580  0.0334
   26DOPE  H13S 3291   0.216   5.544  15.852  0.1235  1.1805  0.0548
   26DOPE  C214 3292   0.406   5.546  15.921 -0.5202 -0.2016  0.5094
   26DOPE  H14R 3293   0.464   5.530  15.827 -0.5815 -1.0520  0.6098
   26DOPE  H14S 3294   0.457   5.492  16.003 -0.2452 -1.0962 -0.2332
   26DOPE  C215 3295   0.389   5.691  15.959  0.3980 -0.3956  0.0864
   26DOPE  H15R 3296   0.365   5.713  16.065 -0.8872 -0.3259 -0.1985
   26DOPE  H15S 3297   0.307   5.733  15.897  0.3388  1.5189  1.3634
   26DOPE  C216 3298   0.515   5.769  15.934 -1.1021 -0.3015  0.2768
   26DOPE  H16R 3299   0.608   5.711  15.913  0.4980  1.1235  2.8546
   26DOPE  H16S 3300   0.533   5.817  16.033  0.8293 -2.5857  1.1522
   26DOPE  C217 3301   0.498   5.870  15.818 -0.6357 -0.3518 -0.1699
   26DOPE  H17R 3302   0.419   5.945  15.841 -0.3098  0.2681 -0.9918
   26DOPE  H17S 3303   0.458   5.819  15.728  0.6542 -0.2212 -0.8354
   26DOPE  C218 3304   0.634   5.938  15.771 -0.2835 -0.4638 -0.4426
   26DOPE  H18R 3305   0.616   6.000  15.680  0.0886  0.8878  0.3650
   26DOPE  H18S 3306   0.708   5.861  15.741  1.3403  1.0690 -0.5531
   26DOPE  H18T 3307   0.668   6.004  15.854 -0.6350 -0.7799 -0.0398
   26DOPE   C33 3308   1.401   5.416  16.489  0.2932  0.1174  1.2770
   26DOPE   H3X 3309   1.487   5.386  16.553 -0.0318 -1.8377  0.8513
   26DOPE   H3Y 3310   1.413   5.524  16.469  0.9994  0.3526  2.8240
   26DOPE   C34 3311   1.401   5.337  16.354  0.2007  0.7648  0.8309
   26DOPE   H4X 3312   1.392   5.231  16.384 -3.0408  0.5214 -0.5537
   26DOPE   H4Y 3313   1.313   5.369  16.295 -1.7962 -2.3749  1.8750
   26DOPE   C35 3314   1.534   5.364  16.280  0.0333  0.0042 -0.2514
   26DOPE   H5X 3315   1.604   5.298  16.334 -0.5397  1.0264  1.8395
   26DOPE   H5Y 3316   1.559   5.471  16.293 -1.8285  0.5237 -0.6194
   26DOPE   C36 3317   1.518   5.339  16.133  0.3905 -0.0470  0.0183
   26DOPE   H6X 3318   1.444   5.419  16.111 -0.1133 -0.1497  1.2940
   26DOPE   H6Y 3319   1.465   5.242  16.123 -0.6497  0.1340  2.8906
   26DOPE   C37 3320   1.641   5.332  16.051 -0.2683 -0.5067  0.1872
   26DOPE   H7X 3321   1.619   5.276  15.957  3.6708 -2.1795  0.0420
   26DOPE   H7Y 3322   1.665   5.436  16.021 -0.5868 -0.1237  1.2295
   26DOPE   C38 3323   1.757   5.261  16.116  0.2667 -0.2769 -0.2334
   26DOPE   H8X 3324   1.712   5.163  16.146 -0.6183 -0.2618 -1.4181
   26DOPE   H8Y 3325   1.786   5.330  16.197 -1.1532 -0.0576  0.1103
   26DOPE   C39 3326   1.877   5.235  16.025  1.1270 -0.3911 -0.1255
   26DOPE   H9X 3327   1.936   5.327  16.006  2.2856 -0.6364  1.9924
   26DOPE  C310 3328   1.919   5.116  15.970  0.1930 -1.0096 -0.1233
   26DOPE  H10X 3329   2.007   5.111  15.905  0.0617 -1.5951 -0.2592
   26DOPE  C311 3330   1.842   4.982  15.999 -0.5280  0.2626 -0.2111
   26DOPE  H11X 3331   1.901   4.895  16.036 -1.0178 -0.8569 -1.9428
   26DOPE  H11Y 3332   1.753   4.983  16.065 -0.5957  0.0730 -0.2964
   26DOPE  C312 3333   1.796   4.922  15.863 -0.7302 -0.1859  0.1250
   26DOPE  H12X 3334   1.740   5.004  15.815  1.1534  1.5107  0.6824
   26DOPE  H12Y 3335   1.725   4.838  15.879 -0.5746 -0.1336  1.1948
   26DOPE  C313 3336   1.910   4.891  15.765  0.9378  0.1506  1.0862
   26DOPE  H13X 3337   1.974   4.980  15.748  1.4641 -0.5182 -0.6212
   26DOPE  H13Y 3338   1.978   4.818  15.812 -1.3248 -2.5484  0.4344
   26DOPE  C314 3339   1.851   4.836  15.638 -0.6618  0.3139 -0.1562
   26DOPE  H14X 3340   1.769   4.763  15.654 -0.9765  1.2332  3.0221
   26DOPE  H14Y 3341   1.939   4.791  15.587 -2.1061 -1.4441 -1.2427
   26DOPE  C315 3342   1.798   4.939  15.534 -0.0435 -0.7629 -0.2925
   26DOPE  H15X 3343   1.875   5.014  15.506 -0.4046 -0.2849 -0.0175
   26DOPE  H15Y 3344   1.711   4.995  15.572  0.2163  0.3854 -1.3112
   26DOPE  C316 3345   1.740   4.870  15.403 -0.4691 -0.3644  0.1543
   26DOPE  H16X 3346   1.823   4.802  15.373  0.5765  0.6691  0.6417
   26DOPE  H16Y 3347   1.720   4.948  15.327 -1.2178 -1.8798 -1.2617
   26DOPE  C317 3348   1.611   4.784  15.421 -0.9279 -0.1746  0.0591
   26DOPE  H17X 3349   1.604   4.726  15.327  2.2236 -2.6183  1.1543
   26DOPE  H17Y 3350   1.624   4.712  15.504 -1.8775 -0.5819 -0.1344
   26DOPE  C318 3351   1.483   4.864  15.436  0.8417  0.4046  1.1695
   26DOPE  H18X 3352   1.391   4.801  15.441  0.4396  0.8437 -0.2068
   26DOPE  H18Y 3353   1.475   4.924  15.530 -2.3440  2.6617 -0.3197
   26DOPE  H18Z 3354   1.469   4.942  15.358 -0.3091 -0.2100  0.7272
   27DOPE     N 3355   5.749   6.629  17.063  0.2689  0.2485  0.4622
   27DOPE   HN1 3356   5.666   6.691  17.058  0.4425  0.4613  0.2268
   27DOPE   HN2 3357   5.737   6.553  17.133 -0.8456 -1.1602 -1.1679
   27DOPE   HN3 3358   5.829   6.690  17.087  1.8348  0.4616 -4.2816
   27DOPE   C12 3359   5.760   6.583  16.919  0.3817 -0.4998 -0.0941
   27DOPE  H12A 3360   5.809   6.663  16.860 -0.6135  0.9250  0.9451
   27DOPE  H12B 3361   5.656   6.572  16.882  0.8100  0.6524 -1.7307
   27DOPE   C11 3362   5.830   6.446  16.907 -0.0905 -0.5172  0.6417
   27DOPE  H11A 3363   5.821   6.410  16.802  3.2596 -0.0213  0.0801
   27DOPE  H11B 3364   5.781   6.368  16.970 -0.1792 -1.2541 -0.2963
   27DOPE     P 3365   6.080   6.460  16.831 -0.1781 -0.0714  0.3243
   27DOPE   O13 3366   6.094   6.324  16.771  0.2711 -0.3897  0.2931
   27DOPE   O14 3367   6.196   6.511  16.905  0.3232 -0.4109 -0.0270
   27DOPE   O11 3368   6.024   6.562  16.722  0.1474 -0.2465 -0.5122
   27DOPE   O12 3369   5.963   6.458  16.941  0.2177  0.1096 -0.3246
   27DOPE    C1 3370   6.117   6.645  16.658 -0.6876  0.3227  0.1190
   27DOPE    HA 3371   6.197   6.684  16.725 -0.0539  0.8332 -0.9009
   27DOPE    HB 3372   6.051   6.727  16.623 -0.3177  1.1522  1.3177
   27DOPE    C2 3373   6.171   6.583  16.532  0.0371 -0.9443  0.0340
   27DOPE    HS 3374   6.253   6.515  16.566  0.6744 -0.7022 -0.9680
   27DOPE   O21 3375   6.225   6.692  16.450 -0.2750 -0.6889 -0.3351
   27DOPE   C21 3376   6.346   6.674  16.401 -0.4071  0.5106  0.1634
   27DOPE   O22 3377   6.411   6.572  16.417 -0.4169 -0.6162 -0.5147
   27DOPE   C22 3378   6.371   6.801  16.311  0.4636 -0.2846  0.5804
   27DOPE   H2R 3379   6.423   6.868  16.384  0.0600  0.0123  0.6007
   27DOPE   H2S 3380   6.270   6.838  16.281 -0.0640 -0.4487  2.0655
   27DOPE    C3 3381   6.051   6.515  16.452  0.5903 -0.5506  0.1021
   27DOPE    HX 3382   5.969   6.589  16.446  0.0104 -1.0992  1.1029
   27DOPE    HY 3383   6.008   6.431  16.511  3.5600 -1.6778  0.8772
   27DOPE   O31 3384   6.092   6.476  16.321  0.2547 -0.1370 -0.3492
   27DOPE   C31 3385   6.157   6.360  16.308 -0.2781 -0.0705 -0.1186
   27DOPE   O32 3386   6.157   6.262  16.382 -0.3643  0.4126  0.4900
   27DOPE   C32 3387   6.210   6.358  16.167  0.1562 -0.4485  0.4213
   27DOPE   H2X 3388   6.157   6.276  16.114 -1.0604 -0.0270  0.9385
   27DOPE   H2Y 3389   6.185   6.453  16.115 -0.6486 -0.9783 -0.1805
   27DOPE   C23 3390   6.462   6.783  16.192 -0.1434  0.3869 -0.0114
   27DOPE   H3R 3391   6.529   6.695  16.186  0.2481  0.7377 -1.1318
   27DOPE   H3S 3392   6.534   6.868  16.195  2.1264 -1.3187 -1.9025
   27DOPE   C24 3393   6.388   6.788  16.051  0.0835  0.3884 -0.8385
   27DOPE   H4R 3394   6.344   6.890  16.054  0.1482  0.4096  1.3644
   27DOPE   H4S 3395   6.298   6.722  16.048  0.0545 -0.0087  2.9124
   27DOPE   C25 3396   6.485   6.789  15.929 -0.1166  0.3515 -0.1091
   27DOPE   H5R 3397   6.519   6.685  15.911 -2.6863 -0.6274  0.2570
   27DOPE   H5S 3398   6.573   6.848  15.962 -0.0501  0.4888 -0.5299
   27DOPE   C26 3399   6.419   6.834  15.798 -0.8393 -0.3765 -0.3968
   27DOPE   H6R 3400   6.473   6.921  15.753 -1.3904  0.4218  0.4460
   27DOPE   H6S 3401   6.320   6.871  15.831 -0.9201 -2.1835  1.5612
   27DOPE   C27 3402   6.396   6.726  15.691 -0.1852 -0.3392 -0.1309
   27DOPE   H7R 3403   6.494   6.674  15.680  0.1614  0.5123 -1.3222
   27DOPE   H7S 3404   6.369   6.784  15.601  1.9353  1.0926  0.0743
   27DOPE   C28 3405   6.288   6.628  15.730  0.3482  0.0084 -0.6624
   27DOPE   H8R 3406   6.196   6.676  15.773  0.4057 -0.4923  0.0410
   27DOPE   H8S 3407   6.322   6.557  15.808 -1.5470  0.7416  0.9270
   27DOPE   C29 3408   6.236   6.547  15.611  0.1685 -0.1534 -0.4297
   27DOPE   H9R 3409   6.167   6.611  15.554 -0.7257 -0.1285  0.6548
   27DOPE  C210 3410   6.259   6.419  15.579 -0.1530  0.0808 -0.3813
   27DOPE  H10R 3411   6.204   6.363  15.502  0.5260 -1.6733  0.3504
   27DOPE  C211 3412   6.342   6.320  15.657  0.1668 -0.1148  0.5066
   27DOPE  H11R 3413   6.288   6.289  15.749 -0.9409 -0.9063 -0.3788
   27DOPE  H11S 3414   6.434   6.372  15.690  0.8579 -0.1496 -1.2552
   27DOPE  C212 3415   6.380   6.199  15.574 -0.1777 -0.9480  0.6127
   27DOPE  H12R 3416   6.289   6.151  15.535 -0.6761 -0.4870  1.1836
   27DOPE  H12S 3417   6.433   6.134  15.647 -0.9264 -1.0130  1.1024
   27DOPE  C213 3418   6.477   6.241  15.461  0.4616 -0.1169 -0.1646
   27DOPE  H13R 3419   6.543   6.327  15.486 -0.4572 -0.2627  3.1382
   27DOPE  H13S 3420   6.410   6.277  15.379 -0.6399 -0.9600  0.3440
   27DOPE  C214 3421   6.550   6.121  15.415  0.0707 -0.5555 -0.3113
   27DOPE  H14R 3422   6.497   6.063  15.337  1.4626 -0.2596 -1.5264
   27DOPE  H14S 3423   6.587   6.061  15.501 -0.1362 -1.8385 -1.1021
   27DOPE  C215 3424   6.667   6.157  15.327 -0.3071 -0.1858  0.0129
   27DOPE  H15R 3425   6.627   6.226  15.250  2.0681 -0.7647 -1.8424
   27DOPE  H15S 3426   6.710   6.066  15.281 -0.1207  0.3218 -0.8440
   27DOPE  C216 3427   6.788   6.227  15.393 -0.6237  0.2449 -0.3076
   27DOPE  H16R 3428   6.826   6.156  15.470 -0.2999  0.4711 -0.2561
   27DOPE  H16S 3429   6.758   6.320  15.444  1.4541  0.7604  0.0674
   27DOPE  C217 3430   6.909   6.250  15.301 -0.3521 -0.2641  0.7546
   27DOPE  H17R 3431   6.895   6.335  15.231 -1.0306 -1.6285 -0.8382
   27DOPE  H17S 3432   6.933   6.158  15.242 -0.4234 -0.2052  0.6335
   27DOPE  C218 3433   7.037   6.297  15.372 -0.0496  0.6929  0.3350
   27DOPE  H18R 3434   7.121   6.302  15.300 -1.3942  0.1580 -1.3346
   27DOPE  H18S 3435   7.082   6.232  15.450  1.3284  1.7868  0.5029
   27DOPE  H18T 3436   7.026   6.402  15.410 -0.9728 -0.1724  2.6537
   27DOPE   C33 3437   6.366   6.331  16.159 -0.2885 -0.0647  0.1782
   27DOPE   H3X 3438   6.381   6.227  16.196  0.4192 -0.4696 -1.1728
   27DOPE   H3Y 3439   6.420   6.402  16.226  0.1698 -0.1425 -0.1052
   27DOPE   C34 3440   6.443   6.332  16.021  0.6999  0.3433 -0.4632
   27DOPE   H4X 3441   6.379   6.279  15.947  3.1461 -2.7985 -0.5411
   27DOPE   H4Y 3442   6.438   6.436  15.982 -1.2274  0.1248 -0.8900
   27DOPE   C35 3443   6.581   6.275  16.014 -0.1171  0.2250  0.0890
   27DOPE   H5X 3444   6.581   6.172  16.055 -2.6553  0.6904  1.4995
   27DOPE   H5Y 3445   6.646   6.334  16.082 -0.8884  1.5328 -0.2800
   27DOPE   C36 3446   6.642   6.284  15.875 -0.2749 -0.6602 -0.4894
   27DOPE   H6X 3447   6.649   6.383  15.825 -0.2228 -0.8731 -0.9103
   27DOPE   H6Y 3448   6.593   6.215  15.803  1.2067 -4.4395  1.8428
   27DOPE   C37 3449   6.793   6.236  15.881  0.7418 -0.1759  0.0896
   27DOPE   H7X 3450   6.845   6.249  15.783 -0.3608  0.3845 -0.4353
   27DOPE   H7Y 3451   6.839   6.306  15.954 -0.9769 -0.5902  1.6305
   27DOPE   C38 3452   6.815   6.087  15.925  0.1918  0.1864 -0.3433
   27DOPE   H8X 3453   6.768   6.068  16.024 -2.7146  0.6137 -1.5217
   27DOPE   H8Y 3454   6.925   6.076  15.937  0.5637  1.8740 -1.7494
   27DOPE   C39 3455   6.767   5.992  15.812 -0.0749  0.1781  0.3329
   27DOPE   H9X 3456   6.664   6.006  15.776  0.5301  3.4548 -0.4260
   27DOPE  C310 3457   6.844   5.924  15.728  0.3094  0.2724  0.0262
   27DOPE  H10X 3458   6.781   5.870  15.656 -0.0158  0.3623  0.2395
   27DOPE  C311 3459   6.992   5.892  15.732 -0.7052 -1.2201 -0.2316
   27DOPE  H11X 3460   7.040   5.935  15.823  3.1189 -3.1229 -1.1713
   27DOPE  H11Y 3461   7.004   5.782  15.737  1.5017 -1.2179 -3.2257
   27DOPE  C312 3462   7.047   5.942  15.602  0.1335  0.3171  0.3631
   27DOPE  H12X 3463   7.022   6.050  15.605 -1.4232 -0.0391  2.1095
   27DOPE  H12Y 3464   6.980   5.907  15.520  0.0855  0.4345  0.3522
   27DOPE  C313 3465   7.193   5.916  15.579  0.0973  0.0746 -0.1851
   27DOPE  H13X 3466   7.249   5.965  15.662 -0.9999  1.1343 -0.0385
   27DOPE  H13Y 3467   7.229   5.812  15.592  2.8264  1.2853  4.5283
   27DOPE  C314 3468   7.240   5.985  15.452  0.5573  0.6394 -0.6551
   27DOPE  H14X 3469   7.242   6.095  15.465 -0.4245  0.9714 -2.8131
   27DOPE  H14Y 3470   7.176   5.967  15.363  2.1678 -0.0536 -1.7084
   27DOPE  C315 3471   7.384   5.946  15.415 -0.2110 -0.3483 -0.0625
   27DOPE  H15X 3472   7.382   5.835  15.417  0.9880 -0.3738  0.9974
   27DOPE  H15Y 3473   7.453   5.991  15.489 -0.3973  0.4448 -0.3599
   27DOPE  C316 3474   7.435   5.997  15.281 -0.1821  0.6935 -0.2210
   27DOPE  H16X 3475   7.427   6.108  15.277  0.3492  0.7650  0.5388
   27DOPE  H16Y 3476   7.376   5.951  15.199  1.1150  0.9851 -1.3523
   27DOPE  C317 3477   7.583   5.960  15.259 -0.5381 -0.0168  0.4920
   27DOPE  H17X 3478   7.645   6.009  15.338  0.8255  1.0903 -1.1966
   27DOPE  H17Y 3479   7.595   5.850  15.260  1.3176  0.1443 -0.0382
   27DOPE  C318 3480   7.638   6.004  15.126  0.2852 -0.1549 -0.6345
   27DOPE  H18X 3481   7.634   6.114  15.106  0.6869 -0.4286 -2.4663
   27DOPE  H18Y 3482   7.742   5.966  15.121  0.6011  0.7275 -0.9762
   27DOPE  H18Z 3483   7.583   5.958  15.041 -0.6978 -0.0775 -0.0493
   28DOPE     N 3484   7.677   5.793  17.039 -0.3154 -0.1695 -0.1436
   28DOPE   HN1 3485   7.681   5.689  17.042 -0.9794 -0.1850  1.6033
   28DOPE   HN2 3486   7.655   5.829  17.134 -2.5776 -0.3314 -0.5539
   28DOPE   HN3 3487   7.592   5.812  16.983  1.1603  2.3207 -1.7093
   28DOPE   C12 3488   7.809   5.847  16.985 -0.0000 -0.5345  0.0114
   28DOPE  H12A 3489   7.889   5.804  17.049  1.4318  1.0795 -0.6234
   28DOPE  H12B 3490   7.803   5.958  16.986 -0.0248 -0.5239 -0.7595
   28DOPE   C11 3491   7.842   5.789  16.842  0.4276  0.0417 -1.2117
   28DOPE  H11A 3492   7.939   5.829  16.807  0.7022  0.0615 -0.4436
   28DOPE  H11B 3493   7.765   5.828  16.772 -0.4344 -2.0486 -1.4975
   28DOPE     P 3494   7.959   5.543  16.843  0.3131 -0.5634  0.1977
   28DOPE   O13 3495   7.911   5.414  16.787 -0.3824 -0.3506 -0.1738
   28DOPE   O14 3496   8.014   5.556  16.978  0.0651  0.2056 -0.0902
   28DOPE   O11 3497   8.061   5.606  16.744  0.3168  0.5967  0.2466
   28DOPE   O12 3498   7.832   5.643  16.832  0.6319 -0.5138  0.0285
   28DOPE    C1 3499   8.016   5.657  16.621 -0.5027 -0.3198  0.1974
   28DOPE    HA 3500   8.069   5.754  16.619 -0.5766 -0.2517  1.0951
   28DOPE    HB 3501   7.907   5.672  16.609 -0.1337  0.7573 -2.3972
   28DOPE    C2 3502   8.057   5.574  16.494  0.0595 -0.0995  0.0125
   28DOPE    HS 3503   8.006   5.476  16.510  0.5161 -0.3800 -0.2138
   28DOPE   O21 3504   8.207   5.556  16.499  0.8075  0.1927  0.1920
   28DOPE   C21 3505   8.244   5.457  16.421  0.0731  0.8628 -0.1559
   28DOPE   O22 3506   8.174   5.381  16.354 -0.0880 -0.2063 -0.3760
   28DOPE   C22 3507   8.397   5.457  16.422  0.0547 -0.0532  0.0308
   28DOPE   H2R 3508   8.433   5.384  16.497 -1.5573  0.8368  1.7606
   28DOPE   H2S 3509   8.432   5.558  16.451 -0.6612  0.0264  0.6534
   28DOPE    C3 3510   8.012   5.641  16.358  0.1731  0.0098  0.5229
   28DOPE    HX 3511   8.019   5.560  16.283 -0.6682  2.0938 -1.9724
   28DOPE    HY 3512   8.081   5.725  16.333 -0.2728  0.3122  0.2849
   28DOPE   O31 3513   7.868   5.685  16.359 -0.4392  0.1179  0.1677
   28DOPE   C31 3514   7.782   5.584  16.371  0.2188  0.3914 -0.4191
   28DOPE   O32 3515   7.820   5.462  16.386  0.4707 -0.2829  0.6577
   28DOPE   C32 3516   7.636   5.639  16.369  0.2725  0.3607 -0.1193
   28DOPE   H2X 3517   7.569   5.565  16.418  3.6233 -0.6732  3.3698
   28DOPE   H2Y 3518   7.623   5.734  16.424 -1.2127  0.3935 -0.4933
   28DOPE   C23 3519   8.443   5.411  16.281 -0.4473 -0.2074  0.3695
   28DOPE   H3R 3520   8.390   5.469  16.202 -1.5552 -2.1322 -0.3652
   28DOPE   H3S 3521   8.402   5.310  16.262 -0.5299 -0.1711  0.3552
   28DOPE   C24 3522   8.603   5.417  16.259  0.0693  0.2780 -0.1110
   28DOPE   H4R 3523   8.641   5.380  16.356  0.5521  2.1654  0.4765
   28DOPE   H4S 3524   8.627   5.525  16.269 -1.0295  0.4521  0.9265
   28DOPE   C25 3525   8.658   5.357  16.133 -0.2648 -0.6351  0.4112
   28DOPE   H5R 3526   8.650   5.247  16.127 -0.3656 -0.5485 -1.9085
   28DOPE   H5S 3527   8.766   5.378  16.120 -0.8904  2.8313 -0.2317
   28DOPE   C26 3528   8.606   5.425  16.002  0.1573  0.1255  0.6270
   28DOPE   H6R 3529   8.613   5.535  16.011  0.8482 -0.0837  3.4872
   28DOPE   H6S 3530   8.498   5.402  15.987  0.6186 -1.8683  0.0256
   28DOPE   C27 3531   8.692   5.388  15.881  0.4947 -0.5441  0.6517
   28DOPE   H7R 3532   8.692   5.279  15.862 -3.7395 -0.7282  0.7793
   28DOPE   H7S 3533   8.799   5.416  15.891  0.5421 -0.0542 -0.8596
   28DOPE   C28 3534   8.632   5.443  15.749 -0.0452 -0.7829 -0.0904
   28DOPE   H8R 3535   8.705   5.431  15.666  1.3718  1.4994  0.7078
   28DOPE   H8S 3536   8.631   5.554  15.758  0.8442 -0.8725  1.7470
   28DOPE   C29 3537   8.501   5.390  15.699 -0.0948 -0.0130 -0.3319
   28DOPE   H9R 3538   8.473   5.286  15.718 -0.1407  0.1984  0.7849
   28DOPE  C210 3539   8.418   5.464  15.621  0.2412 -0.0476  0.1049
   28DOPE  H10R 3540   8.330   5.414  15.578 -0.2904  1.5621 -0.7878
   28DOPE  C211 3541   8.431   5.613  15.588  0.6209 -0.1167  1.1042
   28DOPE  H11R 3542   8.487   5.671  15.664  0.8326 -0.0627  0.9078
   28DOPE  H11S 3543   8.328   5.648  15.567  1.2312  1.2436  0.2354
   28DOPE  C212 3544   8.502   5.639  15.454 -0.2248  0.0408  0.2033
   28DOPE  H12R 3545   8.438   5.614  15.366 -0.6881  0.2598  0.4745
   28DOPE  H12S 3546   8.594   5.577  15.444  0.6771  1.6570 -2.7744
   28DOPE  C213 3547   8.550   5.789  15.441 -0.1954 -0.5691  0.9326
   28DOPE  H13R 3548   8.624   5.807  15.522  0.0611  3.4647  0.0122
   28DOPE  H13S 3549   8.463   5.856  15.451  0.2789  0.2654 -0.2773
   28DOPE  C214 3550   8.612   5.808  15.305 -0.0720 -0.0592 -0.4398
   28DOPE  H14R 3551   8.534   5.794  15.227 -0.3437  0.0633 -0.1953
   28DOPE  H14S 3552   8.689   5.733  15.280  0.0663 -0.3069  0.6720
   28DOPE  C215 3553   8.669   5.939  15.278  0.2289 -0.0524 -0.4073
   28DOPE  H15R 3554   8.731   5.982  15.360 -1.5531 -1.3349  1.7174
   28DOPE  H15S 3555   8.588   6.014  15.268  0.6821  0.3939 -0.7723
   28DOPE  C216 3556   8.750   5.946  15.146 -0.1444  0.7801  0.1774
   28DOPE  H16R 3557   8.697   5.877  15.076 -1.5179 -1.0900  2.8773
   28DOPE  H16S 3558   8.849   5.899  15.166  1.1195  3.3724  0.5268
   28DOPE  C217 3559   8.777   6.083  15.092  0.4302  0.1353  0.2695
   28DOPE  H17R 3560   8.677   6.130  15.099  0.3163  0.1780 -1.2817
   28DOPE  H17S 3561   8.809   6.065  14.987  0.6142 -1.3287  0.5611
   28DOPE  C218 3562   8.884   6.168  15.161 -0.1461 -0.7805 -0.0917
   28DOPE  H18R 3563   8.867   6.163  15.271  0.9951 -0.9314  0.0876
   28DOPE  H18S 3564   8.886   6.270  15.116  1.8703 -0.3232  0.8878
   28DOPE  H18T 3565   8.986   6.126  15.146  1.5604  2.3740  1.5326
   28DOPE   C33 3566   7.588   5.655  16.221 -0.4332 -0.0334 -0.4432
   28DOPE   H3X 3567   7.660   5.712  16.159  0.1513 -1.2553 -0.9090
   28DOPE   H3Y 3568   7.494   5.715  16.221 -1.3560 -1.3743 -2.2410
   28DOPE   C34 3569   7.554   5.515  16.166  0.1040 -0.2633  0.1740
   28DOPE   H4X 3570   7.646   5.453  16.165  0.7203  0.5757 -2.1826
   28DOPE   H4Y 3571   7.474   5.468  16.226  0.2560 -0.1226  0.4877
   28DOPE   C35 3572   7.530   5.537  16.011  0.6600  0.4618  0.3140
   28DOPE   H5X 3573   7.622   5.575  15.962 -0.6467  2.4129 -0.7826
   28DOPE   H5Y 3574   7.443   5.606  16.003  0.3885  0.2447  1.3366
   28DOPE   C36 3575   7.487   5.396  15.946  0.5940  0.0403  0.8043
   28DOPE   H6X 3576   7.389   5.365  15.987  1.1965 -3.4413 -0.1041
   28DOPE   H6Y 3577   7.555   5.314  15.976 -0.8173 -1.6155 -0.3073
   28DOPE   C37 3578   7.453   5.398  15.789 -0.3415  0.0072 -0.0631
   28DOPE   H7X 3579   7.389   5.310  15.766  1.1485 -1.3878  0.8741
   28DOPE   H7Y 3580   7.386   5.482  15.765  0.4702  0.4549 -0.8297
   28DOPE   C38 3581   7.577   5.420  15.701 -0.4874 -0.2411  0.2666
   28DOPE   H8X 3582   7.635   5.325  15.710  1.0618  0.6801  0.3928
   28DOPE   H8Y 3583   7.650   5.488  15.751  1.4283 -1.5735 -0.5878
   28DOPE   C39 3584   7.549   5.458  15.557 -0.1749 -0.1041  0.6874
   28DOPE   H9X 3585   7.477   5.539  15.536 -0.7204 -0.7729 -0.0658
   28DOPE  C310 3586   7.592   5.396  15.447 -0.0631  0.2081  0.3603
   28DOPE  H10X 3587   7.565   5.434  15.347  1.0704  1.1235  0.3802
   28DOPE  C311 3588   7.668   5.268  15.452 -0.3468 -0.5796 -0.0634
   28DOPE  H11X 3589   7.777   5.283  15.441 -0.3896 -0.7144 -0.7226
   28DOPE  H11Y 3590   7.647   5.209  15.544 -3.5352 -1.5803 -1.2661
   28DOPE  C312 3591   7.637   5.176  15.330  0.5886  0.2878  0.1980
   28DOPE  H12X 3592   7.531   5.176  15.298  0.2085  0.2996  1.3852
   28DOPE  H12Y 3593   7.645   5.070  15.365  1.8936  0.5799  0.8542
   28DOPE  C313 3594   7.733   5.189  15.212 -0.0391 -0.6589  0.3346
   28DOPE  H13X 3595   7.736   5.300  15.209 -1.8429 -0.5107  1.6278
   28DOPE  H13Y 3596   7.838   5.154  15.222  0.5170  0.5364 -0.9261
   28DOPE  C314 3597   7.698   5.119  15.086  0.2198  0.3306  0.6126
   28DOPE  H14X 3598   7.739   5.176  15.000  1.5356  1.8197  2.1608
   28DOPE  H14Y 3599   7.590   5.112  15.061  0.8154  0.2017 -2.2061
   28DOPE  C315 3600   7.743   4.973  15.070 -0.1779 -0.9930 -0.3394
   28DOPE  H15X 3601   7.712   4.926  15.165  1.3840  2.1429  1.8786
   28DOPE  H15Y 3602   7.854   4.962  15.062 -0.1439  0.3067 -2.9983
   28DOPE  C316 3603   7.675   4.901  14.955  0.0558 -0.2007  0.3079
   28DOPE  H16X 3604   7.706   4.946  14.858 -1.9460  1.4303  0.3607
   28DOPE  H16Y 3605   7.564   4.905  14.954 -0.0149 -1.2160 -1.5215
   28DOPE  C317 3606   7.701   4.750  14.953  0.1348  0.3881 -0.1800
   28DOPE  H17X 3607   7.811   4.747  14.972 -0.1261  0.7432  1.5479
   28DOPE  H17Y 3608   7.642   4.712  15.040  1.4913  0.3006  0.7429
   28DOPE  C318 3609   7.673   4.682  14.823 -0.2066 -0.2994 -0.3276
   28DOPE  H18X 3610   7.588   4.738  14.776 -0.0482  1.8509  1.7744
   28DOPE  H18Y 3611   7.761   4.679  14.755 -0.4218 -1.0580 -0.5795
   28DOPE  H18Z 3612   7.643   4.577  14.842  0.0384 -0.1921  0.6844
   29DOPE     N 3613   0.229   0.549  16.897 -0.1417 -0.0143  0.1425
   29DOPE   HN1 3614   0.192   0.644  16.876  0.0710 -0.2820 -1.5931
   29DOPE   HN2 3615   0.171   0.480  16.845  0.1991 -0.8160  0.8092
   29DOPE   HN3 3616   0.219   0.537  17.000  2.1255  0.3270  0.4482
   29DOPE   C12 3617   0.371   0.515  16.849  0.9597 -0.3885  0.1403
   29DOPE  H12A 3618   0.443   0.553  16.924  0.6445 -1.2431  0.8940
   29DOPE  H12B 3619   0.378   0.573  16.754  3.6467  0.9600  1.0629
   29DOPE   C11 3620   0.395   0.365  16.823 -0.0971 -0.5913 -0.0240
   29DOPE  H11A 3621   0.399   0.311  16.920 -0.5010 -0.2951  0.1607
   29DOPE  H11B 3622   0.479   0.354  16.751  0.1573  1.2116 -0.0482
   29DOPE     P 3623   0.245   0.231  16.633  0.9890  0.1308 -0.2633
   29DOPE   O13 3624   0.108   0.269  16.581 -0.2349  0.1545 -0.7712
   29DOPE   O14 3625   0.248   0.090  16.683 -0.0119 -0.3897  0.6575
   29DOPE   O11 3626   0.365   0.262  16.526  0.7613  0.3394 -0.6843
   29DOPE   O12 3627   0.277   0.317  16.756  0.0980  0.1905  0.1430
   29DOPE    C1 3628   0.345   0.361  16.420 -0.5357 -0.7922  0.5445
   29DOPE    HA 3629   0.438   0.412  16.387 -0.2672 -1.0519  0.8827
   29DOPE    HB 3630   0.278   0.445  16.450 -2.5398 -1.4873 -1.6677
   29DOPE    C2 3631   0.278   0.302  16.298  0.1429 -0.5657  0.7918
   29DOPE    HS 3632   0.174   0.267  16.318 -0.2797  0.4192  0.3772
   29DOPE   O21 3633   0.359   0.205  16.235  0.1356  1.1805  0.5698
   29DOPE   C21 3634   0.326   0.083  16.254 -0.2848 -0.2536  0.1509
   29DOPE   O22 3635   0.231   0.042  16.321 -0.3074  0.0583  0.2916
   29DOPE   C22 3636   0.436  -0.006  16.200 -0.4557  0.5977 -0.5078
   29DOPE   H2R 3637   0.472  -0.058  16.291 -1.7567  0.3333 -0.1205
   29DOPE   H2S 3638   0.519   0.046  16.146  0.1394 -0.7122 -0.8864
   29DOPE    C3 3639   0.261   0.416  16.186 -0.4283  0.7010 -0.4947
   29DOPE    HX 3640   0.364   0.451  16.162 -0.4430  0.1351 -1.4288
   29DOPE    HY 3641   0.196   0.496  16.227 -1.8652 -0.0745 -1.1881
   29DOPE   O31 3642   0.188   0.361  16.069  0.0601  0.1797 -0.6706
   29DOPE   C31 3643   0.066   0.331  16.091  0.3201  1.0636 -0.0080
   29DOPE   O32 3644  -0.000   0.361  16.189  0.5614 -0.5617 -0.4725
   29DOPE   C32 3645   0.006   0.265  15.970  0.5045  0.3160  0.3935
   29DOPE   H2X 3646   0.059   0.301  15.879 -0.9162  1.0439 -0.1772
   29DOPE   H2Y 3647   0.039   0.159  15.976 -0.9151 -0.2212 -0.7668
   29DOPE   C23 3648   0.373  -0.126  16.120  0.0301  0.6078 -0.8461
   29DOPE   H3R 3649   0.310  -0.185  16.190  0.7235 -0.3996 -1.0300
   29DOPE   H3S 3650   0.448  -0.200  16.083  0.0899 -0.0205  0.4711
   29DOPE   C24 3651   0.290  -0.086  15.995  0.2165  0.3706 -0.6241
   29DOPE   H4R 3652   0.206  -0.024  16.033 -0.4995 -1.1819  0.4063
   29DOPE   H4S 3653   0.246  -0.180  15.957 -2.3655  1.9898 -1.9213
   29DOPE   C25 3654   0.368  -0.014  15.890 -0.3891 -0.0850  0.2664
   29DOPE   H5R 3655   0.454  -0.076  15.856 -0.6864 -0.5972  0.4340
   29DOPE   H5S 3656   0.415   0.073  15.940 -2.2732  0.6209  0.9123
   29DOPE   C26 3657   0.292   0.015  15.763 -0.2652  0.0797  0.2598
   29DOPE   H6R 3658   0.209   0.085  15.787 -1.0033 -0.2925 -1.0800
   29DOPE   H6S 3659   0.243  -0.079  15.729  0.1020 -0.5381  1.3705
   29DOPE   C27 3660   0.373   0.081  15.652  0.2329 -0.5573 -0.4429
   29DOPE   H7R 3661   0.468   0.025  15.641 -0.3066 -1.6068  0.1382
   29DOPE   H7S 3662   0.393   0.181  15.698 -3.7225  0.0108  0.4174
   29DOPE   C28 3663   0.317   0.095  15.505  0.3416  0.5761 -0.0017
   29DOPE   H8R 3664   0.298  -0.004  15.460 -1.5240  0.2448  1.3919
   29DOPE   H8S 3665   0.402   0.128  15.442 -0.0237  0.8801 -0.3430
   29DOPE   C29 3666   0.195   0.182  15.483  0.6281  0.6110 -0.1385
   29DOPE   H9R 3667   0.208   0.290  15.504  0.2718  0.8560 -1.1277
   29DOPE  C210 3668   0.069   0.132  15.457  0.3022 -0.8095  0.3739
   29DOPE  H10R 3669  -0.015   0.202  15.449  0.7306 -0.1053  1.6919
   29DOPE  C211 3670   0.037  -0.015  15.428 -0.5060 -0.2613  0.3349
   29DOPE  H11R 3671   0.125  -0.072  15.390 -0.8031 -1.2237  1.0386
   29DOPE  H11S 3672  -0.043  -0.012  15.351  0.3565  2.5555 -0.5674
   29DOPE  C212 3673  -0.014  -0.080  15.560 -0.0142 -0.0003  0.8434
   29DOPE  H12R 3674  -0.102  -0.024  15.598 -0.3310  0.1899 -0.1213
   29DOPE  H12S 3675   0.067  -0.084  15.636  1.1795  0.3377 -0.3720
   29DOPE  C213 3676  -0.071  -0.226  15.529  0.9252 -0.4553 -0.0956
   29DOPE  H13R 3677   0.019  -0.290  15.524  0.8485 -0.7231  1.4034
   29DOPE  H13S 3678  -0.127  -0.221  15.434  1.5236 -1.6444 -0.5236
   29DOPE  C214 3679  -0.165  -0.275  15.640  0.1757 -0.1804 -0.8455
   29DOPE  H14R 3680  -0.217  -0.371  15.623 -0.3871 -0.3685  1.6765
   29DOPE  H14S 3681  -0.237  -0.194  15.666 -0.1318 -0.6467 -0.2438
   29DOPE  C215 3682  -0.079  -0.295  15.769  0.9290  0.5762 -0.1965
   29DOPE  H15R 3683  -0.018  -0.206  15.796  0.2786  1.2240 -0.8139
   29DOPE  H15S 3684  -0.007  -0.377  15.746 -0.0402 -0.0535 -1.0606
   29DOPE  C216 3685  -0.148  -0.348  15.891  0.6090 -0.2998 -0.1253
   29DOPE  H16R 3686  -0.195  -0.440  15.850 -1.8882  0.9941 -0.3666
   29DOPE  H16S 3687  -0.239  -0.284  15.905  0.1654  0.0670 -3.7977
   29DOPE  C217 3688  -0.063  -0.365  16.018 -0.6291 -0.3557 -0.4258
   29DOPE  H17R 3689   0.031  -0.419  15.996  0.0026  1.6084 -3.0233
   29DOPE  H17S 3690  -0.121  -0.413  16.100 -1.5555 -0.2212 -0.9820
   29DOPE  C218 3691  -0.026  -0.225  16.074 -0.2919  0.1340 -0.1651
   29DOPE  H18R 3692  -0.117  -0.170  16.104  0.7209  1.7867 -0.0041
   29DOPE  H18S 3693   0.036  -0.176  15.996 -2.2898 -0.4520 -2.2417
   29DOPE  H18T 3694   0.033  -0.234  16.168 -0.5218  0.7322  0.0326
   29DOPE   C33 3695  -0.148   0.279  15.958  0.2050 -0.6076 -0.1122
   29DOPE   H3X 3696  -0.170   0.388  15.954 -0.2130 -0.6481  0.8541
   29DOPE   H3Y 3697  -0.189   0.243  16.054 -0.3508  0.6750  0.1504
   29DOPE   C34 3698  -0.211   0.205  15.834 -0.2895  0.2512 -0.0202
   29DOPE   H4X 3699  -0.180   0.098  15.828  1.8929  0.7038  1.8512
   29DOPE   H4Y 3700  -0.319   0.195  15.859 -0.1678  0.8775  0.7924
   29DOPE   C35 3701  -0.208   0.283  15.701 -0.4754  0.3320 -0.3961
   29DOPE   H5X 3702  -0.127   0.238  15.640  0.3793 -0.2000  1.0800
   29DOPE   H5Y 3703  -0.193   0.393  15.706  1.2931  0.1026 -0.1433
   29DOPE   C36 3704  -0.339   0.256  15.614 -0.2985 -0.1405  0.0810
   29DOPE   H6X 3705  -0.430   0.282  15.671 -1.7841 -3.5703 -0.4861
   29DOPE   H6Y 3706  -0.342   0.147  15.590  0.9951 -0.4537  1.1418
   29DOPE   C37 3707  -0.342   0.333  15.480  0.3797  0.8985  0.0779
   29DOPE   H7X 3708  -0.331   0.442  15.498 -3.0763  1.5730 -1.1649
   29DOPE   H7Y 3709  -0.256   0.285  15.428 -0.3819  0.4032 -0.7423
   29DOPE   C38 3710  -0.483   0.314  15.409  0.2250 -0.5716  0.5289
   29DOPE   H8X 3711  -0.502   0.407  15.350  1.0368 -0.6147  0.1902
   29DOPE   H8Y 3712  -0.556   0.304  15.492  0.2552 -2.4722  0.3756
   29DOPE   C39 3713  -0.492   0.187  15.322 -0.6063 -0.1570  0.5290
   29DOPE   H9X 3714  -0.568   0.112  15.350 -0.7481 -0.3591 -0.3724
   29DOPE  C310 3715  -0.429   0.174  15.205  0.0023  0.3202 -0.4202
   29DOPE  H10X 3716  -0.431   0.082  15.146  3.5507  1.4771 -2.6632
   29DOPE  C311 3717  -0.334   0.269  15.147 -0.5180  0.1358  0.2807
   29DOPE  H11X 3718  -0.380   0.290  15.048 -2.7232 -2.3851  0.6519
   29DOPE  H11Y 3719  -0.319   0.359  15.210  0.0333  0.1888  0.0871
   29DOPE  C312 3720  -0.193   0.216  15.106 -0.3509  0.4728 -0.5937
   29DOPE  H12X 3721  -0.131   0.216  15.199  0.5827 -2.7445 -1.0760
   29DOPE  H12Y 3722  -0.146   0.277  15.027  1.8633 -1.0106 -0.5231
   29DOPE  C313 3723  -0.194   0.074  15.047 -0.4856 -0.6275 -0.3540
   29DOPE  H13X 3724  -0.224   0.013  15.135  1.1003  0.6942  1.1825
   29DOPE  H13Y 3725  -0.260   0.060  14.959 -0.4181 -0.2012 -0.4787
   29DOPE  C314 3726  -0.054   0.040  15.008  0.1091  0.0678  0.1613
   29DOPE  H14X 3727   0.014   0.048  15.095 -0.3903  0.7457  0.4982
   29DOPE  H14Y 3728  -0.027   0.107  14.924 -1.3684 -0.1065 -0.4950
   29DOPE  C315 3729  -0.033  -0.102  14.955 -0.3088  0.5820  0.2721
   29DOPE  H15X 3730  -0.067  -0.099  14.850  0.2577  0.2165  0.0763
   29DOPE  H15Y 3731  -0.099  -0.180  14.998  0.3695 -0.0858  0.1068
   29DOPE  C316 3732   0.114  -0.160  14.965  0.1760  0.3718 -0.4486
   29DOPE  H16X 3733   0.108  -0.262  15.007  0.0573  0.2509 -0.7584
   29DOPE  H16Y 3734   0.176  -0.109  15.042  0.7324 -2.3020  0.9884
   29DOPE  C317 3735   0.187  -0.175  14.833 -0.5214  0.4807 -0.3129
   29DOPE  H17X 3736   0.179  -0.077  14.781 -0.8389  1.4953  1.5299
   29DOPE  H17Y 3737   0.295  -0.187  14.854 -0.6090  0.7396  0.3269
   29DOPE  C318 3738   0.136  -0.281  14.741  0.2506  0.4275 -0.2575
   29DOPE  H18X 3739   0.134  -0.386  14.778 -2.1328  0.3764 -0.3995
   29DOPE  H18Y 3740   0.032  -0.251  14.714 -0.9697 -3.1617 -0.0404
   29DOPE  H18Z 3741   0.197  -0.297  14.649 -2.6612 -0.8154 -2.1109
   30DOPE     N 3742   1.250   6.034  16.854  0.6050  0.0100  0.0502
   30DOPE   HN1 3743   1.167   5.985  16.814  1.4109 -1.6449  0.3292
   30DOPE   HN2 3744   1.301   5.951  16.890 -1.0944 -0.6661  1.0064
   30DOPE   HN3 3745   1.218   6.084  16.940  0.8017  2.7833 -1.3505
   30DOPE   C12 3746   1.302   6.127  16.751  0.0745  0.3309  0.2249
   30DOPE  H12A 3747   1.336   6.071  16.661 -0.5685  0.0808  0.1334
   30DOPE  H12B 3748   1.391   6.178  16.793  0.1247  0.2580  0.2067
   30DOPE   C11 3749   1.189   6.222  16.704  0.4639  0.2013  0.0334
   30DOPE  H11A 3750   1.093   6.168  16.685  0.4070 -0.1537  1.2636
   30DOPE  H11B 3751   1.200   6.274  16.607 -0.6968 -0.5144 -0.5065
   30DOPE     P 3752   1.243   6.436  16.841  0.2349  0.0057  0.5375
   30DOPE   O13 3753   1.380   6.394  16.870  0.3027 -0.0704 -0.3221
   30DOPE   O14 3754   1.173   6.522  16.944  0.6731 -0.2050 -0.1896
   30DOPE   O11 3755   1.235   6.505  16.704  0.3013  0.0023  0.2000
   30DOPE   O12 3756   1.155   6.310  16.813 -0.0247  0.0114 -0.4369
   30DOPE    C1 3757   1.295   6.635  16.690  0.5274 -0.1088  0.7519
   30DOPE    HA 3758   1.399   6.644  16.728  0.7082 -3.0993  1.1808
   30DOPE    HB 3759   1.231   6.709  16.742  0.8324 -0.4427  1.6153
   30DOPE    C2 3760   1.308   6.693  16.540 -0.1585 -0.2311 -0.2250
   30DOPE    HS 3761   1.205   6.701  16.499 -0.2647  2.3476  0.3332
   30DOPE   O21 3762   1.389   6.605  16.465  0.6907  0.1197  0.4897
   30DOPE   C21 3763   1.334   6.508  16.391  0.7255 -0.3147 -0.3482
   30DOPE   O22 3764   1.217   6.503  16.364 -0.0022  0.0819 -0.0580
   30DOPE   C22 3765   1.429   6.401  16.355 -0.1175 -0.2067  1.6493
   30DOPE   H2R 3766   1.411   6.303  16.404  0.3473 -1.0245  0.2275
   30DOPE   H2S 3767   1.527   6.433  16.395  0.1694 -1.5336  2.0155
   30DOPE    C3 3768   1.375   6.835  16.525  0.7749  0.3285 -0.5552
   30DOPE    HX 3769   1.475   6.835  16.575  0.9518 -0.1857 -0.8946
   30DOPE    HY 3770   1.310   6.907  16.578  0.5640 -2.0960  2.8102
   30DOPE   O31 3771   1.377   6.876  16.386  0.0621 -0.2957 -0.1069
   30DOPE   C31 3772   1.469   6.832  16.306 -0.3011  0.1680 -0.0591
   30DOPE   O32 3773   1.579   6.794  16.338 -0.0479  0.6583  0.7636
   30DOPE   C32 3774   1.424   6.856  16.161 -0.2606  0.3509 -0.3835
   30DOPE   H2X 3775   1.347   6.778  16.140  0.2660 -0.1951 -0.3125
   30DOPE   H2Y 3776   1.380   6.957  16.146  1.5602  1.4903  1.4587
   30DOPE   C23 3777   1.455   6.393  16.203  0.4215 -0.5392  0.6671
   30DOPE   H3R 3778   1.409   6.479  16.151 -0.5711 -0.4093  1.7233
   30DOPE   H3S 3779   1.415   6.301  16.154 -0.7152  1.4830 -2.4625
   30DOPE   C24 3780   1.602   6.407  16.162  0.0125  0.2324 -0.5342
   30DOPE   H4R 3781   1.662   6.318  16.192 -1.9177 -1.1049 -0.4220
   30DOPE   H4S 3782   1.641   6.499  16.210 -2.0772  1.5900 -1.2991
   30DOPE   C25 3783   1.606   6.437  16.009 -0.0350  0.0069 -0.3474
   30DOPE   H5R 3784   1.712   6.454  15.981 -0.5365 -0.1218 -2.5504
   30DOPE   H5S 3785   1.554   6.535  16.001  0.2834  0.2033  0.0044
   30DOPE   C26 3786   1.551   6.329  15.915  0.4040 -0.0799 -0.1289
   30DOPE   H6R 3787   1.443   6.314  15.936  0.9426 -1.6216  1.8093
   30DOPE   H6S 3788   1.601   6.231  15.929  1.8832  0.3788 -1.8825
   30DOPE   C27 3789   1.571   6.368  15.772 -0.7251 -0.1585  0.5733
   30DOPE   H7R 3790   1.674   6.346  15.735 -0.8574  0.5474 -0.2542
   30DOPE   H7S 3791   1.552   6.474  15.745 -4.1335 -0.8802 -0.2109
   30DOPE   C28 3792   1.473   6.302  15.674  0.2436  0.1355  0.1402
   30DOPE   H8R 3793   1.371   6.343  15.691  0.3479  1.0642 -1.3347
   30DOPE   H8S 3794   1.461   6.193  15.694  0.1610  0.4635  2.1234
   30DOPE   C29 3795   1.488   6.331  15.528  0.3697 -0.7825  0.1009
   30DOPE   H9R 3796   1.422   6.409  15.487  0.9367 -0.1648  0.3501
   30DOPE  C210 3797   1.588   6.276  15.455 -0.1315  0.1183  0.2209
   30DOPE  H10R 3798   1.602   6.302  15.349  1.8564  1.8404  0.8297
   30DOPE  C211 3799   1.694   6.179  15.500  0.0670 -0.5073 -0.1297
   30DOPE  H11R 3800   1.661   6.077  15.471 -1.5700  0.1793 -0.8575
   30DOPE  H11S 3801   1.703   6.185  15.610 -0.5401 -0.5940 -0.0679
   30DOPE  C212 3802   1.833   6.197  15.436  0.3693 -0.2335  0.3016
   30DOPE  H12R 3803   1.902   6.135  15.498  0.0690 -0.0239  0.8516
   30DOPE  H12S 3804   1.876   6.299  15.438  0.4644 -0.2268 -1.2650
   30DOPE  C213 3805   1.845   6.153  15.289  0.0412  0.5642 -0.8399
   30DOPE  H13R 3806   1.783   6.222  15.229  0.8840  0.8587 -1.3817
   30DOPE  H13S 3807   1.811   6.049  15.276 -0.9136  1.0051 -2.0292
   30DOPE  C214 3808   1.990   6.173  15.239 -0.5915 -0.4351  0.2029
   30DOPE  H14R 3809   2.034   6.265  15.282 -0.5219 -0.2383 -0.2789
   30DOPE  H14S 3810   2.006   6.187  15.130 -0.1463  1.9639  0.5259
   30DOPE  C215 3811   2.086   6.049  15.265 -0.1864 -0.1492 -0.3462
   30DOPE  H15R 3812   2.061   5.968  15.193 -0.3356  2.4772 -3.4857
   30DOPE  H15S 3813   2.076   6.011  15.369  1.0221 -1.4999 -0.6881
   30DOPE  C216 3814   2.237   6.081  15.241  0.4248  0.7323  0.5788
   30DOPE  H16R 3815   2.265   6.158  15.315 -1.5326  0.7027  1.4100
   30DOPE  H16S 3816   2.240   6.122  15.138 -1.1223  0.7134  0.4970
   30DOPE  C217 3817   2.336   5.965  15.265 -0.3653  0.1355  0.1835
   30DOPE  H17R 3818   2.298   5.873  15.216  1.0366 -1.2617  1.5755
   30DOPE  H17S 3819   2.320   5.959  15.375 -1.5443 -0.6245 -0.0116
   30DOPE  C218 3820   2.482   5.979  15.229  0.3017  0.9425 -0.0716
   30DOPE  H18R 3821   2.534   5.899  15.286 -2.7662 -1.4156 -0.3383
   30DOPE  H18S 3822   2.515   6.084  15.247 -2.1275  1.4936  1.7779
   30DOPE  H18T 3823   2.496   5.953  15.122 -1.5608  0.1544 -0.1497
   30DOPE   C33 3824   1.544   6.836  16.069  0.2962  0.7048 -0.5671
   30DOPE   H3X 3825   1.600   6.741  16.081  1.1830  1.0927 -1.4037
   30DOPE   H3Y 3826   1.617   6.916  16.094 -0.6387  1.5996 -0.6449
   30DOPE   C34 3827   1.515   6.830  15.916  1.1157  0.1869 -0.5241
   30DOPE   H4X 3828   1.457   6.739  15.893 -2.2026  2.0334 -0.0853
   30DOPE   H4Y 3829   1.452   6.919  15.892 -0.3605 -0.6642  0.1139
   30DOPE   C35 3830   1.641   6.842  15.835  0.0591 -0.2206  0.0680
   30DOPE   H5X 3831   1.708   6.755  15.852  0.0919  0.1149  1.7880
   30DOPE   H5Y 3832   1.706   6.928  15.861  2.7355 -2.4941  1.4190
   30DOPE   C36 3833   1.604   6.846  15.688  0.0185  0.6749 -0.2933
   30DOPE   H6X 3834   1.539   6.936  15.682  1.3220  1.6475 -0.2921
   30DOPE   H6Y 3835   1.544   6.753  15.674 -0.5987  0.6279  2.2470
   30DOPE   C37 3836   1.729   6.848  15.600 -0.3603  0.5430  0.3178
   30DOPE   H7X 3837   1.773   6.949  15.613  1.3959 -0.1274 -0.0868
   30DOPE   H7Y 3838   1.793   6.774  15.653  0.7782  1.2085 -0.0983
   30DOPE   C38 3839   1.703   6.828  15.445 -0.0809 -0.0162  0.1931
   30DOPE   H8X 3840   1.792   6.869  15.394 -0.1920 -1.0501 -0.8781
   30DOPE   H8Y 3841   1.613   6.889  15.421 -0.7854 -0.6003  1.2540
   30DOPE   C39 3842   1.681   6.688  15.414 -0.7579 -0.2532  0.7013
   30DOPE   H9X 3843   1.577   6.657  15.430 -1.1258 -0.0065 -1.0187
   30DOPE  C310 3844   1.766   6.610  15.345  0.3121  0.0225 -0.5609
   30DOPE  H10X 3845   1.723   6.514  15.314 -2.4662  1.1422 -0.5029
   30DOPE  C311 3846   1.900   6.657  15.286  0.2812  0.2591  0.8694
   30DOPE  H11X 3847   1.926   6.763  15.309 -0.8594  0.9398 -0.8037
   30DOPE  H11Y 3848   1.967   6.577  15.324 -0.5254 -1.8313 -1.7993
   30DOPE  C312 3849   1.899   6.649  15.132  0.3107 -0.0403  0.8706
   30DOPE  H12X 3850   1.997   6.683  15.094 -1.3662  1.8061 -2.2339
   30DOPE  H12Y 3851   1.813   6.709  15.096  1.1238  0.7145  0.1434
   30DOPE  C313 3852   1.871   6.505  15.078  0.2838 -0.2133  0.5680
   30DOPE  H13X 3853   1.924   6.438  15.148  1.1244  1.0617  1.1921
   30DOPE  H13Y 3854   1.763   6.481  15.089 -0.1702  1.9401  1.2474
   30DOPE  C314 3855   1.915   6.492  14.937 -0.6316  0.1828  0.3665
   30DOPE  H14X 3856   2.022   6.520  14.933 -0.7121  0.5693  0.8385
   30DOPE  H14Y 3857   1.855   6.552  14.866  1.3386 -0.1643 -1.7002
   30DOPE  C315 3858   1.913   6.342  14.895 -0.1323 -0.0788 -0.4760
   30DOPE  H15X 3859   1.812   6.301  14.914 -0.7657  2.0538  1.2118
   30DOPE  H15Y 3860   1.982   6.294  14.968 -0.9543 -0.9054 -0.2362
   30DOPE  C316 3861   1.953   6.316  14.752 -0.7694 -0.6387 -0.5189
   30DOPE  H16X 3862   1.959   6.205  14.745 -0.2818 -0.6782  0.3224
   30DOPE  H16Y 3863   2.055   6.359  14.738 -0.7344 -0.7704 -0.6753
   30DOPE  C317 3864   1.843   6.373  14.652  0.6878  0.2906 -0.7835
   30DOPE  H17X 3865   1.753   6.316  14.686  0.7840  0.1615 -0.7454
   30DOPE  H17Y 3866   1.822   6.481  14.664 -1.8153 -0.0589 -1.4543
   30DOPE  C318 3867   1.882   6.338  14.511  0.1098  0.9195 -0.2733
   30DOPE  H18X 3868   1.980   6.385  14.486  1.1099 -0.6609  0.5349
   30DOPE  H18Y 3869   1.907   6.231  14.496 -0.4416  1.1582 -3.6698
   30DOPE  H18Z 3870   1.802   6.355  14.435  0.0076 -0.9157 -0.6231
   31DOPE     N 3871   4.112   2.229  12.734  0.4884  0.2350  0.1262
   31DOPE   HN1 3872   4.141   2.218  12.635  0.0558  3.4538 -0.4904
   31DOPE   HN2 3873   4.087   2.135  12.769 -0.9381  0.5818  0.1181
   31DOPE   HN3 3874   4.019   2.278  12.731 -0.5951 -1.4563  2.7527
   31DOPE   C12 3875   4.195   2.312  12.825 -0.2305  0.1062 -0.4166
   31DOPE  H12A 3876   4.137   2.348  12.912  0.0292 -4.4915  1.9852
   31DOPE  H12B 3877   4.229   2.400  12.766 -2.6354  0.8557 -0.7731
   31DOPE   C11 3878   4.315   2.234  12.880 -0.1418  0.0217  0.0908
   31DOPE  H11A 3879   4.276   2.154  12.947  1.5162  0.2507  1.4048
   31DOPE  H11B 3880   4.377   2.302  12.941 -0.3307 -1.5270  2.1153
   31DOPE     P 3881   4.529   2.212  12.742  0.2651  0.4062  0.0881
   31DOPE   O13 3882   4.532   2.355  12.726  0.4816  0.2122 -0.2199
   31DOPE   O14 3883   4.579   2.136  12.622 -0.2328  0.3027 -0.2764
   31DOPE   O11 3884   4.595   2.173  12.875 -0.1743  0.4829 -0.2912
   31DOPE   O12 3885   4.380   2.174  12.767  0.2049 -0.4080  0.3870
   31DOPE    C1 3886   4.578   2.049  12.944 -0.4763 -0.8458  0.3195
   31DOPE    HA 3887   4.596   1.963  12.876 -1.5028  0.2511 -1.3927
   31DOPE    HB 3888   4.480   2.037  12.995 -0.7842 -1.2617 -0.3670
   31DOPE    C2 3889   4.692   2.040  13.050  0.2059 -0.5868  0.2717
   31DOPE    HS 3890   4.686   1.933  13.078 -1.7882 -0.5676  0.0851
   31DOPE   O21 3891   4.681   2.120  13.172 -0.0992 -0.2267  0.1152
   31DOPE   C21 3892   4.574   2.101  13.254  0.2028  0.2128 -0.8365
   31DOPE   O22 3893   4.474   2.043  13.226  0.5400  0.1970 -0.0932
   31DOPE   C22 3894   4.588   2.181  13.384 -0.3600  0.1544  0.2788
   31DOPE   H2R 3895   4.654   2.267  13.360 -1.3689  0.2109 -2.6265
   31DOPE   H2S 3896   4.642   2.124  13.463  0.1045  3.1633  2.3396
   31DOPE    C3 3897   4.838   2.052  12.985 -0.3364 -0.0100  0.2136
   31DOPE    HX 3898   4.840   2.141  12.918  0.0407 -0.2267 -0.0668
   31DOPE    HY 3899   4.865   1.964  12.923  1.8671  0.0646  0.9754
   31DOPE   O31 3900   4.943   2.053  13.089 -0.2732  0.0094 -0.5393
   31DOPE   C31 3901   4.962   2.178  13.134 -0.2719  0.5945 -1.1501
   31DOPE   O32 3902   4.913   2.279  13.087  0.3647 -0.2986  0.0152
   31DOPE   C32 3903   5.038   2.175  13.267  0.1459  0.0030  0.4047
   31DOPE   H2X 3904   5.005   2.085  13.324  0.0139 -0.7740 -0.8611
   31DOPE   H2Y 3905   5.145   2.151  13.248  0.0919  0.0053  0.0854
   31DOPE   C23 3906   4.457   2.230  13.443 -0.0715  0.7378 -0.5121
   31DOPE   H3R 3907   4.387   2.276  13.369  0.4466  2.5540  0.0573
   31DOPE   H3S 3908   4.479   2.319  13.506 -0.4995  0.2739  0.2993
   31DOPE   C24 3909   4.384   2.125  13.527 -0.0695  0.2293  0.1234
   31DOPE   H4R 3910   4.447   2.079  13.606 -0.1127  1.6303  1.0311
   31DOPE   H4S 3911   4.337   2.046  13.465  1.1974 -0.2508 -0.2446
   31DOPE   C25 3912   4.268   2.190  13.603 -0.3431  0.2345 -0.2374
   31DOPE   H5R 3913   4.185   2.208  13.531  0.2424  1.4535 -0.6316
   31DOPE   H5S 3914   4.305   2.281  13.654  2.4886 -1.2118  0.5112
   31DOPE   C26 3915   4.213   2.110  13.724 -0.5934  0.1039 -0.7718
   31DOPE   H6R 3916   4.174   2.009  13.697 -1.3502 -0.2122  1.2918
   31DOPE   H6S 3917   4.130   2.170  13.766 -0.6605  0.9768 -2.1029
   31DOPE   C27 3918   4.322   2.101  13.839 -0.3666 -0.0483 -0.1311
   31DOPE   H7R 3919   4.387   2.190  13.827 -2.4352  1.2696 -2.8328
   31DOPE   H7S 3920   4.375   2.010  13.803  0.1320  0.4901 -0.7915
   31DOPE   C28 3921   4.279   2.081  13.981  0.1687 -0.5574  0.0074
   31DOPE   H8R 3922   4.366   2.058  14.045  0.2922  0.9912  0.4404
   31DOPE   H8S 3923   4.211   1.993  13.986 -0.6246  0.1117  2.1772
   31DOPE   C29 3924   4.221   2.210  14.027 -0.2001 -0.0293 -0.9055
   31DOPE   H9R 3925   4.156   2.267  13.958 -0.9046  0.7200  0.3375
   31DOPE  C210 3926   4.266   2.275  14.141 -0.0108 -0.1125  0.2950
   31DOPE  H10R 3927   4.221   2.374  14.159 -0.7821 -0.0616 -1.6149
   31DOPE  C211 3928   4.361   2.220  14.245  0.4305  0.5059  0.0705
   31DOPE  H11R 3929   4.464   2.212  14.205 -0.5315  0.0899 -2.5826
   31DOPE  H11S 3930   4.325   2.119  14.275  0.2628  1.2468  2.5580
   31DOPE  C212 3931   4.367   2.312  14.368 -0.0833 -0.1104  0.1164
   31DOPE  H12R 3932   4.264   2.339  14.399  0.7316  2.7332  0.6769
   31DOPE  H12S 3933   4.417   2.410  14.346 -2.7220  0.9997 -1.3613
   31DOPE  C213 3934   4.441   2.257  14.491  0.2514 -0.2212  0.3842
   31DOPE  H13R 3935   4.387   2.165  14.523 -1.1860  1.1493  2.1713
   31DOPE  H13S 3936   4.440   2.334  14.572 -2.0901  1.5480 -1.2092
   31DOPE  C214 3937   4.589   2.226  14.465 -0.4302 -0.3674  0.2128
   31DOPE  H14R 3938   4.643   2.313  14.422  1.6152 -1.9795 -0.6470
   31DOPE  H14S 3939   4.596   2.144  14.391 -0.1491 -0.5049  0.3868
   31DOPE  C215 3940   4.667   2.193  14.596  0.3813  0.1116 -0.0453
   31DOPE  H15R 3941   4.604   2.120  14.651 -0.1307  1.1339  0.7536
   31DOPE  H15S 3942   4.688   2.277  14.666 -0.8970 -0.0784  0.5925
   31DOPE  C216 3943   4.793   2.118  14.573  0.0830 -0.0109  0.4630
   31DOPE  H16R 3944   4.778   2.025  14.514  1.6413 -0.7664  1.1857
   31DOPE  H16S 3945   4.831   2.089  14.673 -0.1193 -0.3391  0.4475
   31DOPE  C217 3946   4.903   2.208  14.511 -0.3338  0.1327 -0.3275
   31DOPE  H17R 3947   4.921   2.290  14.584  1.1474 -0.9709  0.5898
   31DOPE  H17S 3948   4.863   2.257  14.420 -0.9555 -1.9580 -1.2394
   31DOPE  C218 3949   5.030   2.139  14.470 -0.0966 -0.4482  0.3220
   31DOPE  H18R 3950   5.073   2.076  14.552 -0.0565  1.0523  1.5069
   31DOPE  H18S 3951   5.114   2.201  14.432  0.6229 -1.9653 -0.6484
   31DOPE  H18T 3952   5.002   2.063  14.394  0.0265  0.7502 -0.9404
   31DOPE   C33 3953   5.040   2.304  13.349 -0.1505  0.6250  0.4189
   31DOPE   H3X 3954   5.056   2.397  13.289  0.7846  0.3705  0.2509
   31DOPE   H3Y 3955   5.128   2.288  13.415 -0.4183 -3.7732 -0.0324
   31DOPE   C34 3956   4.930   2.322  13.446  0.0608 -0.1524 -1.1353
   31DOPE   H4X 3957   4.838   2.336  13.386 -1.1430  2.4253  1.1696
   31DOPE   H4Y 3958   4.923   2.230  13.508  1.5034  1.1854  1.1545
   31DOPE   C35 3959   4.940   2.437  13.551  0.1816 -0.4208 -0.8366
   31DOPE   H5X 3960   4.969   2.531  13.499  3.6123 -1.0218 -0.2001
   31DOPE   H5Y 3961   5.016   2.406  13.626  0.0106  1.0550 -0.0058
   31DOPE   C36 3962   4.809   2.468  13.633 -0.4127 -0.0497 -0.2414
   31DOPE   H6X 3963   4.829   2.545  13.711 -1.1292  1.1793 -1.2338
   31DOPE   H6Y 3964   4.775   2.374  13.681  0.5113 -0.0545  0.4350
   31DOPE   C37 3965   4.694   2.531  13.546  0.2299  0.5422 -0.1070
   31DOPE   H7X 3966   4.736   2.627  13.509  1.9740  0.1966  0.8932
   31DOPE   H7Y 3967   4.679   2.458  13.464 -0.6036 -0.3865  0.8334
   31DOPE   C38 3968   4.569   2.550  13.624  0.2762 -0.7585 -0.5928
   31DOPE   H8X 3969   4.527   2.456  13.665 -0.0267 -0.4705 -0.2246
   31DOPE   H8Y 3970   4.496   2.583  13.547 -1.1123  3.0845  2.0555
   31DOPE   C39 3971   4.572   2.669  13.717 -0.4981  0.8691 -0.4559
   31DOPE   H9X 3972   4.553   2.765  13.666 -1.0456  0.7139 -0.5512
   31DOPE  C310 3973   4.600   2.663  13.855 -0.5879 -0.6557 -0.2013
   31DOPE  H10X 3974   4.597   2.750  13.922  2.8613 -0.9267  0.4798
   31DOPE  C311 3975   4.621   2.531  13.928 -0.5326  0.1854  0.0800
   31DOPE  H11X 3976   4.609   2.448  13.855 -0.6625  0.7000 -0.4918
   31DOPE  H11Y 3977   4.725   2.543  13.966 -0.7115  1.4267  0.2367
   31DOPE  C312 3978   4.516   2.523  14.037 -0.4668  0.0152 -0.1689
   31DOPE  H12X 3979   4.519   2.418  14.073 -0.0370 -0.0323 -0.3314
   31DOPE  H12Y 3980   4.415   2.542  13.995 -0.6495  0.8778  0.6332
   31DOPE  C313 3981   4.526   2.612  14.157  0.2983 -0.4753  0.0259
   31DOPE  H13X 3982   4.525   2.721  14.132 -4.2365  0.0888  1.5892
   31DOPE  H13Y 3983   4.436   2.596  14.220 -0.3559  0.6098 -0.5988
   31DOPE  C314 3984   4.645   2.589  14.247 -0.2688 -0.2006  0.2011
   31DOPE  H14X 3985   4.730   2.646  14.204 -2.0771  0.7771 -2.3267
   31DOPE  H14Y 3986   4.672   2.481  14.247  0.0136 -0.1308  0.7514
   31DOPE  C315 3987   4.637   2.638  14.388  0.3312 -0.0391  0.3137
   31DOPE  H15X 3988   4.544   2.597  14.434 -1.6873  3.2739 -0.4854
   31DOPE  H15Y 3989   4.617   2.746  14.374 -0.9489  0.0097  2.1988
   31DOPE  C316 3990   4.769   2.611  14.465 -0.0717 -0.7604  0.2401
   31DOPE  H16X 3991   4.850   2.679  14.433 -0.1358 -1.0525 -0.5437
   31DOPE  H16Y 3992   4.800   2.507  14.445  0.1117 -0.9229  1.2990
   31DOPE  C317 3993   4.731   2.621  14.616  0.0946  0.3522  0.5160
   31DOPE  H17X 3994   4.688   2.722  14.631 -1.8385 -0.2931 -0.3946
   31DOPE  H17Y 3995   4.667   2.533  14.636  1.0262 -0.2403  0.9771
   31DOPE  C318 3996   4.851   2.584  14.703 -0.2182 -0.0152 -0.0838
   31DOPE  H18X 3997   4.941   2.638  14.669  1.6255 -2.1075  1.2102
   31DOPE  H18Y 3998   4.834   2.604  14.811  2.0907  3.0406 -0.1410
   31DOPE  H18Z 3999   4.882   2.477  14.696  0.4489  0.1917 -0.3250
   32DOPE     N 4000   5.770   2.400  13.025  1.0651 -0.0846  0.2340
   32DOPE   HN1 4001   5.750   2.456  13.110  0.6868  0.9860 -0.5365
   32DOPE   HN2 4002   5.695   2.402  12.952 -0.8703  0.1127  2.1188
   32DOPE   HN3 4003   5.769   2.298  13.044 -0.4781 -0.7626 -2.8656
   32DOPE   C12 4004   5.904   2.430  12.963  0.5041 -0.2262  0.4861
   32DOPE  H12A 4005   5.923   2.347  12.892 -1.2144 -0.8698  0.7287
   32DOPE  H12B 4006   5.980   2.440  13.044  3.8545  0.8598 -2.5194
   32DOPE   C11 4007   5.893   2.573  12.902  0.1187  0.1287 -0.0931
   32DOPE  H11A 4008   5.804   2.570  12.837  0.8012 -0.5049 -1.0326
   32DOPE  H11B 4009   5.984   2.585  12.839 -1.0257  0.6681 -1.7085
   32DOPE     P 4010   5.935   2.816  12.986  0.0099  0.0378  0.0142
   32DOPE   O13 4011   5.824   2.876  12.912  0.0311  0.2494 -0.2020
   32DOPE   O14 4012   6.068   2.826  12.928  0.1051  0.7535  0.1490
   32DOPE   O11 4013   5.938   2.878  13.133 -0.0058 -0.0334 -0.3132
   32DOPE   O12 4014   5.886   2.671  13.013 -0.1039  0.4256  0.2719
   32DOPE    C1 4015   5.808   2.859  13.200  0.5005  0.0417 -0.0212
   32DOPE    HA 4016   5.768   2.756  13.193  1.2875 -0.2999  0.3750
   32DOPE    HB 4017   5.724   2.924  13.168 -0.0239 -0.5582  0.1160
   32DOPE    C2 4018   5.833   2.887  13.350  0.6017  0.5331 -0.6260
   32DOPE    HS 4019   5.738   2.867  13.405  0.8684 -0.7713 -0.6058
   32DOPE   O21 4020   5.889   3.020  13.391 -0.7586 -0.3876  0.2308
   32DOPE   C21 4021   5.806   3.117  13.380 -0.2640  0.1346 -0.5987
   32DOPE   O22 4022   5.682   3.106  13.370 -0.3347 -0.0934  0.9360
   32DOPE   C22 4023   5.886   3.245  13.391 -0.9802  0.1119  0.0169
   32DOPE   H2R 4024   5.974   3.242  13.325 -1.3351 -0.2925 -0.4406
   32DOPE   H2S 4025   5.924   3.248  13.496 -1.2818  0.3589  0.1219
   32DOPE    C3 4026   5.928   2.778  13.411  0.8212 -0.2733 -0.6512
   32DOPE    HX 4027   6.012   2.783  13.340  0.7306  0.3639 -0.7223
   32DOPE    HY 4028   5.894   2.674  13.392 -1.3992  0.5084 -1.2788
   32DOPE   O31 4029   5.968   2.805  13.549  0.5813  0.5621 -0.3572
   32DOPE   C31 4030   5.860   2.785  13.633  0.3024 -0.4962  0.6282
   32DOPE   O32 4031   5.754   2.735  13.598 -0.2701  0.1704  0.9016
   32DOPE   C32 4032   5.895   2.840  13.774 -0.1179  0.7256  0.1298
   32DOPE   H2X 4033   5.990   2.791  13.806 -0.8663  0.0906  1.4350
   32DOPE   H2Y 4034   5.914   2.949  13.760  0.6532  0.7390  1.1503
   32DOPE   C23 4035   5.801   3.370  13.355 -0.2282 -0.2907  0.0001
   32DOPE   H3R 4036   5.692   3.348  13.354 -0.4524  0.4009  2.3298
   32DOPE   H3S 4037   5.829   3.422  13.261 -0.2580  0.6007  0.4708
   32DOPE   C24 4038   5.798   3.491  13.453 -0.3769  0.1407  0.5949
   32DOPE   H4R 4039   5.732   3.571  13.413  1.7182  0.8170 -1.7817
   32DOPE   H4S 4040   5.901   3.534  13.449 -0.0588 -0.6749 -2.3880
   32DOPE   C25 4041   5.747   3.472  13.598  0.4702 -0.3047 -0.6663
   32DOPE   H5R 4042   5.811   3.395  13.646  0.8665  0.9883  0.9758
   32DOPE   H5S 4043   5.645   3.427  13.597  1.2034 -2.1106 -2.7473
   32DOPE   C26 4044   5.755   3.606  13.682 -0.0820  0.1676 -0.5195
   32DOPE   H6R 4045   5.698   3.684  13.627 -0.2906 -0.1106 -0.7028
   32DOPE   H6S 4046   5.863   3.630  13.672  0.0223 -0.6703 -1.7373
   32DOPE   C27 4047   5.697   3.573  13.817  0.1991  0.3820 -0.4081
   32DOPE   H7R 4048   5.747   3.484  13.862  0.8569  0.0330 -1.7570
   32DOPE   H7S 4049   5.588   3.556  13.810  0.1542  0.8179 -0.8610
   32DOPE   C28 4050   5.701   3.685  13.922  0.2811  0.1067 -0.6808
   32DOPE   H8R 4051   5.626   3.660  14.000 -0.6822  0.3436 -1.5011
   32DOPE   H8S 4052   5.670   3.775  13.865  0.9153 -0.9167 -2.7460
   32DOPE   C29 4053   5.838   3.704  13.979  0.4579  0.1131 -0.5929
   32DOPE   H9R 4054   5.924   3.695  13.912 -0.1532 -2.0584 -1.1641
   32DOPE  C210 4055   5.864   3.698  14.111 -0.0430 -0.1002 -0.3716
   32DOPE  H10R 4056   5.969   3.694  14.145 -0.2840 -1.4283  0.2505
   32DOPE  C211 4057   5.763   3.687  14.225 -0.1098  0.2213 -0.0166
   32DOPE  H11R 4058   5.755   3.583  14.261 -0.1664 -0.0762 -0.8802
   32DOPE  H11S 4059   5.662   3.721  14.195 -0.1432  1.1627  1.0687
   32DOPE  C212 4060   5.799   3.765  14.353  0.7773  0.8382  0.3630
   32DOPE  H12R 4061   5.800   3.874  14.335 -0.4121  1.0090  1.1549
   32DOPE  H12S 4062   5.889   3.725  14.405  0.2776 -1.8414 -0.6525
   32DOPE  C213 4063   5.683   3.750  14.454 -0.2523 -0.0094 -0.1870
   32DOPE  H13R 4064   5.645   3.645  14.465 -0.6011 -0.4255 -3.9204
   32DOPE  H13S 4065   5.600   3.818  14.426  1.2711  1.7032 -0.7128
   32DOPE  C214 4066   5.720   3.786  14.601  0.0673 -0.0224  0.3245
   32DOPE  H14R 4067   5.773   3.883  14.587 -0.5166 -0.0583 -2.9020
   32DOPE  H14S 4068   5.793   3.711  14.637 -1.6338 -0.5917  2.8665
   32DOPE  C215 4069   5.596   3.796  14.681 -0.3126 -0.0283 -0.2431
   32DOPE  H15R 4070   5.531   3.706  14.681 -2.4021  1.4051  0.0599
   32DOPE  H15S 4071   5.534   3.881  14.645 -1.0105  0.1660  1.3347
   32DOPE  C216 4072   5.620   3.819  14.826 -0.1012 -0.2203 -0.3970
   32DOPE  H16R 4073   5.681   3.912  14.830 -3.7584  2.3406  0.8958
   32DOPE  H16S 4074   5.677   3.738  14.877 -2.2138 -0.4110  1.8329
   32DOPE  C217 4075   5.492   3.840  14.902 -0.2100 -0.0094 -0.0911
   32DOPE  H17R 4076   5.424   3.753  14.887 -0.5870  0.3144 -0.2745
   32DOPE  H17S 4077   5.426   3.915  14.854  1.1446  0.0391 -1.9987
   32DOPE  C218 4078   5.507   3.864  15.054  0.2885  0.2590 -0.5339
   32DOPE  H18R 4079   5.514   3.762  15.096  0.7293  1.5777  2.9520
   32DOPE  H18S 4080   5.417   3.911  15.100 -0.4826 -0.8824 -0.8574
   32DOPE  H18T 4081   5.595   3.925  15.083  0.6273 -1.0290  1.3742
   32DOPE   C33 4082   5.781   2.830  13.874  0.7639 -0.3173 -0.5480
   32DOPE   H3X 4083   5.758   2.722  13.875  1.3412 -0.4518 -1.2833
   32DOPE   H3Y 4084   5.684   2.872  13.840  0.0289 -0.1078  1.6575
   32DOPE   C34 4085   5.822   2.877  14.018  0.3255 -0.2212 -0.1961
   32DOPE   H4X 4086   5.754   2.856  14.103 -0.4026  0.1525 -0.6769
   32DOPE   H4Y 4087   5.910   2.821  14.056 -0.0585 -0.6366  0.0880
   32DOPE   C35 4088   5.843   3.030  14.016 -0.2309  0.7737 -0.3469
   32DOPE   H5X 4089   5.753   3.069  13.965 -0.4465  0.2218 -0.3911
   32DOPE   H5Y 4090   5.932   3.057  13.954  0.5088  2.3771  1.3299
   32DOPE   C36 4091   5.877   3.086  14.156  0.8345 -0.4096 -0.9798
   32DOPE   H6X 4092   5.787   3.080  14.221  3.6005 -3.0019  3.1226
   32DOPE   H6Y 4093   5.895   3.195  14.148 -1.5605  0.0983 -0.2128
   32DOPE   C37 4094   5.982   3.010  14.238 -0.2431 -0.3292  0.1381
   32DOPE   H7X 4095   5.933   2.914  14.266  0.6346  0.3289  4.7101
   32DOPE   H7Y 4096   6.062   2.983  14.167 -0.8652 -1.5358 -0.1267
   32DOPE   C38 4097   6.035   3.061  14.368  0.0120  0.1467  0.3615
   32DOPE   H8X 4098   5.949   3.075  14.437 -1.9306 -1.4849 -1.5641
   32DOPE   H8Y 4099   6.082   3.159  14.345  1.4889 -0.5276  0.4188
   32DOPE   C39 4100   6.141   2.965  14.411 -0.5328  0.1823 -0.6777
   32DOPE   H9X 4101   6.237   2.997  14.369 -0.4469  0.5305 -0.2270
   32DOPE  C310 4102   6.135   2.870  14.507  0.3560 -0.3242  0.2529
   32DOPE  H10X 4103   6.227   2.820  14.540  0.4012 -0.2113  0.2991
   32DOPE  C311 4104   6.027   2.847  14.613  0.1898 -0.1660 -0.0901
   32DOPE  H11X 4105   5.931   2.903  14.611  1.7388  2.6611  0.1558
   32DOPE  H11Y 4106   6.009   2.737  14.616  0.1131 -0.1522 -0.0497
   32DOPE  C312 4107   6.089   2.892  14.752  0.2384 -0.4482  0.6171
   32DOPE  H12X 4108   6.175   2.824  14.770  0.8024 -0.1286 -0.8211
   32DOPE  H12Y 4109   6.014   2.869  14.831  0.2844 -0.0131  0.7914
   32DOPE  C313 4110   6.116   3.041  14.758  0.7094 -0.2906 -0.2653
   32DOPE  H13X 4111   6.210   3.059  14.703  1.1653 -0.5603  0.4063
   32DOPE  H13Y 4112   6.037   3.091  14.697 -1.8062 -2.5747  0.8768
   32DOPE  C314 4113   6.116   3.087  14.908 -0.3025 -0.4361  0.2280
   32DOPE  H14X 4114   6.182   3.021  14.968 -1.7609 -0.6765  1.6439
   32DOPE  H14Y 4115   6.014   3.083  14.952 -0.3586  1.0678  0.2769
   32DOPE  C315 4116   6.174   3.228  14.917  0.0745 -0.2331  0.2697
   32DOPE  H15X 4117   6.112   3.307  14.871  1.1201  0.2481 -0.3682
   32DOPE  H15Y 4118   6.272   3.230  14.864  1.4731 -0.2236  2.7265
   32DOPE  C316 4119   6.220   3.269  15.057  0.8060 -0.2900  0.5340
   32DOPE  H16X 4120   6.254   3.375  15.049  2.2285 -0.7322  0.5494
   32DOPE  H16Y 4121   6.307   3.205  15.077  1.3798 -0.1034 -1.1967
   32DOPE  C317 4122   6.111   3.256  15.169  0.1355 -0.2050  0.1011
   32DOPE  H17X 4123   6.015   3.279  15.117  0.8338  1.5264 -0.5014
   32DOPE  H17Y 4124   6.087   3.149  15.188  2.1174 -0.3501  2.1754
   32DOPE  C318 4125   6.128   3.330  15.302  0.0233  0.0536 -0.3939
   32DOPE  H18X 4126   6.225   3.298  15.347  0.5082  1.0031 -0.7338
   32DOPE  H18Y 4127   6.135   3.439  15.281 -0.9968 -0.2033 -2.2173
   32DOPE  H18Z 4128   6.041   3.311  15.369 -0.6266 -0.4437 -1.3706
   33DOPE     N 4129   4.515   1.397  12.597  0.0950 -0.2092  0.2111
   33DOPE   HN1 4130   4.540   1.494  12.624  1.2010 -0.0819 -1.1790
   33DOPE   HN2 4131   4.608   1.351  12.583 -0.7582 -2.4286  1.3833
   33DOPE   HN3 4132   4.471   1.401  12.503 -0.4938 -1.6953  0.3989
   33DOPE   C12 4133   4.429   1.327  12.699 -0.4113 -0.7500  0.4525
   33DOPE  H12A 4134   4.428   1.219  12.672 -0.1319 -0.1288 -2.3202
   33DOPE  H12B 4135   4.327   1.367  12.684  0.1217  0.5753  0.2517
   33DOPE   C11 4136   4.481   1.342  12.842  0.1109 -0.4775 -0.5757
   33DOPE  H11A 4137   4.432   1.260  12.898  0.3915 -1.4704 -1.7325
   33DOPE  H11B 4138   4.438   1.431  12.892 -1.0888 -1.2708 -0.1680
   33DOPE     P 4139   4.696   1.222  12.898  0.2483  0.3578 -0.1414
   33DOPE   O13 4140   4.828   1.222  12.838  0.4423  0.1073  0.3602
   33DOPE   O14 4141   4.613   1.101  12.866  0.0239 -0.0458  0.6113
   33DOPE   O11 4142   4.706   1.224  13.052  0.3413  0.3819 -0.3975
   33DOPE   O12 4143   4.617   1.345  12.861 -0.1183 -0.1170  0.5273
   33DOPE    C1 4144   4.787   1.317  13.121  0.2865 -0.0307 -0.2264
   33DOPE    HA 4145   4.878   1.347  13.065  1.4410  0.1197  1.6598
   33DOPE    HB 4146   4.831   1.271  13.212 -0.6908  1.4196  1.0252
   33DOPE    C2 4147   4.714   1.444  13.154  0.4263 -0.3632  0.4543
   33DOPE    HS 4148   4.677   1.479  13.055  2.5896  0.4649 -0.1043
   33DOPE   O21 4149   4.815   1.527  13.203 -0.7109 -0.1965 -0.3370
   33DOPE   C21 4150   4.796   1.656  13.173  0.4471  0.5335  0.4416
   33DOPE   O22 4151   4.709   1.701  13.098  0.0285 -0.8122  0.0110
   33DOPE   C22 4152   4.906   1.737  13.249  0.8172  0.3640 -0.4358
   33DOPE   H2R 4153   4.947   1.809  13.175 -0.3053  1.2596 -0.2232
   33DOPE   H2S 4154   4.989   1.673  13.285 -1.8983 -1.9284  2.3433
   33DOPE    C3 4155   4.602   1.415  13.255 -0.3049  0.3576  0.1408
   33DOPE    HX 4156   4.649   1.360  13.340  0.6948 -0.8635 -1.1504
   33DOPE    HY 4157   4.534   1.342  13.207 -0.9187  1.4289 -0.6413
   33DOPE   O31 4158   4.533   1.537  13.292 -0.7644  0.3849  0.3321
   33DOPE   C31 4159   4.405   1.551  13.242 -0.3639 -0.1219 -0.1081
   33DOPE   O32 4160   4.356   1.468  13.167 -0.1446 -0.0689 -0.9095
   33DOPE   C32 4161   4.349   1.697  13.268 -0.5747  0.4967  0.5609
   33DOPE   H2X 4162   4.419   1.757  13.330 -2.0936  0.0202  2.8468
   33DOPE   H2Y 4163   4.344   1.735  13.164 -0.5988 -0.6058  0.1393
   33DOPE   C23 4164   4.844   1.825  13.361 -0.7706  0.1375 -0.0022
   33DOPE   H3R 4165   4.765   1.891  13.320  0.0663  1.0432 -0.1962
   33DOPE   H3S 4166   4.932   1.884  13.393 -0.4620  0.3194 -1.1402
   33DOPE   C24 4167   4.786   1.752  13.483  0.2710  0.6493  0.0794
   33DOPE   H4R 4168   4.871   1.705  13.536  0.7703  0.3778 -0.9403
   33DOPE   H4S 4169   4.708   1.677  13.457  2.0340 -1.7658  1.3069
   33DOPE   C25 4170   4.722   1.859  13.578  0.1750 -0.2622 -0.9247
   33DOPE   H5R 4171   4.691   1.802  13.668  1.8328  0.9075  0.4304
   33DOPE   H5S 4172   4.626   1.896  13.535 -0.3386 -0.8504 -0.3050
   33DOPE   C26 4173   4.807   1.978  13.625  0.2349 -0.1611 -0.3490
   33DOPE   H6R 4174   4.842   2.030  13.533 -0.9290 -1.4430 -1.5597
   33DOPE   H6S 4175   4.897   1.941  13.679  2.9440  1.7509 -3.1614
   33DOPE   C27 4176   4.750   2.081  13.728  0.3271 -0.5768  0.3898
   33DOPE   H7R 4177   4.668   2.129  13.671  0.7449 -1.3633 -0.9262
   33DOPE   H7S 4178   4.831   2.151  13.759  1.4857 -1.2818 -0.9590
   33DOPE   C28 4179   4.679   2.007  13.846  0.7487 -0.4237 -0.3753
   33DOPE   H8R 4180   4.602   1.941  13.802 -0.3364  0.6376 -0.1446
   33DOPE   H8S 4181   4.623   2.084  13.903  0.1996 -1.2318  0.1956
   33DOPE   C29 4182   4.763   1.925  13.946 -0.0939 -0.2288 -0.7750
   33DOPE   H9R 4183   4.763   1.816  13.929 -0.8357 -0.0172 -2.3248
   33DOPE  C210 4184   4.824   1.969  14.055 -0.1317  0.0966 -0.2858
   33DOPE  H10R 4185   4.865   1.895  14.125  0.4579 -0.6256 -1.3756
   33DOPE  C211 4186   4.808   2.113  14.112 -0.6375 -0.4270 -0.5999
   33DOPE  H11R 4187   4.788   2.118  14.221  1.3189 -1.6400 -0.1226
   33DOPE  H11S 4188   4.730   2.170  14.059 -1.9098  0.9850  2.5464
   33DOPE  C212 4189   4.938   2.194  14.090  0.0846  0.8024  0.8752
   33DOPE  H12R 4190   4.962   2.170  13.984 -1.4783 -0.5203  0.7902
   33DOPE  H12S 4191   5.025   2.148  14.142  0.8469  1.0327 -0.1745
   33DOPE  C213 4192   4.924   2.346  14.110  0.0881  0.1734 -0.6408
   33DOPE  H13R 4193   4.876   2.355  14.209  1.9076 -0.1918  0.3191
   33DOPE  H13S 4194   4.856   2.381  14.029  0.4655  0.4326 -0.8489
   33DOPE  C214 4195   5.063   2.422  14.116  0.6411 -0.0015 -0.1773
   33DOPE  H14R 4196   5.112   2.389  14.022  2.0820 -0.4589  0.7140
   33DOPE  H14S 4197   5.132   2.391  14.196  0.7325  1.4834  0.3417
   33DOPE  C215 4198   5.059   2.574  14.112 -0.4001 -0.2528  0.0383
   33DOPE  H15R 4199   5.125   2.611  14.193  3.6501 -0.5144 -2.8420
   33DOPE  H15S 4200   4.955   2.613  14.105 -0.2085  0.0775 -1.2840
   33DOPE  C216 4201   5.133   2.636  13.994 -0.2694  0.1179 -0.5217
   33DOPE  H16R 4202   5.228   2.579  13.983  0.8899  1.6258  0.9995
   33DOPE  H16S 4203   5.155   2.744  14.010  1.1254 -0.4010  1.4773
   33DOPE  C217 4204   5.051   2.632  13.861  0.3791  0.5041  0.1058
   33DOPE  H17R 4205   4.948   2.672  13.870  0.0625 -0.1408 -0.5053
   33DOPE  H17S 4206   5.035   2.525  13.835  0.1355  0.1982  1.4517
   33DOPE  C218 4207   5.120   2.705  13.745  0.2867 -0.3843 -0.4222
   33DOPE  H18R 4208   5.129   2.814  13.764  1.4297 -0.7072  1.1371
   33DOPE  H18S 4209   5.053   2.692  13.657  1.2038 -1.5275 -0.9753
   33DOPE  H18T 4210   5.222   2.664  13.734  0.9663  0.8847  0.8518
   33DOPE   C33 4211   4.204   1.683  13.335  0.0345 -0.3079  0.4184
   33DOPE   H3X 4212   4.137   1.616  13.276  2.5077 -1.6611 -1.0238
   33DOPE   H3Y 4213   4.166   1.787  13.342  0.4121 -0.2070  0.9980
   33DOPE   C34 4214   4.206   1.626  13.479  0.1567  0.6689  0.4576
   33DOPE   H4X 4215   4.113   1.657  13.531 -0.0285 -1.7253  1.6696
   33DOPE   H4Y 4216   4.204   1.515  13.471  1.0687  0.7631 -1.8938
   33DOPE   C35 4217   4.332   1.662  13.562  1.2130  0.3998 -0.1195
   33DOPE   H5X 4218   4.338   1.773  13.566  3.5265  0.2781  2.2955
   33DOPE   H5Y 4219   4.432   1.630  13.527  1.4366 -0.2831  1.0816
   33DOPE   C36 4220   4.319   1.616  13.708  0.4257  0.7081  0.4486
   33DOPE   H6X 4221   4.295   1.507  13.702 -0.0327  0.8007  0.5586
   33DOPE   H6Y 4222   4.237   1.665  13.764  0.7431  0.6584  0.9652
   33DOPE   C37 4223   4.449   1.649  13.786 -0.2994 -0.3958  1.0377
   33DOPE   H7X 4224   4.534   1.612  13.724 -0.2577  1.3233 -0.0042
   33DOPE   H7Y 4225   4.464   1.759  13.782  0.2738 -0.4853  0.5689
   33DOPE   C38 4226   4.449   1.598  13.928  0.2927 -0.1458 -0.0582
   33DOPE   H8X 4227   4.550   1.600  13.974 -0.0023 -1.9468  0.7860
   33DOPE   H8Y 4228   4.431   1.488  13.924 -2.6085  0.2284  0.5054
   33DOPE   C39 4229   4.340   1.661  14.020  0.6894 -0.3993  0.6585
   33DOPE   H9X 4230   4.237   1.628  14.000 -0.1798  1.4279  1.8666
   33DOPE  C310 4231   4.351   1.745  14.123  0.5619  0.2504 -0.8673
   33DOPE  H10X 4232   4.259   1.765  14.179  2.2575  0.1332  2.1543
   33DOPE  C311 4233   4.479   1.798  14.174 -0.0441 -0.6054 -1.2932
   33DOPE  H11X 4234   4.556   1.776  14.097  0.3055  1.1449 -1.4835
   33DOPE  H11Y 4235   4.468   1.908  14.171 -0.7334 -0.6921 -2.1046
   33DOPE  C312 4236   4.529   1.753  14.321 -0.5572  0.9243  0.5631
   33DOPE  H12X 4237   4.638   1.772  14.330 -0.5706  2.0233 -1.1507
   33DOPE  H12Y 4238   4.518   1.643  14.329 -0.1072  0.7980 -0.4208
   33DOPE  C313 4239   4.448   1.822  14.429 -0.0846 -0.4538 -0.5679
   33DOPE  H13X 4240   4.454   1.933  14.422 -0.3753 -0.3182  0.9766
   33DOPE  H13Y 4241   4.342   1.788  14.429  0.1247 -1.1758  0.6282
   33DOPE  C314 4242   4.505   1.774  14.562  0.2891  0.4208 -0.1919
   33DOPE  H14X 4243   4.609   1.809  14.572  0.1806  0.9541 -0.8050
   33DOPE  H14Y 4244   4.495   1.664  14.558  0.3365  0.3930  0.4827
   33DOPE  C315 4245   4.433   1.833  14.687  0.0364  0.4962 -0.2117
   33DOPE  H15X 4246   4.344   1.768  14.707  0.6395  0.1172  1.3619
   33DOPE  H15Y 4247   4.397   1.937  14.671  2.9222  1.9109  1.6719
   33DOPE  C316 4248   4.527   1.838  14.817 -0.1133 -0.4643 -0.3207
   33DOPE  H16X 4249   4.620   1.895  14.797 -0.7474  0.2732 -1.2390
   33DOPE  H16Y 4250   4.562   1.735  14.840  1.2044  0.0787  0.1900
   33DOPE  C317 4251   4.438   1.885  14.934 -0.4375 -0.6985 -0.3464
   33DOPE  H17X 4252   4.412   1.992  14.923 -0.3717 -0.7793 -1.3091
   33DOPE  H17Y 4253   4.343   1.827  14.938 -1.0326  0.2443  3.8306
   33DOPE  C318 4254   4.498   1.880  15.075 -0.0271  0.2861  0.6719
   33DOPE  H18X 4255   4.606   1.907  15.075 -0.1279  0.7301  1.9388
   33DOPE  H18Y 4256   4.449   1.949  15.147 -1.4730 -2.0077  1.9701
   33DOPE  H18Z 4257   4.479   1.781  15.121 -0.6593  0.1045  0.0452
   34DOPE     N 4258   3.459   3.122  13.124  0.3631 -0.5096 -0.2942
   34DOPE   HN1 4259   3.476   3.197  13.193 -0.7606 -0.7142  0.2312
   34DOPE   HN2 4260   3.482   3.033  13.172  0.2136  0.1498  1.0287
   34DOPE   HN3 4261   3.515   3.143  13.039  0.1222  1.1816 -0.0582
   34DOPE   C12 4262   3.312   3.100  13.093  0.3349 -0.1387 -0.1608
   34DOPE  H12A 4263   3.266   3.074  13.191  2.0050 -1.2736  0.3863
   34DOPE  H12B 4264   3.319   3.007  13.033  0.9937 -0.3945  0.2977
   34DOPE   C11 4265   3.245   3.215  13.024 -0.3785  0.5625 -0.6644
   34DOPE  H11A 4266   3.143   3.178  13.000  0.9108 -3.8854 -0.2361
   34DOPE  H11B 4267   3.295   3.227  12.925 -1.0736  0.1993 -1.0655
   34DOPE     P 4268   3.181   3.458  13.033 -0.0417 -0.5118  0.3395
   34DOPE   O13 4269   3.035   3.427  13.027  0.0432 -0.1856  0.3345
   34DOPE   O14 4270   3.254   3.484  12.907  0.2902 -0.1361  0.1065
   34DOPE   O11 4271   3.215   3.577  13.134  0.0231  0.0907  0.4701
   34DOPE   O12 4272   3.251   3.337  13.100 -0.3936  0.4970  0.4054
   34DOPE    C1 4273   3.335   3.574  13.205 -0.1924 -0.2166 -0.0487
   34DOPE    HA 4274   3.365   3.678  13.229 -0.7915 -0.4146  1.6895
   34DOPE    HB 4275   3.422   3.531  13.150  1.5605  2.6086  0.3072
   34DOPE    C2 4276   3.313   3.516  13.350  0.3146  0.5593  0.0850
   34DOPE    HS 4277   3.296   3.408  13.333  1.7621  0.2230  0.6843
   34DOPE   O21 4278   3.197   3.570  13.419 -0.7791  0.3148  1.0230
   34DOPE   C21 4279   3.109   3.484  13.462  0.7944 -0.0138  0.2012
   34DOPE   O22 4280   3.116   3.366  13.444 -0.2646  0.3626  0.2391
   34DOPE   C22 4281   3.000   3.556  13.536  0.1882 -0.0576  0.0263
   34DOPE   H2R 4282   2.939   3.608  13.459 -0.3089 -0.2706  0.2723
   34DOPE   H2S 4283   3.041   3.633  13.605 -0.2100  0.3576 -0.1902
   34DOPE    C3 4284   3.444   3.526  13.436  0.4024 -0.4969  0.0232
   34DOPE    HX 4285   3.441   3.628  13.480 -1.3033 -0.0934 -0.9431
   34DOPE    HY 4286   3.529   3.531  13.365 -0.7366  1.3722 -1.3073
   34DOPE   O31 4287   3.468   3.430  13.540 -0.0643  0.0227 -0.4146
   34DOPE   C31 4288   3.488   3.315  13.495 -0.3094 -0.3068  0.2949
   34DOPE   O32 4289   3.497   3.282  13.377 -0.0005  0.3823  0.4753
   34DOPE   C32 4290   3.502   3.222  13.620 -0.4805 -0.4631 -0.4801
   34DOPE   H2X 4291   3.610   3.195  13.623 -0.5850 -0.8192  0.4501
   34DOPE   H2Y 4292   3.488   3.281  13.713  0.1328  0.6171 -1.0558
   34DOPE   C23 4293   2.922   3.450  13.627  0.2387  0.1044  0.3884
   34DOPE   H3R 4294   3.003   3.396  13.681  1.2974  1.2526  0.0003
   34DOPE   H3S 4295   2.871   3.388  13.550  2.3587  0.5947 -1.5025
   34DOPE   C24 4296   2.822   3.539  13.712 -1.1530 -0.6180  0.2274
   34DOPE   H4R 4297   2.752   3.594  13.646 -0.3444  1.3056  0.9129
   34DOPE   H4S 4298   2.878   3.620  13.763 -0.4665 -0.0254 -1.3943
   34DOPE   C25 4299   2.765   3.452  13.815 -0.6491 -1.1425 -0.7272
   34DOPE   H5R 4300   2.846   3.404  13.874  0.6184  0.0151 -1.4707
   34DOPE   H5S 4301   2.725   3.360  13.767  0.1598 -1.5831 -0.5590
   34DOPE   C26 4302   2.654   3.523  13.901  0.1571 -0.7504  0.2974
   34DOPE   H6R 4303   2.577   3.577  13.843  1.7695 -1.1499 -2.4319
   34DOPE   H6S 4304   2.706   3.600  13.962 -0.3064 -0.3904  0.2335
   34DOPE   C27 4305   2.575   3.423  13.985 -0.3396 -0.3521  0.1972
   34DOPE   H7R 4306   2.508   3.381  13.907 -0.9349 -0.9719  1.0262
   34DOPE   H7S 4307   2.517   3.471  14.066 -2.1580 -2.8104  0.4894
   34DOPE   C28 4308   2.654   3.307  14.044 -0.0852 -0.6545  0.2625
   34DOPE   H8R 4309   2.736   3.346  14.107  0.8906 -1.9223 -0.1866
   34DOPE   H8S 4310   2.691   3.237  13.967 -2.1009 -0.7680 -0.6809
   34DOPE   C29 4311   2.576   3.220  14.139 -0.0525  0.0562  0.3641
   34DOPE   H9R 4312   2.540   3.133  14.083  1.6792  0.9829 -2.4193
   34DOPE  C210 4313   2.569   3.229  14.270 -0.0056 -0.3934  0.9018
   34DOPE  H10R 4314   2.499   3.159  14.320 -0.1902 -2.3873 -1.8729
   34DOPE  C211 4315   2.608   3.348  14.352 -0.3317  0.6650  0.6807
   34DOPE  H11R 4316   2.671   3.418  14.294 -1.3510  0.6030 -0.5364
   34DOPE  H11S 4317   2.656   3.320  14.449 -0.6298  1.8994  1.2064
   34DOPE  C212 4318   2.492   3.438  14.382 -0.0326  0.0213  0.4481
   34DOPE  H12R 4319   2.406   3.378  14.418 -0.6516  0.4538 -0.2818
   34DOPE  H12S 4320   2.450   3.478  14.287 -0.3121 -2.4566 -0.5252
   34DOPE  C213 4321   2.521   3.547  14.490  0.1544 -0.4586 -0.5774
   34DOPE  H13R 4322   2.586   3.626  14.446  1.9802 -0.8268  1.3148
   34DOPE  H13S 4323   2.563   3.494  14.578 -4.5359 -2.3019  0.8384
   34DOPE  C214 4324   2.390   3.616  14.544 -0.1877 -0.5451  0.1780
   34DOPE  H14R 4325   2.321   3.530  14.548 -0.3676 -0.6406 -2.7984
   34DOPE  H14S 4326   2.348   3.692  14.475  0.4071 -0.1653  0.2266
   34DOPE  C215 4327   2.408   3.686  14.684  0.9114  0.9178  0.0020
   34DOPE  H15R 4328   2.465   3.618  14.752  1.3772 -0.6251 -1.8498
   34DOPE  H15S 4329   2.305   3.696  14.723 -0.0253 -2.3119 -1.2939
   34DOPE  C216 4330   2.475   3.823  14.665 -0.4540  0.2813  0.9259
   34DOPE  H16R 4331   2.435   3.867  14.571 -1.1858 -0.9797  0.6264
   34DOPE  H16S 4332   2.582   3.801  14.642 -0.4917  0.9285  0.0747
   34DOPE  C217 4333   2.455   3.924  14.789  0.6185 -0.0324 -0.6419
   34DOPE  H17R 4334   2.518   4.015  14.791 -1.9134  1.8505 -1.0194
   34DOPE  H17S 4335   2.483   3.863  14.878  0.9420 -0.7673 -1.2310
   34DOPE  C218 4336   2.315   3.981  14.795 -0.4495 -0.0816  0.0810
   34DOPE  H18R 4337   2.317   4.050  14.882  3.0844  0.9475 -0.6476
   34DOPE  H18S 4338   2.252   3.891  14.810 -1.4911  0.2250 -2.0909
   34DOPE  H18T 4339   2.298   4.044  14.705 -0.0708  0.2307  0.2246
   34DOPE   C33 4340   3.386   3.119  13.617  0.0518  0.4146 -0.5556
   34DOPE   H3X 4341   3.382   3.061  13.522  5.4090 -2.2804  0.5076
   34DOPE   H3Y 4342   3.291   3.176  13.625  1.7074  3.0368  2.1789
   34DOPE   C34 4343   3.405   3.012  13.729  0.3427 -0.2365 -0.5204
   34DOPE   H4X 4344   3.490   2.945  13.703 -0.4852 -0.9314 -1.5311
   34DOPE   H4Y 4345   3.426   3.067  13.823 -1.5732  0.5006 -0.4735
   34DOPE   C35 4346   3.281   2.932  13.739  0.6889 -0.2829 -0.1824
   34DOPE   H5X 4347   3.265   2.876  13.643 -0.6534 -1.2543  0.5652
   34DOPE   H5Y 4348   3.197   3.004  13.744  0.7671 -0.1897 -0.2093
   34DOPE   C36 4349   3.272   2.830  13.852  0.2099  0.4736  0.1837
   34DOPE   H6X 4350   3.326   2.740  13.816  0.1758  0.4775  0.1218
   34DOPE   H6Y 4351   3.165   2.800  13.860 -0.1145  1.1330 -1.3049
   34DOPE   C37 4352   3.336   2.855  13.988 -0.2065 -0.2207  0.1788
   34DOPE   H7X 4353   3.442   2.869  13.958 -0.1489  0.0049  0.4880
   34DOPE   H7Y 4354   3.295   2.953  14.019 -0.8071 -0.5220  0.3476
   34DOPE   C38 4355   3.309   2.741  14.081  0.3947  0.3728 -0.5178
   34DOPE   H8X 4356   3.318   2.641  14.033 -0.8914 -0.6329  1.1785
   34DOPE   H8Y 4357   3.200   2.740  14.105  0.7105  0.2138  1.0113
   34DOPE   C39 4358   3.394   2.742  14.203 -0.2059 -0.2424  0.0721
   34DOPE   H9X 4359   3.499   2.734  14.174 -0.6627 -2.4047 -1.2340
   34DOPE  C310 4360   3.364   2.770  14.331  0.3417 -0.0266 -0.3252
   34DOPE  H10X 4361   3.449   2.785  14.400 -0.9612 -0.3054  1.4246
   34DOPE  C311 4362   3.225   2.806  14.385  0.6089  0.2099  0.5866
   34DOPE  H11X 4363   3.139   2.774  14.322  0.1955  0.4021  1.0443
   34DOPE  H11Y 4364   3.193   2.755  14.478 -1.6190  0.7171  0.1662
   34DOPE  C312 4365   3.209   2.955  14.405  0.5008 -0.4087  0.4910
   34DOPE  H12X 4366   3.220   3.009  14.308 -2.9990  1.1781  0.8321
   34DOPE  H12Y 4367   3.292   2.995  14.467 -1.2298  1.4827  1.7109
   34DOPE  C313 4368   3.074   3.004  14.453 -0.7508  0.2784  0.2137
   34DOPE  H13X 4369   2.997   3.009  14.374 -1.4480 -1.0234  0.7800
   34DOPE  H13Y 4370   3.037   2.930  14.527  2.3577 -3.2738 -1.4162
   34DOPE  C314 4371   3.099   3.147  14.508 -0.1581 -0.1176  0.3831
   34DOPE  H14X 4372   3.172   3.201  14.443 -0.3695  3.1635  2.6592
   34DOPE  H14Y 4373   3.134   3.135  14.612 -3.9887  1.5575  2.0414
   34DOPE  C315 4374   2.965   3.229  14.521 -0.5812  0.3505  0.8868
   34DOPE  H15X 4375   2.901   3.174  14.594 -1.6015 -0.3654 -0.5005
   34DOPE  H15Y 4376   2.918   3.246  14.422 -0.0003  2.2794  0.9209
   34DOPE  C316 4377   2.997   3.364  14.578 -0.6133 -0.1919  0.2316
   34DOPE  H16X 4378   3.057   3.413  14.498 -1.1686  1.3792  0.7288
   34DOPE  H16Y 4379   3.065   3.358  14.666  0.6165  0.0980 -0.6649
   34DOPE  C317 4380   2.874   3.454  14.602 -0.3976 -0.4634  0.2017
   34DOPE  H17X 4381   2.837   3.478  14.499 -0.2687  0.3955  0.3414
   34DOPE  H17Y 4382   2.783   3.409  14.647 -1.1833  0.5269 -0.3441
   34DOPE  C318 4383   2.924   3.585  14.665  0.3093  0.5405  0.1885
   34DOPE  H18X 4384   2.957   3.662  14.591  2.9011 -0.0770  0.5890
   34DOPE  H18Y 4385   2.840   3.631  14.721  0.4490 -0.7611  1.5086
   34DOPE  H18Z 4386   3.012   3.561  14.729 -0.1310 -0.5545  0.3995
   35DOPE     N 4387   6.470   1.692  12.846  0.0894 -0.4306 -0.1572
   35DOPE   HN1 4388   6.403   1.730  12.777  1.1483  0.6238 -0.6327
   35DOPE   HN2 4389   6.528   1.615  12.806  1.2144 -1.7167  3.5505
   35DOPE   HN3 4390   6.419   1.649  12.926  1.4735 -0.8992  0.5192
   35DOPE   C12 4391   6.542   1.801  12.916  0.4372 -0.3795  0.7030
   35DOPE  H12A 4392   6.604   1.755  12.996  1.2728 -0.9340 -0.2277
   35DOPE  H12B 4393   6.476   1.877  12.963 -1.9007 -1.8868  0.0435
   35DOPE   C11 4394   6.631   1.883  12.822 -0.8726  0.3381  0.4252
   35DOPE  H11A 4395   6.724   1.829  12.793 -1.9181 -0.2401 -2.1160
   35DOPE  H11B 4396   6.666   1.971  12.880  2.3981 -1.2930  1.1728
   35DOPE     P 4397   6.545   2.064  12.644  0.2368 -0.0152  0.4491
   35DOPE   O13 4398   6.426   2.055  12.554 -0.9752 -0.0745  0.4426
   35DOPE   O14 4399   6.675   2.111  12.585 -0.0152 -0.5459 -0.6735
   35DOPE   O11 4400   6.527   2.173  12.761 -0.3058  0.2943 -0.1639
   35DOPE   O12 4401   6.561   1.922  12.709  0.2871 -0.3293  0.1816
   35DOPE    C1 4402   6.401   2.180  12.828 -0.6900  0.1690  0.6054
   35DOPE    HA 4403   6.338   2.090  12.841 -0.8474  0.3260  0.9632
   35DOPE    HB 4404   6.329   2.250  12.781 -0.8942 -1.1395 -1.1107
   35DOPE    C2 4405   6.423   2.244  12.972 -0.5308  0.6128  0.1415
   35DOPE    HS 4406   6.455   2.348  12.948  0.5991  0.3793  0.5505
   35DOPE   O21 4407   6.527   2.171  13.039  0.0221 -0.1677 -0.4913
   35DOPE   C21 4408   6.644   2.235  13.056 -0.2108  0.2418 -0.4872
   35DOPE   O22 4409   6.663   2.354  13.031 -0.1361  0.0510  0.2259
   35DOPE   C22 4410   6.746   2.135  13.119 -0.0903 -0.2756 -0.0276
   35DOPE   H2R 4411   6.837   2.190  13.151 -0.2189  1.6445 -2.6353
   35DOPE   H2S 4412   6.771   2.059  13.042  0.5182  0.5695 -0.6894
   35DOPE    C3 4413   6.295   2.263  13.058 -0.7199  0.0294  0.5048
   35DOPE    HX 4414   6.256   2.169  13.102 -2.4251 -0.1212 -1.1597
   35DOPE    HY 4415   6.223   2.298  12.980  0.3034  1.1161  0.0211
   35DOPE   O31 4416   6.313   2.362  13.161  0.0495  0.7639 -0.1950
   35DOPE   C31 4417   6.198   2.391  13.224  0.1538 -0.2968 -0.4405
   35DOPE   O32 4418   6.093   2.326  13.213  0.3389  0.0791 -0.0876
   35DOPE   C32 4419   6.197   2.527  13.292 -0.4270  0.1831  0.5588
   35DOPE   H2X 4420   6.292   2.577  13.264 -0.8736  0.7802  0.0707
   35DOPE   H2Y 4421   6.115   2.588  13.249 -0.2379  0.6902  0.9132
   35DOPE   C23 4422   6.694   2.049  13.234 -0.3970 -0.0793 -0.4433
   35DOPE   H3R 4423   6.776   1.980  13.265 -0.0154 -0.1153 -1.4856
   35DOPE   H3S 4424   6.607   1.987  13.206 -0.9484  0.5538 -0.1608
   35DOPE   C24 4425   6.664   2.129  13.357 -0.0412  0.1796 -0.1375
   35DOPE   H4R 4426   6.628   2.072  13.446 -1.1133 -0.6631 -1.0838
   35DOPE   H4S 4427   6.576   2.197  13.345  0.1770  0.4877  0.0052
   35DOPE   C25 4428   6.785   2.206  13.406  0.4389  0.3047  0.0698
   35DOPE   H5R 4429   6.784   2.295  13.339  2.3868 -1.6123 -2.7500
   35DOPE   H5S 4430   6.881   2.151  13.395  1.7426  2.5169 -0.0612
   35DOPE   C26 4431   6.785   2.243  13.557 -0.4036 -0.1592  0.1307
   35DOPE   H6R 4432   6.847   2.169  13.613  0.2513 -0.5057 -1.0386
   35DOPE   H6S 4433   6.687   2.266  13.603  1.3461  0.2650  4.0652
   35DOPE   C27 4434   6.862   2.371  13.593 -0.0436  0.4519  0.0445
   35DOPE   H7R 4435   6.814   2.450  13.532 -2.6439  1.0863  2.7134
   35DOPE   H7S 4436   6.971   2.376  13.570 -0.2581  0.6162 -0.9791
   35DOPE   C28 4437   6.831   2.420  13.735  0.9248  0.4604 -0.3809
   35DOPE   H8R 4438   6.720   2.420  13.739  0.9043  0.2175 -0.8519
   35DOPE   H8S 4439   6.857   2.527  13.742  0.0716  0.6366  0.2845
   35DOPE   C29 4440   6.896   2.347  13.851 -0.3433  0.4902 -0.1586
   35DOPE   H9R 4441   6.983   2.289  13.817 -0.5073  1.6037 -2.6981
   35DOPE  C210 4442   6.866   2.349  13.982  0.2272  0.4326  0.4666
   35DOPE  H10R 4443   6.925   2.287  14.051  1.6406  0.4212 -0.7050
   35DOPE  C211 4444   6.753   2.433  14.031 -0.1567 -0.9954 -0.2848
   35DOPE  H11R 4445   6.657   2.385  14.060 -0.2906 -0.5228  0.0662
   35DOPE  H11S 4446   6.725   2.506  13.952 -0.3270 -0.9151 -0.1502
   35DOPE  C212 4447   6.800   2.504  14.152 -0.4373 -0.0309 -0.4581
   35DOPE  H12R 4448   6.887   2.573  14.142  0.4923 -1.1789 -0.5874
   35DOPE  H12S 4449   6.822   2.431  14.233  2.4254 -0.6690 -1.6899
   35DOPE  C213 4450   6.688   2.596  14.205 -0.2777  0.4477  0.4084
   35DOPE  H13R 4451   6.595   2.537  14.223  0.6601 -1.2957 -0.1466
   35DOPE  H13S 4452   6.667   2.662  14.119 -0.1526 -1.0791 -0.8365
   35DOPE  C214 4453   6.721   2.690  14.319 -0.1720 -0.1454  0.2186
   35DOPE  H14R 4454   6.655   2.779  14.324 -0.8899 -0.7210  1.2786
   35DOPE  H14S 4455   6.817   2.743  14.301 -1.2378  2.1438  0.9669
   35DOPE  C215 4456   6.720   2.636  14.457  0.0432  0.2173 -0.1512
   35DOPE  H15R 4457   6.794   2.696  14.513  1.1974  0.1812 -1.5741
   35DOPE  H15S 4458   6.759   2.532  14.453 -0.7849 -0.0703 -1.8309
   35DOPE  C216 4459   6.578   2.637  14.499  0.5202  0.1382 -0.2692
   35DOPE  H16R 4460   6.507   2.591  14.428 -0.4151 -1.0172  1.3499
   35DOPE  H16S 4461   6.537   2.739  14.513 -0.0661 -0.4145  2.9764
   35DOPE  C217 4462   6.563   2.561  14.627  0.4083 -0.2850  0.5759
   35DOPE  H17R 4463   6.634   2.602  14.702  0.3402 -0.0554  0.5170
   35DOPE  H17S 4464   6.605   2.463  14.598  3.4858  1.4962 -1.4928
   35DOPE  C218 4465   6.415   2.563  14.680  0.4723  0.6015 -0.0202
   35DOPE  H18R 4466   6.345   2.538  14.597  1.7782  1.3687 -1.3917
   35DOPE  H18S 4467   6.379   2.660  14.721  1.7339  0.6081  1.1221
   35DOPE  H18T 4468   6.403   2.489  14.762 -1.8972  0.1563 -0.6997
   35DOPE   C33 4469   6.174   2.504  13.443  0.0657 -0.4539 -0.1595
   35DOPE   H3X 4470   6.065   2.486  13.446  0.1302 -1.0032 -0.7405
   35DOPE   H3Y 4471   6.187   2.608  13.479  0.6264  0.3450 -2.4596
   35DOPE   C34 4472   6.250   2.391  13.513  0.8228 -0.3025 -0.1561
   35DOPE   H4X 4473   6.219   2.293  13.473 -0.3133 -1.1125  2.4839
   35DOPE   H4Y 4474   6.359   2.408  13.498  0.6395  0.6911 -0.4581
   35DOPE   C35 4475   6.214   2.397  13.665  0.1595  0.3171  0.4236
   35DOPE   H5X 4476   6.107   2.371  13.679  0.6437 -1.0994  1.7727
   35DOPE   H5Y 4477   6.230   2.504  13.692 -0.7615  1.5072 -3.1957
   35DOPE   C36 4478   6.306   2.296  13.750 -0.9377  0.7087  0.5606
   35DOPE   H6X 4479   6.413   2.321  13.740 -0.4174 -1.4266  0.2702
   35DOPE   H6Y 4480   6.289   2.194  13.710 -0.4607  0.6026  0.6314
   35DOPE   C37 4481   6.271   2.293  13.901 -0.2674  0.2912  0.3935
   35DOPE   H7X 4482   6.308   2.376  13.964 -1.0215  0.0834  1.1175
   35DOPE   H7Y 4483   6.162   2.287  13.920 -0.0166  0.0542  1.8918
   35DOPE   C38 4484   6.313   2.162  13.964 -0.6632  0.8065 -0.4398
   35DOPE   H8X 4485   6.296   2.076  13.896 -1.1623  1.7948 -1.5965
   35DOPE   H8Y 4486   6.255   2.141  14.056  0.4759 -0.1863  0.0820
   35DOPE   C39 4487   6.464   2.158  13.988  0.1339  0.6234 -0.4139
   35DOPE   H9X 4488   6.518   2.182  13.894  0.1813  1.8769 -0.0854
   35DOPE  C310 4489   6.532   2.143  14.102  0.2281  0.0557 -0.6105
   35DOPE  H10X 4490   6.638   2.171  14.103  1.1474 -3.0436 -0.8374
   35DOPE  C311 4491   6.472   2.119  14.237 -0.0370 -0.3446 -0.4019
   35DOPE  H11X 4492   6.367   2.083  14.226  0.2121 -1.3966  0.4704
   35DOPE  H11Y 4493   6.528   2.033  14.280  0.0684  0.3495  0.8997
   35DOPE  C312 4494   6.453   2.233  14.348 -0.3278 -0.2799 -0.1716
   35DOPE  H12X 4495   6.434   2.320  14.281  0.2474 -0.1706 -0.2055
   35DOPE  H12Y 4496   6.552   2.248  14.398  0.0541  1.1531 -1.2689
   35DOPE  C313 4497   6.340   2.219  14.450  0.0912 -0.0386 -0.3352
   35DOPE  H13X 4498   6.315   2.318  14.493  1.5250  0.0269  0.4099
   35DOPE  H13Y 4499   6.251   2.197  14.387  0.7738 -0.0247 -1.3163
   35DOPE  C314 4500   6.360   2.133  14.576 -0.2928  0.4829  0.3912
   35DOPE  H14X 4501   6.431   2.052  14.546 -1.1775  0.1152 -0.8030
   35DOPE  H14Y 4502   6.268   2.089  14.620  0.7147  1.1886  3.4350
   35DOPE  C315 4503   6.435   2.202  14.692 -0.0367 -0.4289 -0.9080
   35DOPE  H15X 4504   6.372   2.277  14.743 -0.5379 -1.7748  0.5177
   35DOPE  H15Y 4505   6.518   2.257  14.644 -0.5738  2.1990  1.0188
   35DOPE  C316 4506   6.477   2.107  14.802 -0.2286  0.4520 -0.8251
   35DOPE  H16X 4507   6.547   2.035  14.756 -0.5786  0.6367 -1.6868
   35DOPE  H16Y 4508   6.392   2.048  14.843  0.8149 -1.0143 -0.7320
   35DOPE  C317 4509   6.546   2.173  14.926  0.5066  0.4535 -0.1165
   35DOPE  H17X 4510   6.474   2.252  14.957  1.0730  1.3222 -0.9583
   35DOPE  H17Y 4511   6.569   2.098  15.006  0.1792  0.8975  0.3978
   35DOPE  C318 4512   6.676   2.235  14.886  0.5357  0.4468 -0.2356
   35DOPE  H18X 4513   6.752   2.154  14.877 -0.9724 -1.1964  0.9609
   35DOPE  H18Y 4514   6.671   2.302  14.798 -2.7148 -1.8436 -2.0133
   35DOPE  H18Z 4515   6.714   2.296  14.971  1.0920  1.4262 -1.1677
   36DOPE     N 4516   6.406   4.587  13.014  0.2360  0.2654  0.5333
   36DOPE   HN1 4517   6.378   4.662  13.080 -1.0417 -0.4497  0.8366
   36DOPE   HN2 4518   6.388   4.497  13.062 -0.2416 -0.7986 -1.5080
   36DOPE   HN3 4519   6.507   4.610  13.009  0.1200  1.1116  1.7823
   36DOPE   C12 4520   6.344   4.590  12.872 -0.2199 -0.8238 -1.0831
   36DOPE  H12A 4521   6.403   4.668  12.820  0.4213 -1.0553 -0.7178
   36DOPE  H12B 4522   6.236   4.612  12.883 -0.3106 -1.3134 -0.9797
   36DOPE   C11 4523   6.364   4.463  12.793 -0.4302 -0.2797 -0.3804
   36DOPE  H11A 4524   6.342   4.480  12.686  1.1340 -1.6355 -0.9578
   36DOPE  H11B 4525   6.297   4.385  12.835 -0.1645 -0.7509 -0.8232
   36DOPE     P 4526   6.553   4.317  12.681  0.0660  0.2414 -0.0231
   36DOPE   O13 4527   6.662   4.386  12.612 -0.3267 -0.1770  0.0387
   36DOPE   O14 4528   6.444   4.262  12.594  0.2228 -0.4252 -0.3790
   36DOPE   O11 4529   6.613   4.193  12.758 -0.0440  0.2868 -0.0564
   36DOPE   O12 4530   6.499   4.420  12.792 -0.0553  0.1107 -0.1948
   36DOPE    C1 4531   6.552   4.163  12.883 -1.4379  0.7916 -0.0464
   36DOPE    HA 4532   6.443   4.147  12.876 -1.8321  1.9606  2.3364
   36DOPE    HB 4533   6.568   4.246  12.955  1.7260 -0.2568  0.6096
   36DOPE    C2 4534   6.607   4.027  12.935  0.1605 -0.0193  0.6780
   36DOPE    HS 4535   6.558   3.999  13.031 -0.4384 -0.3145  0.2885
   36DOPE   O21 4536   6.747   4.027  12.954 -0.6238 -0.2466 -0.1612
   36DOPE   C21 4537   6.786   4.084  13.064  0.1544 -0.2111 -0.5326
   36DOPE   O22 4538   6.708   4.137  13.148 -0.5942  0.1361 -0.1303
   36DOPE   C22 4539   6.937   4.076  13.078 -0.3046 -0.1868  0.4157
   36DOPE   H2R 4540   6.977   4.130  12.990 -0.0126 -2.6641 -1.0534
   36DOPE   H2S 4541   6.975   3.972  13.077  0.2850  0.0015  1.3295
   36DOPE    C3 4542   6.568   3.911  12.835  0.7657 -0.8239 -0.1405
   36DOPE    HX 4543   6.618   3.945  12.742 -0.1915  2.8815  0.5030
   36DOPE    HY 4544   6.459   3.920  12.816  1.0864  1.4876 -1.2899
   36DOPE   O31 4545   6.619   3.784  12.887 -0.4247 -0.0343  0.0023
   36DOPE   C31 4546   6.533   3.683  12.886 -0.6351  0.2792  0.3857
   36DOPE   O32 4547   6.420   3.686  12.835  0.0024 -0.1600  0.2928
   36DOPE   C32 4548   6.596   3.571  12.977 -0.5087 -0.4893 -0.0862
   36DOPE   H2X 4549   6.552   3.475  12.942 -1.8008  0.8621 -2.4635
   36DOPE   H2Y 4550   6.703   3.555  12.953 -0.7006 -0.8254 -0.7440
   36DOPE   C23 4551   6.988   4.147  13.201  0.5045 -0.2064  0.9009
   36DOPE   H3R 4552   6.931   4.128  13.295 -0.0784  1.5158  0.9316
   36DOPE   H3S 4553   6.982   4.257  13.188 -2.8832  0.0074  2.8788
   36DOPE   C24 4554   7.132   4.104  13.229  0.2538  0.0908  0.0601
   36DOPE   H4R 4555   7.192   4.125  13.138 -0.9170  1.0743 -0.5169
   36DOPE   H4S 4556   7.134   3.994  13.237 -0.7106 -0.2863 -3.3467
   36DOPE   C25 4557   7.179   4.170  13.356 -0.1702 -0.7021  0.0166
   36DOPE   H5R 4558   7.152   4.278  13.367  4.0326  0.4675  0.6068
   36DOPE   H5S 4559   7.289   4.177  13.367 -0.0271 -0.9219 -1.1545
   36DOPE   C26 4560   7.122   4.100  13.481 -0.2669  0.8215 -0.4015
   36DOPE   H6R 4561   7.149   3.993  13.467 -1.1065  0.2728  1.7709
   36DOPE   H6S 4562   7.012   4.093  13.477 -0.1743 -1.7421 -0.2074
   36DOPE   C27 4563   7.153   4.150  13.620 -0.6767  0.6578  0.7215
   36DOPE   H7R 4564   7.115   4.255  13.623  1.1819  1.3931  0.1087
   36DOPE   H7S 4565   7.263   4.150  13.634 -0.3068  0.5610 -1.8042
   36DOPE   C28 4566   7.079   4.070  13.729  0.1587 -0.1283 -0.8467
   36DOPE   H8R 4567   7.137   3.975  13.732 -2.1654 -1.6157 -0.1007
   36DOPE   H8S 4568   6.973   4.051  13.704  0.0066 -1.1590  0.4829
   36DOPE   C29 4569   7.073   4.130  13.872  0.2983  0.6311 -0.5791
   36DOPE   H9R 4570   6.976   4.177  13.895 -0.8285 -1.2097 -1.3569
   36DOPE  C210 4571   7.165   4.134  13.967 -0.0574  0.3687  0.2997
   36DOPE  H10R 4572   7.132   4.182  14.060 -0.2550 -1.0468  0.9819
   36DOPE  C211 4573   7.313   4.088  13.959  0.4720  0.5941  0.0376
   36DOPE  H11R 4574   7.377   4.170  13.920 -1.4258  0.7017 -3.1812
   36DOPE  H11S 4575   7.323   4.005  13.885 -0.5986 -0.6718  1.2695
   36DOPE  C212 4576   7.364   4.031  14.092  1.0548  0.3820 -0.2948
   36DOPE  H12R 4577   7.457   3.971  14.087  0.9540  0.0952  0.9925
   36DOPE  H12S 4578   7.287   3.960  14.127  1.3604 -0.0009 -0.3922
   36DOPE  C213 4579   7.393   4.148  14.190  0.8216 -0.0981  0.1297
   36DOPE  H13R 4580   7.293   4.193  14.210  0.9135 -0.4062  1.3892
   36DOPE  H13S 4581   7.481   4.209  14.160  2.1152 -3.0170 -2.5101
   36DOPE  C214 4582   7.431   4.102  14.332  0.0379  0.7504 -0.3786
   36DOPE  H14R 4583   7.526   4.044  14.321  0.4309  1.3065  0.0467
   36DOPE  H14S 4584   7.352   4.030  14.362  1.1844 -0.6915 -0.6782
   36DOPE  C215 4585   7.443   4.221  14.426  0.4785  0.1531  0.3798
   36DOPE  H15R 4586   7.345   4.272  14.434  0.2077 -0.6209  4.4331
   36DOPE  H15S 4587   7.505   4.302  14.383  0.7208  0.7256  1.7495
   36DOPE  C216 4588   7.485   4.190  14.567  0.5399  0.2169  0.2407
   36DOPE  H16R 4589   7.595   4.196  14.556  0.2233  3.0174 -2.5273
   36DOPE  H16S 4590   7.454   4.084  14.581 -0.9022  0.5300 -0.4414
   36DOPE  C217 4591   7.424   4.281  14.672 -0.2825  0.3550  0.5158
   36DOPE  H17R 4592   7.315   4.262  14.664 -0.1478 -0.1871 -0.0776
   36DOPE  H17S 4593   7.436   4.389  14.646 -2.5792  0.7529  0.9136
   36DOPE  C218 4594   7.484   4.258  14.811  0.1714  0.3213  0.2799
   36DOPE  H18R 4595   7.453   4.158  14.847 -2.8850  0.9961 -0.2314
   36DOPE  H18S 4596   7.442   4.331  14.884  0.0897  0.3561  0.1980
   36DOPE  H18T 4597   7.595   4.262  14.816  0.4944 -0.5199 -3.3014
   36DOPE   C33 4598   6.564   3.602  13.127  0.4298  0.6609 -0.7954
   36DOPE   H3X 4599   6.633   3.677  13.171 -1.3198  0.1371  3.3675
   36DOPE   H3Y 4600   6.598   3.519  13.193  1.2322  2.0572  0.6303
   36DOPE   C34 4601   6.416   3.633  13.158  0.3010  0.1504  0.1924
   36DOPE   H4X 4602   6.380   3.720  13.100  0.4025 -2.3155 -3.9556
   36DOPE   H4Y 4603   6.353   3.544  13.138  0.5423 -0.1943  0.9183
   36DOPE   C35 4604   6.395   3.672  13.302 -0.5977 -0.5421 -0.9031
   36DOPE   H5X 4605   6.440   3.772  13.318 -1.7791 -0.4214  2.5272
   36DOPE   H5Y 4606   6.442   3.590  13.361 -1.7786  0.9006  2.2600
   36DOPE   C36 4607   6.245   3.671  13.344 -0.2838  0.3218  0.5151
   36DOPE   H6X 4608   6.203   3.573  13.311  1.9043 -1.5907  2.9219
   36DOPE   H6Y 4609   6.198   3.758  13.294  0.8855  1.0593  0.6778
   36DOPE   C37 4610   6.234   3.682  13.497  0.1646  0.4722 -0.1893
   36DOPE   H7X 4611   6.130   3.655  13.525 -0.3647  0.8578 -1.6765
   36DOPE   H7Y 4612   6.315   3.616  13.536  2.1279  2.3662 -0.8603
   36DOPE   C38 4613   6.274   3.821  13.560  0.9975 -0.2989  0.1099
   36DOPE   H8X 4614   6.377   3.844  13.526  0.5707  1.4629 -0.1162
   36DOPE   H8Y 4615   6.282   3.808  13.670  1.8120 -1.6719 -0.0909
   36DOPE   C39 4616   6.185   3.940  13.519 -0.3355 -0.1993  0.3353
   36DOPE   H9X 4617   6.150   3.946  13.415 -0.5712  3.0010  0.5062
   36DOPE  C310 4618   6.137   4.039  13.599  0.3189  0.1818  0.2125
   36DOPE  H10X 4619   6.043   4.090  13.575 -0.1047  0.2577  1.9289
   36DOPE  C311 4620   6.189   4.063  13.737 -0.5371 -0.1500 -0.3017
   36DOPE  H11X 4621   6.177   3.974  13.802  3.1785  0.2700  1.2465
   36DOPE  H11Y 4622   6.299   4.081  13.731 -0.6760  0.4730 -1.1780
   36DOPE  C312 4623   6.126   4.189  13.800  0.1361 -0.5643 -0.5519
   36DOPE  H12X 4624   6.016   4.181  13.808  0.0890  0.5873  0.1536
   36DOPE  H12Y 4625   6.133   4.274  13.728 -2.1322 -0.4833 -0.7429
   36DOPE  C313 4626   6.179   4.216  13.943 -0.3728  0.0566 -0.0285
   36DOPE  H13X 4627   6.154   4.129  14.007  0.1598 -0.6997 -0.8269
   36DOPE  H13Y 4628   6.289   4.224  13.957 -0.7145  0.6738  2.8496
   36DOPE  C314 4629   6.105   4.326  14.017 -0.2416 -0.0077  0.7188
   36DOPE  H14X 4630   6.001   4.335  13.978  0.4591 -0.6868 -1.5050
   36DOPE  H14Y 4631   6.153   4.426  14.015 -0.0143 -0.0476  2.7476
   36DOPE  C315 4632   6.096   4.300  14.168 -0.2411  0.1010  0.3415
   36DOPE  H15X 4633   6.187   4.267  14.222  0.0724  1.0064  0.3840
   36DOPE  H15Y 4634   6.032   4.209  14.175  0.1689 -0.1154  1.6009
   36DOPE  C316 4635   6.048   4.416  14.246  0.4989 -0.0807  0.1427
   36DOPE  H16X 4636   5.951   4.442  14.199 -0.2362 -0.8608  1.1786
   36DOPE  H16Y 4637   6.132   4.488  14.233 -0.1018  0.7939  1.0204
   36DOPE  C317 4638   6.013   4.392  14.392 -0.1930 -1.0549 -0.1545
   36DOPE  H17X 4639   5.943   4.306  14.398 -1.8393  0.3048  0.9131
   36DOPE  H17Y 4640   6.108   4.367  14.443  1.0723 -1.4469 -2.5410
   36DOPE  C318 4641   5.944   4.512  14.469  0.2972  1.2896 -0.3070
   36DOPE  H18X 4642   5.859   4.546  14.405  0.4158  1.4605 -0.3740
   36DOPE  H18Y 4643   5.919   4.474  14.570 -2.7857  0.3497 -1.2976
   36DOPE  H18Z 4644   6.020   4.593  14.479  1.8879 -0.3646  1.7342
   37DOPE     N 4645   4.014   1.327  13.008  0.0749 -0.3527 -0.4936
   37DOPE   HN1 4646   4.093   1.290  12.952 -1.2084  0.0425 -2.7033
   37DOPE   HN2 4647   4.024   1.283  13.101 -1.9995 -0.7226 -0.3955
   37DOPE   HN3 4648   3.923   1.293  12.971  0.8398 -4.8274  1.1933
   37DOPE   C12 4649   4.033   1.476  13.020 -0.0714  0.0964 -0.4617
   37DOPE  H12A 4650   4.062   1.525  12.925  0.9712  0.3729 -0.0082
   37DOPE  H12B 4651   4.117   1.485  13.091 -2.3675  0.7582  2.3553
   37DOPE   C11 4652   3.911   1.546  13.085  0.2846 -0.3483 -0.8821
   37DOPE  H11A 4653   3.943   1.652  13.092  0.1132 -0.3205 -0.4858
   37DOPE  H11B 4654   3.892   1.519  13.191  0.6793 -0.0163 -0.7241
   37DOPE     P 4655   3.680   1.431  13.048  0.1099  0.1197  0.0257
   37DOPE   O13 4656   3.727   1.300  13.017 -0.4063  0.2903  0.5935
   37DOPE   O14 4657   3.553   1.468  12.981 -0.3478  0.4891 -0.2874
   37DOPE   O11 4658   3.657   1.438  13.205  0.4878 -0.1835  0.1832
   37DOPE   O12 4659   3.791   1.534  13.014  0.1868  0.0249 -0.1509
   37DOPE    C1 4660   3.568   1.539  13.258 -0.2157  0.4120  0.4532
   37DOPE    HA 4661   3.463   1.504  13.267 -0.3287  0.8939  1.1009
   37DOPE    HB 4662   3.572   1.630  13.194 -1.7578 -2.0422 -3.4540
   37DOPE    C2 4663   3.594   1.583  13.405  0.0556  0.0431  0.5805
   37DOPE    HS 4664   3.683   1.648  13.400 -0.0732  0.2811  1.3273
   37DOPE   O21 4665   3.633   1.476  13.497 -0.2259  0.0625  0.1764
   37DOPE   C21 4666   3.757   1.430  13.475  0.3921 -1.0634  0.2922
   37DOPE   O22 4667   3.841   1.488  13.414  0.0677  0.2573 -0.4491
   37DOPE   C22 4668   3.776   1.291  13.546 -0.3329  0.9435  0.0613
   37DOPE   H2R 4669   3.789   1.222  13.461 -1.6832  1.1889 -0.3742
   37DOPE   H2S 4670   3.677   1.273  13.595  0.4302  1.9614  2.1022
   37DOPE    C3 4671   3.480   1.670  13.464 -0.4177 -0.5287  0.0854
   37DOPE    HX 4672   3.484   1.761  13.402 -2.2180 -1.3705 -1.3750
   37DOPE    HY 4673   3.503   1.676  13.573 -2.2764 -2.1694  0.6359
   37DOPE   O31 4674   3.360   1.601  13.448  0.3382  0.5647  0.0122
   37DOPE   C31 4675   3.264   1.686  13.470  0.2454 -0.0310 -0.4224
   37DOPE   O32 4676   3.267   1.803  13.507 -0.7625  0.2229 -0.4132
   37DOPE   C32 4677   3.140   1.612  13.439  0.6662  1.1404 -0.2504
   37DOPE   H2X 4678   3.134   1.608  13.328 -1.5420 -3.3103 -0.1844
   37DOPE   H2Y 4679   3.151   1.504  13.461  0.4738  1.2270  0.2955
   37DOPE   C23 4680   3.889   1.274  13.652 -0.2483  0.1268 -0.0853
   37DOPE   H3R 4681   3.977   1.337  13.627  0.9108 -0.7138  1.6252
   37DOPE   H3S 4682   3.926   1.169  13.653 -1.9324 -0.4902  0.4231
   37DOPE   C24 4683   3.830   1.305  13.790  1.0033 -0.0083 -0.4807
   37DOPE   H4R 4684   3.762   1.229  13.834  0.5888  1.0080  0.7075
   37DOPE   H4S 4685   3.777   1.403  13.793 -0.4046 -0.7514 -0.2193
   37DOPE   C25 4686   3.941   1.324  13.888  0.6000 -0.3959 -1.1361
   37DOPE   H5R 4687   3.999   1.415  13.861  0.3168 -0.3071 -1.4491
   37DOPE   H5S 4688   4.020   1.246  13.877  3.1461  1.9759 -0.7615
   37DOPE   C26 4689   3.881   1.339  14.028 -0.4465  0.5163  0.2622
   37DOPE   H6R 4690   3.816   1.249  14.037  0.7546 -0.4952 -0.8368
   37DOPE   H6S 4691   3.824   1.433  14.042  0.9730  1.6612 -1.3227
   37DOPE   C27 4692   3.988   1.323  14.145 -0.0279 -0.4605 -0.0506
   37DOPE   H7R 4693   4.066   1.401  14.132 -1.3985  0.8419 -0.7253
   37DOPE   H7S 4694   4.044   1.228  14.131  0.1271 -0.4248  0.3145
   37DOPE   C28 4695   3.929   1.322  14.286  0.6505 -0.9557 -0.4330
   37DOPE   H8R 4696   4.003   1.263  14.345 -0.4158 -1.0215  0.8828
   37DOPE   H8S 4697   3.832   1.267  14.281  0.3810 -0.7243  1.3817
   37DOPE   C29 4698   3.907   1.459  14.340  0.4129 -0.5606  0.0419
   37DOPE   H9R 4699   3.951   1.540  14.281  0.0807 -0.0001  0.5479
   37DOPE  C210 4700   3.857   1.495  14.461  0.2118 -0.0044  0.6592
   37DOPE  H10R 4701   3.836   1.598  14.492  2.9382  0.6825  0.5120
   37DOPE  C211 4702   3.832   1.399  14.573  0.0021 -0.1827 -0.4755
   37DOPE  H11R 4703   3.844   1.295  14.534  0.0982 -0.7964  1.1098
   37DOPE  H11S 4704   3.724   1.397  14.600  0.0330  0.7028 -0.2646
   37DOPE  C212 4705   3.911   1.422  14.707 -0.4989  0.4216  0.7469
   37DOPE  H12R 4706   3.875   1.347  14.780  0.3448  0.7179  1.4870
   37DOPE  H12S 4707   3.898   1.526  14.743 -4.1590  0.1530  0.4866
   37DOPE  C213 4708   4.057   1.382  14.689  0.5046  0.4025  0.5861
   37DOPE  H13R 4709   4.109   1.447  14.615  0.0933  1.0516  0.8589
   37DOPE  H13S 4710   4.055   1.279  14.646 -1.9862  0.1542  1.1598
   37DOPE  C214 4711   4.123   1.386  14.819  0.0460 -0.3557  0.3089
   37DOPE  H14R 4712   4.088   1.299  14.878  0.0619 -0.7906 -0.3169
   37DOPE  H14S 4713   4.099   1.481  14.871  0.0323 -0.8368  1.2056
   37DOPE  C215 4714   4.276   1.381  14.794  0.2650  0.7818  0.0640
   37DOPE  H15R 4715   4.297   1.452  14.711  3.2628 -0.5486 -0.4631
   37DOPE  H15S 4716   4.297   1.278  14.759 -0.0929  0.6576  0.2161
   37DOPE  C216 4717   4.372   1.416  14.914 -0.0962 -0.1256 -0.0150
   37DOPE  H16R 4718   4.324   1.365  15.001  0.2848 -1.1039 -0.3705
   37DOPE  H16S 4719   4.363   1.526  14.932 -0.4458  0.0508 -1.2161
   37DOPE  C217 4720   4.516   1.363  14.885  0.3663 -0.2727  0.4638
   37DOPE  H17R 4721   4.492   1.282  14.813 -2.0323  0.8036 -0.0285
   37DOPE  H17S 4722   4.544   1.323  14.984 -2.2843 -3.5712  0.0561
   37DOPE  C218 4723   4.624   1.459  14.843 -0.4084  0.6126 -0.0413
   37DOPE  H18R 4724   4.625   1.548  14.910 -0.7869 -0.2492  1.1479
   37DOPE  H18S 4725   4.616   1.492  14.737  0.8107 -0.9426 -0.6604
   37DOPE  H18T 4726   4.726   1.425  14.872 -0.0547  1.6348 -0.0356
   37DOPE   C33 4727   3.002   1.665  13.494  0.4847  0.7695 -0.0024
   37DOPE   H3X 4728   2.920   1.599  13.461  1.8877 -1.0786  0.0597
   37DOPE   H3Y 4729   2.996   1.770  13.459  0.0182  0.1581 -1.8405
   37DOPE   C34 4730   2.988   1.664  13.653 -0.0386 -0.6968 -0.2333
   37DOPE   H4X 4731   2.994   1.558  13.687  1.4568  0.1454  2.4549
   37DOPE   H4Y 4732   3.075   1.715  13.701 -0.5911 -0.3109  0.3664
   37DOPE   C35 4733   2.846   1.709  13.693  0.4780  0.2657 -0.3190
   37DOPE   H5X 4734   2.847   1.712  13.804  0.7191  1.7256 -0.3417
   37DOPE   H5Y 4735   2.768   1.636  13.663  0.7836 -0.1359 -0.1494
   37DOPE   C36 4736   2.803   1.853  13.651 -0.3609 -0.3083  0.0886
   37DOPE   H6X 4737   2.841   1.877  13.549  0.1339 -0.8095  0.1535
   37DOPE   H6Y 4738   2.859   1.920  13.719  0.5590 -2.5818  1.6761
   37DOPE   C37 4739   2.655   1.880  13.651 -0.8350  0.5474  0.2921
   37DOPE   H7X 4740   2.642   1.983  13.612  3.0958  1.0216 -0.2098
   37DOPE   H7Y 4741   2.615   1.809  13.577  1.0898  2.2078 -2.5195
   37DOPE   C38 4742   2.588   1.869  13.784  0.1452  0.6900 -0.3025
   37DOPE   H8X 4743   2.611   1.773  13.835  0.6944  0.4582 -0.9718
   37DOPE   H8Y 4744   2.480   1.866  13.757  0.3298 -0.1843 -0.9827
   37DOPE   C39 4745   2.622   1.987  13.873 -0.7138 -0.5115  0.7440
   37DOPE   H9X 4746   2.731   1.992  13.891 -0.7134 -2.1351  1.3965
   37DOPE  C310 4747   2.536   2.068  13.940 -0.2547  0.3662  0.5231
   37DOPE  H10X 4748   2.576   2.150  14.002 -2.2188 -0.0469  2.4696
   37DOPE  C311 4749   2.384   2.056  13.929 -0.2894 -0.6823  0.0636
   37DOPE  H11X 4750   2.350   2.161  13.928 -0.5700 -0.7733 -0.0784
   37DOPE  H11Y 4751   2.350   2.005  13.837  1.0771  0.9680 -1.4112
   37DOPE  C312 4752   2.328   1.994  14.060 -0.1176  0.0407  0.2922
   37DOPE  H12X 4753   2.219   2.017  14.057 -0.2539 -0.6041  0.2181
   37DOPE  H12Y 4754   2.361   2.050  14.150 -1.2878 -2.4902  2.4459
   37DOPE  C313 4755   2.354   1.842  14.081  0.1439 -0.1989 -1.0380
   37DOPE  H13X 4756   2.340   1.783  13.988 -2.2668 -0.2632 -0.7029
   37DOPE  H13Y 4757   2.462   1.829  14.103  0.0301 -1.6696 -1.2824
   37DOPE  C314 4758   2.283   1.796  14.209  0.3889  0.1457 -0.0793
   37DOPE  H14X 4759   2.317   1.860  14.293  2.9210 -0.2177 -0.7595
   37DOPE  H14Y 4760   2.314   1.694  14.241 -0.8462  0.8887  4.1044
   37DOPE  C315 4761   2.128   1.794  14.205 -0.0971  0.6827  0.2341
   37DOPE  H15X 4762   2.078   1.889  14.175 -1.4144 -0.2035 -0.4482
   37DOPE  H15Y 4763   2.090   1.776  14.308  0.8508  0.2133  0.5167
   37DOPE  C316 4764   2.077   1.684  14.110  0.6891 -0.7440  0.7966
   37DOPE  H16X 4765   2.115   1.585  14.142 -0.4007 -1.8024 -0.9976
   37DOPE  H16Y 4766   2.134   1.689  14.015  0.4213 -1.0530  0.6193
   37DOPE  C317 4767   1.919   1.695  14.093  0.0522  0.1702 -0.2990
   37DOPE  H17X 4768   1.894   1.798  14.060 -2.7262 -0.1212  0.6446
   37DOPE  H17Y 4769   1.890   1.625  14.012  0.1122 -0.4262  0.1930
   37DOPE  C318 4770   1.836   1.644  14.211 -0.0718  0.0841 -0.4218
   37DOPE  H18X 4771   1.881   1.680  14.306  1.1600 -1.6437 -0.3065
   37DOPE  H18Y 4772   1.725   1.650  14.203 -0.5563 -3.1308  1.9234
   37DOPE  H18Z 4773   1.850   1.534  14.215  2.0177  0.2270 -2.1838
   38DOPE     N 4774   6.189   3.919  12.795 -0.1942 -0.1732 -1.0378
   38DOPE   HN1 4775   6.159   4.010  12.837 -2.5808 -1.0222 -0.7455
   38DOPE   HN2 4776   6.255   3.867  12.857 -0.6547 -2.0594 -2.0456
   38DOPE   HN3 4777   6.239   3.934  12.705  0.7465  1.3871 -0.3038
   38DOPE   C12 4778   6.067   3.836  12.789  0.3765  0.2627  0.4905
   38DOPE  H12A 4779   6.107   3.733  12.776  0.9261  0.4666  0.5409
   38DOPE  H12B 4780   6.010   3.874  12.702 -0.7449  1.2638  1.6191
   38DOPE   C11 4781   5.977   3.843  12.917 -0.0401  0.6399  0.5732
   38DOPE  H11A 4782   6.033   3.869  13.009 -0.7985  2.2081  0.6171
   38DOPE  H11B 4783   5.932   3.743  12.932  0.7534  0.2673  0.5137
   38DOPE     P 4784   5.807   4.035  12.988  0.1913  0.0489 -0.2525
   38DOPE   O13 4785   5.665   4.005  13.005 -0.1280  0.0751  0.6892
   38DOPE   O14 4786   5.840   4.173  12.935  0.4010 -0.2287 -0.0386
   38DOPE   O11 4787   5.879   3.989  13.124 -0.1069  0.4018  0.1284
   38DOPE   O12 4788   5.868   3.930  12.884 -0.1701 -0.2724 -0.1437
   38DOPE    C1 4789   5.803   3.904  13.215 -0.0506  0.2581  0.5253
   38DOPE    HA 4790   5.876   3.838  13.267 -1.6451 -0.1977  2.2726
   38DOPE    HB 4791   5.740   3.833  13.158  0.1589  1.1908 -0.9252
   38DOPE    C2 4792   5.722   3.985  13.318  0.1576  0.0652 -0.2761
   38DOPE    HS 4793   5.633   4.021  13.263  0.2612  1.0649  0.2013
   38DOPE   O21 4794   5.798   4.093  13.383 -0.3160 -0.0560 -0.0741
   38DOPE   C21 4795   5.731   4.207  13.391 -0.3674 -0.6905  0.8687
   38DOPE   O22 4796   5.615   4.223  13.363  0.1454 -0.8747 -0.5321
   38DOPE   C22 4797   5.817   4.315  13.446  0.4889  0.5392 -0.3251
   38DOPE   H2R 4798   5.773   4.415  13.429 -1.0107 -0.0953 -0.3008
   38DOPE   H2S 4799   5.921   4.310  13.406  0.5746  1.1786 -0.1852
   38DOPE    C3 4800   5.691   3.898  13.441 -1.0580  0.4800  0.3631
   38DOPE    HX 4801   5.793   3.874  13.478  0.1331 -1.8212 -3.8091
   38DOPE    HY 4802   5.654   3.796  13.417 -1.7976  0.6661  0.6833
   38DOPE   O31 4803   5.612   3.954  13.548  0.3373 -0.1455 -0.4302
   38DOPE   C31 4804   5.483   3.939  13.539 -0.5197 -0.3916 -0.2159
   38DOPE   O32 4805   5.419   3.885  13.449 -0.2860  0.3042  0.0756
   38DOPE   C32 4806   5.419   3.994  13.664  0.9095 -0.3781  0.7882
   38DOPE   H2X 4807   5.381   3.904  13.716 -2.5520  0.4731 -0.0291
   38DOPE   H2Y 4808   5.491   4.043  13.734  1.3396 -0.2110  0.2391
   38DOPE   C23 4809   5.829   4.294  13.598  0.4216 -0.7422 -1.3063
   38DOPE   H3R 4810   5.911   4.353  13.644  1.1347 -3.9116  1.9964
   38DOPE   H3S 4811   5.865   4.192  13.624 -4.1503 -2.1515  0.5428
   38DOPE   C24 4812   5.707   4.337  13.689 -0.2007  0.2111 -0.2116
   38DOPE   H4R 4813   5.633   4.265  13.649  0.2127 -0.2718 -0.1182
   38DOPE   H4S 4814   5.674   4.443  13.685 -1.5417 -0.2229 -1.2835
   38DOPE   C25 4815   5.745   4.315  13.834  0.8759  0.4865  0.5036
   38DOPE   H5R 4816   5.808   4.402  13.864 -1.6608  2.8664 -0.5421
   38DOPE   H5S 4817   5.804   4.222  13.844 -0.7082 -0.9705 -2.4883
   38DOPE   C26 4818   5.622   4.300  13.926 -0.1691  1.1819 -0.1599
   38DOPE   H6R 4819   5.528   4.269  13.876 -0.7317  1.3228  0.8021
   38DOPE   H6S 4820   5.601   4.400  13.970 -1.7482  1.6458 -1.8381
   38DOPE   C27 4821   5.651   4.198  14.047  0.1898 -0.6641  0.2835
   38DOPE   H7R 4822   5.736   4.242  14.104  0.1474 -2.2822  1.6774
   38DOPE   H7S 4823   5.676   4.098  14.005  0.9720 -0.7668  0.9651
   38DOPE   C28 4824   5.524   4.184  14.134  0.3614  0.0360  0.2549
   38DOPE   H8R 4825   5.448   4.125  14.080  2.0928 -1.9852 -0.0786
   38DOPE   H8S 4826   5.475   4.283  14.147 -1.7000 -0.8173 -0.6676
   38DOPE   C29 4827   5.561   4.109  14.264  0.7932  0.3581 -0.1275
   38DOPE   H9R 4828   5.656   4.053  14.267  0.2431 -0.5235  1.7670
   38DOPE  C210 4829   5.478   4.096  14.369  0.2819  0.1899  0.8181
   38DOPE  H10R 4830   5.499   4.040  14.461 -2.6685 -2.3007  0.1453
   38DOPE  C211 4831   5.335   4.158  14.356  0.1939 -0.6418 -1.3459
   38DOPE  H11R 4832   5.251   4.085  14.351  0.3080 -1.0489  1.2973
   38DOPE  H11S 4833   5.317   4.208  14.259 -0.4969  0.1729 -0.8061
   38DOPE  C212 4834   5.314   4.264  14.471 -0.3795 -0.3025 -0.0340
   38DOPE  H12R 4835   5.224   4.324  14.446 -1.7325 -1.4529  1.7696
   38DOPE  H12S 4836   5.400   4.333  14.478 -1.0162  0.3905  1.5073
   38DOPE  C213 4837   5.297   4.196  14.610 -0.4405 -0.1866  0.1335
   38DOPE  H13R 4838   5.318   4.279  14.680 -1.4302 -0.2349  0.4994
   38DOPE  H13S 4839   5.368   4.112  14.625 -1.4892 -1.2136 -0.4267
   38DOPE  C214 4840   5.152   4.137  14.629 -0.0730  0.3236  0.6175
   38DOPE  H14R 4841   5.115   4.096  14.532  0.7664  0.8741  0.0514
   38DOPE  H14S 4842   5.083   4.214  14.670 -2.0905 -1.6634  1.1463
   38DOPE  C215 4843   5.159   4.015  14.727 -0.0822 -0.3823  0.6341
   38DOPE  H15R 4844   5.236   4.049  14.800  1.2293 -1.1952 -0.3056
   38DOPE  H15S 4845   5.196   3.930  14.665  0.1650  0.2738 -0.1390
   38DOPE  C216 4846   5.023   3.974  14.788  0.3822  0.8677  0.2586
   38DOPE  H16R 4847   4.955   3.945  14.705  1.6592 -1.0035 -0.1983
   38DOPE  H16S 4848   4.978   4.060  14.842 -1.5174  1.2812 -1.8370
   38DOPE  C217 4849   5.034   3.845  14.871  0.4311  0.1652 -0.0764
   38DOPE  H17R 4850   5.063   3.764  14.800 -0.1045  0.7080 -0.9310
   38DOPE  H17S 4851   4.936   3.817  14.914  0.9918 -2.9488 -0.5516
   38DOPE  C218 4852   5.136   3.855  14.988 -0.2521 -0.1658 -0.2274
   38DOPE  H18R 4853   5.096   3.932  15.058  0.4997 -2.3653  2.8172
   38DOPE  H18S 4854   5.232   3.886  14.941 -0.0843 -0.4547 -0.0748
   38DOPE  H18T 4855   5.158   3.764  15.048 -0.5813  0.8025  1.4396
   38DOPE   C33 4856   5.299   4.094  13.631  0.7458 -0.0541 -0.1227
   38DOPE   H3X 4857   5.262   4.078  13.527  0.8743  0.3960 -0.2432
   38DOPE   H3Y 4858   5.338   4.197  13.615  0.8265 -0.2470 -1.2706
   38DOPE   C34 4859   5.171   4.099  13.719  0.3481  0.4707  0.2642
   38DOPE   H4X 4860   5.093   4.147  13.656 -0.2961 -0.1595  0.5605
   38DOPE   H4Y 4861   5.138   3.998  13.751 -1.1440 -0.2769 -3.2033
   38DOPE   C35 4862   5.191   4.193  13.843  0.3740  0.4717  0.0007
   38DOPE   H5X 4863   5.236   4.287  13.803  0.3265  0.2486 -0.5820
   38DOPE   H5Y 4864   5.276   4.147  13.898 -0.1001  0.0426  0.3801
   38DOPE   C36 4865   5.076   4.225  13.930  0.0917  0.7671 -0.1120
   38DOPE   H6X 4866   5.011   4.137  13.950 -0.9551  1.5715  0.1390
   38DOPE   H6Y 4867   5.025   4.307  13.875 -0.9741 -0.6467 -1.3071
   38DOPE   C37 4868   5.127   4.268  14.071  0.3261 -0.2821 -1.0312
   38DOPE   H7X 4869   5.141   4.176  14.131 -0.7819 -0.6062 -1.2508
   38DOPE   H7Y 4870   5.223   4.321  14.054  0.0756  0.4117 -0.3471
   38DOPE   C38 4871   5.025   4.360  14.146  0.5740  0.3579 -0.6480
   38DOPE   H8X 4872   5.015   4.456  14.091 -1.2515 -0.5963 -2.1050
   38DOPE   H8Y 4873   5.077   4.384  14.241  0.7050 -1.8562 -0.0970
   38DOPE   C39 4874   4.879   4.319  14.158 -0.1288 -0.2765 -0.3484
   38DOPE   H9X 4875   4.826   4.313  14.062  0.3672 -1.3195 -0.5710
   38DOPE  C310 4876   4.817   4.296  14.278 -0.4036  0.3011  0.0369
   38DOPE  H10X 4877   4.709   4.274  14.278 -0.4765  0.6501 -0.4966
   38DOPE  C311 4878   4.864   4.292  14.415  0.0733  0.0443  0.1541
   38DOPE  H11X 4879   4.856   4.193  14.465  0.4189  0.5648  1.2831
   38DOPE  H11Y 4880   4.975   4.298  14.412  0.0752 -0.3399 -0.9404
   38DOPE  C312 4881   4.811   4.396  14.513  0.2820  0.3949  0.9050
   38DOPE  H12X 4882   4.829   4.353  14.614 -2.2355 -1.3458  0.6982
   38DOPE  H12Y 4883   4.704   4.419  14.499  0.5522  0.1522 -2.1406
   38DOPE  C313 4884   4.880   4.534  14.501 -0.3138 -0.1142 -0.4177
   38DOPE  H13X 4885   4.991   4.541  14.513 -0.4710  4.0732 -0.0330
   38DOPE  H13Y 4886   4.853   4.575  14.401  0.6749  1.7543  0.0245
   38DOPE  C314 4887   4.842   4.627  14.611  0.0753  0.1392 -0.6751
   38DOPE  H14X 4888   4.741   4.671  14.595  0.5037  0.9034 -1.3601
   38DOPE  H14Y 4889   4.920   4.706  14.614 -0.4380  0.6374 -0.1991
   38DOPE  C315 4890   4.845   4.575  14.756 -0.4562 -0.5900  0.1728
   38DOPE  H15X 4891   4.766   4.498  14.768 -1.5418  0.5758  0.7726
   38DOPE  H15Y 4892   4.828   4.657  14.829  2.4793 -0.9870  1.4619
   38DOPE  C316 4893   4.984   4.504  14.793  0.1694 -0.5075 -0.5602
   38DOPE  H16X 4894   5.066   4.579  14.782 -1.6645  1.3678 -2.6115
   38DOPE  H16Y 4895   5.004   4.425  14.718  0.2018 -1.2626  0.2226
   38DOPE  C317 4896   4.983   4.449  14.936 -0.2734  0.0185  0.2815
   38DOPE  H17X 4897   4.954   4.523  15.014 -0.6959 -1.0419  1.1637
   38DOPE  H17Y 4898   4.899   4.376  14.930 -0.5038  0.1069  1.8887
   38DOPE  C318 4899   5.105   4.368  14.985 -0.1122 -0.3471  0.1356
   38DOPE  H18X 4900   5.069   4.306  15.070  0.9113  0.5039  1.2184
   38DOPE  H18Y 4901   5.138   4.305  14.900  0.3091  0.8883 -0.6436
   38DOPE  H18Z 4902   5.190   4.428  15.022  0.0962 -1.4447  1.4963
   39DOPE     N 4903   2.645   2.662  12.820 -0.1832  0.1145 -0.1860
   39DOPE   HN1 4904   2.573   2.628  12.753  0.6072 -0.1653 -0.9181
   39DOPE   HN2 4905   2.617   2.620  12.911 -4.0187 -1.1252 -1.7204
   39DOPE   HN3 4906   2.655   2.765  12.828 -0.8677  0.1078  0.9044
   39DOPE   C12 4907   2.779   2.600  12.773  0.5596 -1.4138  0.1164
   39DOPE  H12A 4908   2.785   2.637  12.668 -0.7267 -0.1782  0.4359
   39DOPE  H12B 4909   2.768   2.490  12.774 -3.2846 -1.1820 -0.6340
   39DOPE   C11 4910   2.901   2.643  12.856  0.3208 -0.5719  0.5760
   39DOPE  H11A 4911   2.996   2.621  12.802  1.3204  0.4180  1.8419
   39DOPE  H11B 4912   2.909   2.585  12.950 -0.7827  1.0843  1.7428
   39DOPE     P 4913   2.997   2.857  12.961 -0.2878 -0.3307 -0.1239
   39DOPE   O13 4914   2.966   2.997  12.971  0.1256 -0.5413 -0.0404
   39DOPE   O14 4915   3.133   2.813  12.922  0.2014 -0.1936  0.4637
   39DOPE   O11 4916   2.961   2.786  13.098  0.4704 -0.1641  0.4032
   39DOPE   O12 4917   2.897   2.788  12.867 -0.1763 -0.2207  0.0476
   39DOPE    C1 4918   2.827   2.771  13.146 -0.2715  0.1173  0.2596
   39DOPE    HA 4919   2.784   2.671  13.126 -1.5346  0.4985  0.9254
   39DOPE    HB 4920   2.758   2.840  13.092 -2.5221 -0.7058  1.9664
   39DOPE    C2 4921   2.813   2.815  13.290 -0.1242  0.0979 -0.4134
   39DOPE    HS 4922   2.844   2.922  13.293 -0.3181  0.1304  0.6750
   39DOPE   O21 4923   2.896   2.728  13.368  0.3865 -0.3311 -0.4792
   39DOPE   C21 4924   2.957   2.789  13.471  0.5146  0.1310  0.3244
   39DOPE   O22 4925   2.949   2.905  13.502  0.0121  0.4507 -0.5722
   39DOPE   C22 4926   3.029   2.681  13.544  0.8701 -0.1400  0.1545
   39DOPE   H2R 4927   3.131   2.719  13.567  1.6845 -1.7655 -0.6695
   39DOPE   H2S 4928   3.030   2.590  13.480  1.3301 -0.5764  0.7678
   39DOPE    C3 4929   2.658   2.813  13.331  0.2002 -0.2896 -0.3056
   39DOPE    HX 4930   2.610   2.716  13.304 -1.7749  1.3375 -3.1729
   39DOPE    HY 4931   2.606   2.875  13.255 -1.6888 -0.3437  0.8727
   39DOPE   O31 4932   2.623   2.850  13.465 -0.0190 -1.0619  0.2803
   39DOPE   C31 4933   2.630   2.983  13.493  0.2320  0.5051 -0.2297
   39DOPE   O32 4934   2.657   3.067  13.413 -0.8455 -0.1648  0.7235
   39DOPE   C32 4935   2.590   2.997  13.642  0.1895  0.1455  0.0235
   39DOPE   H2X 4936   2.648   2.926  13.704 -0.9213 -1.9901 -1.2690
   39DOPE   H2Y 4937   2.607   3.104  13.669  1.0343 -0.0870  0.4435
   39DOPE   C23 4938   2.952   2.661  13.674  0.8543  0.6883 -0.9378
   39DOPE   H3R 4939   2.843   2.672  13.659  0.2874 -0.6078  1.6059
   39DOPE   H3S 4940   2.985   2.739  13.746  0.5267 -1.2203  1.4323
   39DOPE   C24 4941   2.965   2.523  13.744  0.3793 -1.2223 -0.0889
   39DOPE   H4R 4942   3.059   2.526  13.803  0.0802 -0.7538  0.3816
   39DOPE   H4S 4943   2.983   2.439  13.673 -1.0605 -2.9903  1.5255
   39DOPE   C25 4944   2.844   2.486  13.837  0.2821  0.4291 -0.2940
   39DOPE   H5R 4945   2.874   2.388  13.880  2.6141  1.3646  0.4101
   39DOPE   H5S 4946   2.756   2.473  13.771 -0.0719  0.5749  0.1474
   39DOPE   C26 4947   2.807   2.582  13.952 -0.4342 -0.5447  0.2940
   39DOPE   H6R 4948   2.740   2.526  14.021  2.0721 -2.1619  1.6033
   39DOPE   H6S 4949   2.748   2.668  13.916  0.4764  0.0518  0.1955
   39DOPE   C27 4950   2.923   2.641  14.030 -0.3125  0.6738  0.6821
   39DOPE   H7R 4951   3.005   2.686  13.970  0.2673  1.2591  1.8775
   39DOPE   H7S 4952   2.984   2.560  14.075 -0.1502  0.5558  0.2506
   39DOPE   C28 4953   2.882   2.736  14.145 -0.1339 -0.7476  0.2945
   39DOPE   H8R 4954   2.963   2.784  14.203 -0.7739  0.2408  0.3933
   39DOPE   H8S 4955   2.824   2.699  14.232 -0.6448  2.1258  1.2817
   39DOPE   C29 4956   2.786   2.844  14.099 -0.6814  0.0431  0.1667
   39DOPE   H9R 4957   2.680   2.816  14.104 -0.5239 -1.1028 -1.9521
   39DOPE  C210 4958   2.824   2.953  14.027  0.0490  0.0018 -0.2113
   39DOPE  H10R 4959   2.739   3.015  13.995  0.0316 -0.0133 -0.1949
   39DOPE  C211 4960   2.966   3.004  14.008  0.4041 -0.9238  0.1200
   39DOPE  H11R 4961   2.994   2.970  13.906 -1.0768 -1.1799 -0.2097
   39DOPE  H11S 4962   3.016   2.949  14.091 -1.7962 -1.6882  0.9899
   39DOPE  C212 4963   2.980   3.159  14.014  0.0413  0.8256 -0.9508
   39DOPE  H12R 4964   2.938   3.198  14.109  1.1204 -2.1286  0.8785
   39DOPE  H12S 4965   2.922   3.199  13.928 -2.4374 -0.9306 -0.1985
   39DOPE  C213 4966   3.122   3.203  13.987 -0.0370 -0.2839 -0.3610
   39DOPE  H13R 4967   3.163   3.132  13.912  0.2218 -2.5909  1.8277
   39DOPE  H13S 4968   3.182   3.181  14.077 -1.2815 -0.9135  0.3467
   39DOPE  C214 4969   3.138   3.350  13.956 -0.1232 -0.7118  0.4347
   39DOPE  H14R 4970   3.113   3.414  14.043  0.7132 -0.6731  0.6542
   39DOPE  H14S 4971   3.051   3.373  13.890 -0.8821  0.0321  1.6438
   39DOPE  C215 4972   3.283   3.389  13.909  0.7183 -0.7934  0.4950
   39DOPE  H15R 4973   3.272   3.490  13.865  0.9897 -0.1374  1.8953
   39DOPE  H15S 4974   3.293   3.326  13.818 -1.0458  2.6063 -2.2829
   39DOPE  C216 4975   3.384   3.383  14.021 -0.5257 -0.3628  0.3028
   39DOPE  H16R 4976   3.377   3.278  14.055  2.4725 -1.2240 -1.3284
   39DOPE  H16S 4977   3.349   3.442  14.109  1.7298 -0.9727  1.6970
   39DOPE  C217 4978   3.532   3.416  13.985  0.8866  0.4826  0.1785
   39DOPE  H17R 4979   3.577   3.348  13.910 -1.1409  0.6204 -1.2555
   39DOPE  H17S 4980   3.594   3.388  14.073  0.1226 -0.8275  0.3254
   39DOPE  C218 4981   3.549   3.560  13.950  0.3397  0.0693 -0.1141
   39DOPE  H18R 4982   3.656   3.590  13.947  0.0645  1.3136  1.2626
   39DOPE  H18S 4983   3.503   3.616  14.034 -3.3724 -0.4096 -1.6113
   39DOPE  H18T 4984   3.503   3.589  13.853  2.0303  0.7298 -0.7645
   39DOPE   C33 4985   2.448   2.945  13.685  0.0987  0.0157  0.0603
   39DOPE   H3X 4986   2.440   2.838  13.658  0.4133 -0.2037  0.8148
   39DOPE   H3Y 4987   2.378   3.004  13.621  2.2952  1.4522 -1.1681
   39DOPE   C34 4988   2.418   2.982  13.831  0.6065  0.8646  0.6157
   39DOPE   H4X 4989   2.504   2.947  13.893 -0.7942  0.4765  2.4187
   39DOPE   H4Y 4990   2.423   3.093  13.827  0.9117  0.8190 -1.6956
   39DOPE   C35 4991   2.285   2.939  13.890 -0.3503 -0.3307  0.5847
   39DOPE   H5X 4992   2.262   2.838  13.850 -1.4114  0.6354 -1.3755
   39DOPE   H5Y 4993   2.206   3.003  13.845  0.5824 -1.0178 -2.2302
   39DOPE   C36 4994   2.295   2.923  14.041  0.3232 -0.2404 -0.5835
   39DOPE   H6X 4995   2.350   3.006  14.090  0.8953 -0.3394 -1.0380
   39DOPE   H6Y 4996   2.351   2.827  14.053  0.1632 -0.3437 -0.6510
   39DOPE   C37 4997   2.164   2.912  14.108 -0.1045 -0.0020  0.0463
   39DOPE   H7X 4998   2.105   3.003  14.082  0.7628  0.3146 -0.8658
   39DOPE   H7Y 4999   2.115   2.817  14.080 -0.2059 -0.2318  0.9577
   39DOPE   C38 5000   2.185   2.908  14.264 -0.4790  0.5886 -0.4429
   39DOPE   H8X 5001   2.086   2.925  14.311  0.0577  1.1236  0.5159
   39DOPE   H8Y 5002   2.221   3.009  14.294 -1.6654  1.1698 -0.8925
   39DOPE   C39 5003   2.254   2.787  14.312  0.4858  0.1113 -0.1566
   39DOPE   H9X 5004   2.189   2.700  14.327 -1.2665  1.6968  2.2965
   39DOPE  C310 5005   2.360   2.784  14.384 -0.5800 -0.3231  0.3852
   39DOPE  H10X 5006   2.393   2.686  14.420  3.4614  0.6136 -0.1853
   39DOPE  C311 5007   2.450   2.908  14.404 -0.6034 -0.4241  0.3041
   39DOPE  H11X 5008   2.487   2.950  14.308  1.5470  0.5820  1.4848
   39DOPE  H11Y 5009   2.391   2.994  14.442  1.7974  0.4939  2.2656
   39DOPE  C312 5010   2.569   2.881  14.505  0.2189  0.0236  0.5532
   39DOPE  H12X 5011   2.657   2.852  14.444  1.1814  2.1775  0.7959
   39DOPE  H12Y 5012   2.550   2.794  14.571 -1.0620 -1.2846 -1.4528
   39DOPE  C313 5013   2.605   3.009  14.579  0.0169 -0.0219 -0.3350
   39DOPE  H13X 5014   2.692   2.990  14.645 -1.6388 -1.4687  1.5508
   39DOPE  H13Y 5015   2.651   3.083  14.509  2.9862  1.1481  2.5726
   39DOPE  C314 5016   2.497   3.064  14.664 -1.0692 -0.3709  0.2734
   39DOPE  H14X 5017   2.453   2.977  14.717 -0.8114 -1.1427 -0.7486
   39DOPE  H14Y 5018   2.419   3.109  14.598  1.2122  0.6670 -1.8638
   39DOPE  C315 5019   2.547   3.178  14.754 -0.4079 -0.0810  0.0647
   39DOPE  H15X 5020   2.579   3.271  14.703 -0.2671  1.0392  2.0638
   39DOPE  H15Y 5021   2.632   3.145  14.819 -0.3673  2.8554  1.7073
   39DOPE  C316 5022   2.433   3.240  14.844  0.0146  0.5427  0.4030
   39DOPE  H16X 5023   2.364   3.167  14.891  0.0087 -0.1063 -0.5738
   39DOPE  H16Y 5024   2.362   3.288  14.774 -0.4216  1.5432  1.4940
   39DOPE  C317 5025   2.481   3.338  14.945 -0.3218 -0.6042 -0.0309
   39DOPE  H17X 5026   2.530   3.282  15.028  0.4826 -0.3451 -0.3279
   39DOPE  H17Y 5027   2.561   3.400  14.900 -2.3457  1.5116 -0.9024
   39DOPE  C318 5028   2.367   3.428  14.998  0.2736 -0.6738  0.4013
   39DOPE  H18X 5029   2.290   3.363  15.043 -0.9149  0.3035 -0.1494
   39DOPE  H18Y 5030   2.386   3.503  15.077 -3.1425  1.0027 -0.2011
   39DOPE  H18Z 5031   2.337   3.487  14.908  1.5487 -0.5257  0.0526
   40DOPE     N 5032   4.641   4.738  12.746 -0.6523  0.0632 -0.2131
   40DOPE   HN1 5033   4.580   4.720  12.664  0.1714 -0.8812 -0.6446
   40DOPE   HN2 5034   4.738   4.702  12.733  0.0347  1.6602  0.2011
   40DOPE   HN3 5035   4.616   4.689  12.834  3.4455  1.2669  1.9094
   40DOPE   C12 5036   4.674   4.880  12.783  0.3499 -0.4869  0.3956
   40DOPE  H12A 5037   4.575   4.929  12.796  0.6193 -0.0834  0.9648
   40DOPE  H12B 5038   4.722   4.923  12.693  0.7469  0.6241  1.1143
   40DOPE   C11 5039   4.756   4.899  12.916  0.5156  0.1792 -0.7602
   40DOPE  H11A 5040   4.695   4.868  13.003  1.0424 -0.9810 -0.7830
   40DOPE  H11B 5041   4.786   5.006  12.922  1.8248 -0.1942 -0.3027
   40DOPE     P 5042   5.016   4.868  12.954 -0.0723  0.0464  0.0352
   40DOPE   O13 5043   5.033   5.018  12.945  0.0927  0.2606  0.3550
   40DOPE   O14 5044   5.108   4.792  12.869 -0.4259  0.2535  1.0167
   40DOPE   O11 5045   5.035   4.817  13.105 -0.0204 -0.5438  0.7863
   40DOPE   O12 5046   4.875   4.816  12.913  0.0102 -0.2895  0.0612
   40DOPE    C1 5047   4.921   4.754  13.175 -0.6960 -0.3136  0.4621
   40DOPE    HA 5048   4.876   4.671  13.115  0.2758  0.8005 -1.9482
   40DOPE    HB 5049   4.849   4.838  13.180  0.2798  0.7834 -2.0876
   40DOPE    C2 5050   4.967   4.708  13.317  0.4694  0.5039  0.1986
   40DOPE    HS 5051   4.875   4.682  13.373 -0.1206  1.9452 -0.0333
   40DOPE   O21 5052   5.030   4.811  13.398  0.3385 -0.3597  0.0026
   40DOPE   C21 5053   4.967   4.918  13.424  0.2208  0.0169 -0.8548
   40DOPE   O22 5054   4.848   4.940  13.391 -0.3644  0.6156 -0.0360
   40DOPE   C22 5055   5.056   5.013  13.507 -0.6021 -0.1440  0.3928
   40DOPE   H2R 5056   5.144   5.021  13.440 -0.5549  0.3652  0.5075
   40DOPE   H2S 5057   5.073   4.968  13.607 -0.5085 -0.0739  0.4093
   40DOPE    C3 5058   5.055   4.587  13.295  0.3662  0.3455 -0.3286
   40DOPE    HX 5059   5.119   4.595  13.205 -2.4164 -0.9254 -2.5821
   40DOPE    HY 5060   4.991   4.498  13.277  0.2826 -0.1401  2.0184
   40DOPE   O31 5061   5.124   4.559  13.421  1.2174 -0.4602  0.3929
   40DOPE   C31 5062   5.247   4.609  13.430 -0.1825  0.4469 -0.4733
   40DOPE   O32 5063   5.314   4.666  13.341  0.3105  0.5119 -0.1919
   40DOPE   C32 5064   5.273   4.610  13.585 -0.3711  0.4348  0.2816
   40DOPE   H2X 5065   5.333   4.519  13.606  0.3840  0.5204 -1.3038
   40DOPE   H2Y 5066   5.340   4.699  13.588 -0.5158  0.5247  2.7331
   40DOPE   C23 5067   4.992   5.155  13.521 -0.6172  0.2253 -0.2348
   40DOPE   H3R 5068   4.890   5.139  13.562 -0.4374 -0.2441  0.0353
   40DOPE   H3S 5069   4.975   5.205  13.423  1.0678  2.6572  0.6282
   40DOPE   C24 5070   5.072   5.250  13.612  0.0568 -0.6985  0.1820
   40DOPE   H4R 5071   5.033   5.353  13.593 -0.7477 -0.6266  2.0806
   40DOPE   H4S 5072   5.182   5.252  13.597  0.2211  1.7994  1.1992
   40DOPE   C25 5073   5.050   5.226  13.766  0.2942 -0.3760 -0.2297
   40DOPE   H5R 5074   5.107   5.137  13.800 -2.5721 -3.0559 -1.9140
   40DOPE   H5S 5075   4.946   5.193  13.785  0.6807 -1.3819  0.2046
   40DOPE   C26 5076   5.061   5.352  13.853 -0.4743 -0.0573 -0.3766
   40DOPE   H6R 5077   5.003   5.438  13.815  0.0410  0.7471  0.5885
   40DOPE   H6S 5078   5.168   5.383  13.857 -0.7290  1.1924 -2.3983
   40DOPE   C27 5079   5.023   5.319  14.003 -0.1502 -0.1142 -0.1876
   40DOPE   H7R 5080   5.104   5.260  14.052 -1.0947  0.4223  2.1372
   40DOPE   H7S 5081   4.930   5.260  13.984 -1.3078  1.8906 -1.0727
   40DOPE   C28 5082   4.999   5.450  14.081 -0.2221 -0.1652  0.2987
   40DOPE   H8R 5083   5.094   5.505  14.063 -0.3818 -0.4210 -1.5287
   40DOPE   H8S 5084   4.989   5.431  14.190 -0.1092 -1.1967  0.1446
   40DOPE   C29 5085   4.870   5.524  14.039 -1.0475  0.3283  0.5766
   40DOPE   H9R 5086   4.781   5.461  14.054 -0.1808 -0.5602  2.2949
   40DOPE  C210 5087   4.868   5.651  14.007  0.2021  0.3095 -0.1908
   40DOPE  H10R 5088   4.770   5.686  13.971  0.6183 -0.7583 -2.5824
   40DOPE  C211 5089   4.974   5.757  14.005  0.3128  0.1885  0.4024
   40DOPE  H11R 5090   5.032   5.736  14.097 -0.6437  0.4431  1.0808
   40DOPE  H11S 5091   4.932   5.859  14.010 -1.7955 -0.5674 -0.6735
   40DOPE  C212 5092   5.063   5.738  13.877  0.8918  1.1666  0.2893
   40DOPE  H12R 5093   5.000   5.759  13.788  0.0437  0.9703  0.8332
   40DOPE  H12S 5094   5.085   5.630  13.869 -0.7212  0.3879  4.1442
   40DOPE  C213 5095   5.187   5.829  13.882  0.1335 -0.0924  0.2665
   40DOPE  H13R 5096   5.233   5.817  13.982 -0.3866  0.3783  0.5702
   40DOPE  H13S 5097   5.162   5.938  13.879 -1.2440 -0.2805  2.5009
   40DOPE  C214 5098   5.291   5.801  13.776 -0.8782 -0.3565  0.2508
   40DOPE  H14R 5099   5.362   5.885  13.764 -0.9726 -0.4424 -1.1105
   40DOPE  H14S 5100   5.232   5.784  13.683 -2.6048 -0.1541  1.2658
   40DOPE  C215 5101   5.367   5.678  13.819 -0.0450  0.8366  0.0293
   40DOPE  H15R 5102   5.322   5.623  13.904 -2.0073  1.8751 -0.2729
   40DOPE  H15S 5103   5.467   5.709  13.854  0.4587  0.0254 -0.6624
   40DOPE  C216 5104   5.391   5.589  13.702  0.0620  0.0834 -0.0661
   40DOPE  H16R 5105   5.458   5.625  13.622 -1.1069  0.8671 -0.7116
   40DOPE  H16S 5106   5.289   5.572  13.662 -0.8565  2.1961  1.2381
   40DOPE  C217 5107   5.448   5.451  13.742 -0.9256  0.4571  0.0838
   40DOPE  H17R 5108   5.368   5.417  13.812 -0.3743  1.8116  1.4509
   40DOPE  H17S 5109   5.546   5.459  13.792  0.3900  0.5226 -2.3760
   40DOPE  C218 5110   5.467   5.346  13.631  0.3622 -0.0995 -0.8796
   40DOPE  H18R 5111   5.552   5.376  13.567  1.2221 -0.5107  0.0394
   40DOPE  H18S 5112   5.377   5.329  13.568  0.3677  0.1892 -0.9688
   40DOPE  H18T 5113   5.487   5.246  13.674  0.7101  0.5482  0.5213
   40DOPE   C33 5114   5.150   4.638  13.686 -0.3936  0.3805  0.5521
   40DOPE   H3X 5115   5.111   4.545  13.734 -0.4565 -0.3467 -0.8431
   40DOPE   H3Y 5116   5.070   4.685  13.625 -0.3870 -1.1263 -0.6954
   40DOPE   C34 5117   5.178   4.733  13.797 -0.0730 -1.0511 -1.0054
   40DOPE   H4X 5118   5.265   4.689  13.849 -0.1453  2.0422  2.0711
   40DOPE   H4Y 5119   5.205   4.836  13.766  0.5650 -1.0879 -0.5922
   40DOPE   C35 5120   5.062   4.749  13.895  0.4344  0.0231  0.9769
   40DOPE   H5X 5121   5.028   4.645  13.917 -2.2083  0.5977  0.0057
   40DOPE   H5Y 5122   4.977   4.798  13.843  0.4047 -0.7173  0.3165
   40DOPE   C36 5123   5.090   4.835  14.019 -0.0386  0.7701 -0.2587
   40DOPE   H6X 5124   5.023   4.922  14.028  0.3627  1.1371 -0.7346
   40DOPE   H6Y 5125   5.190   4.884  14.013  0.1768  0.2191 -2.3568
   40DOPE   C37 5126   5.091   4.751  14.150 -0.0510 -0.1043  0.2957
   40DOPE   H7X 5127   4.992   4.701  14.158 -0.2915  0.2709 -0.3118
   40DOPE   H7Y 5128   5.166   4.669  14.140  0.7662  0.4912  1.3735
   40DOPE   C38 5129   5.117   4.829  14.281 -0.5317 -0.6091 -0.0372
   40DOPE   H8X 5130   5.201   4.902  14.274 -2.4317  1.8553  1.4609
   40DOPE   H8Y 5131   5.142   4.764  14.368  2.0565  0.3254  0.0286
   40DOPE   C39 5132   4.998   4.918  14.305  1.1901  0.3908 -0.0418
   40DOPE   H9X 5133   4.899   4.879  14.278  0.1820  3.0758 -0.5211
   40DOPE  C310 5134   4.991   5.036  14.359  0.2261 -0.2512 -0.3492
   40DOPE  H10X 5135   4.891   5.081  14.361  0.4549  0.2234  0.4363
   40DOPE  C311 5136   5.101   5.111  14.419  0.4056 -0.0440  0.2488
   40DOPE  H11X 5137   5.198   5.057  14.419  1.2939  1.4800 -0.1939
   40DOPE  H11Y 5138   5.129   5.204  14.365  0.4810  0.8966  1.8315
   40DOPE  C312 5139   5.087   5.145  14.571  0.3488 -0.4430  0.1705
   40DOPE  H12X 5140   4.998   5.207  14.596  0.5203 -0.2211  0.2237
   40DOPE  H12Y 5141   5.182   5.195  14.598  0.9994 -1.4589 -0.1829
   40DOPE  C313 5142   5.075   5.019  14.660 -0.7288 -0.2946 -0.0689
   40DOPE  H13X 5143   4.983   5.016  14.723  0.1724 -0.0377  1.3214
   40DOPE  H13Y 5144   5.065   4.928  14.598 -0.0188  0.2516 -1.0108
   40DOPE  C314 5145   5.182   5.010  14.766 -0.2642 -0.5109  0.3360
   40DOPE  H14X 5146   5.188   5.112  14.811  1.0389 -1.3342  2.1464
   40DOPE  H14Y 5147   5.279   4.989  14.717 -0.1521 -0.7491  0.6585
   40DOPE  C315 5148   5.155   4.902  14.868  0.7468 -0.1428 -0.4447
   40DOPE  H15X 5149   5.131   4.805  14.819  1.9369 -0.4164 -0.5096
   40DOPE  H15Y 5150   5.065   4.933  14.925  1.0685 -0.5847  0.3184
   40DOPE  C316 5151   5.273   4.882  14.969 -0.5092  0.3476 -0.3183
   40DOPE  H16X 5152   5.267   4.973  15.032 -0.1988  0.4518 -0.4379
   40DOPE  H16Y 5153   5.358   4.890  14.899  0.2966  1.7161  0.7675
   40DOPE  C317 5154   5.271   4.748  15.043  0.8204 -0.1451  0.6280
   40DOPE  H17X 5155   5.247   4.666  14.972  1.6221  1.4567 -1.6545
   40DOPE  H17Y 5156   5.369   4.736  15.093  0.5935 -1.1452  0.8350
   40DOPE  C318 5157   5.176   4.734  15.153 -0.5178  0.0017 -0.8319
   40DOPE  H18X 5158   5.139   4.629  15.153 -0.9679  0.0881 -3.7288
   40DOPE  H18Y 5159   5.218   4.758  15.253 -1.7869  0.7736 -0.4572
   40DOPE  H18Z 5160   5.085   4.797  15.149 -0.3318  0.4374  0.8879
   41DOPE     N 5161   2.893   3.219  13.101  0.3716  1.1052 -0.0263
   41DOPE   HN1 5162   2.901   3.138  13.035  2.8623  1.2935 -0.0493
   41DOPE   HN2 5163   2.937   3.294  13.044  1.9943 -0.6831 -1.2714
   41DOPE   HN3 5164   2.951   3.200  13.184 -1.0278 -0.3117  0.6870
   41DOPE   C12 5165   2.744   3.248  13.134 -0.4945  0.6730 -0.3355
   41DOPE  H12A 5166   2.750   3.342  13.193  1.2091  0.0322  0.5835
   41DOPE  H12B 5167   2.717   3.159  13.195  1.9802  0.3150  0.3622
   41DOPE   C11 5168   2.660   3.249  13.007  0.1719  0.2588  0.2953
   41DOPE  H11A 5169   2.684   3.340  12.948  1.6805 -0.3056  0.0008
   41DOPE  H11B 5170   2.556   3.240  13.046  0.7076 -1.3995  1.4539
   41DOPE     P 5171   2.586   3.058  12.839  0.0709 -0.3047 -0.0375
   41DOPE   O13 5172   2.630   2.920  12.814 -0.2238 -0.2662  0.2537
   41DOPE   O14 5173   2.561   3.147  12.719 -0.2913  0.0941 -0.0056
   41DOPE   O11 5174   2.454   3.058  12.926 -0.1692  0.4331 -0.2283
   41DOPE   O12 5175   2.691   3.130  12.929  0.0926  0.2106  0.2837
   41DOPE    C1 5176   2.428   2.965  13.026 -0.7597  0.7333  0.1718
   41DOPE    HA 5177   2.523   2.945  13.080 -0.0207  0.2686 -1.2616
   41DOPE    HB 5178   2.406   2.860  12.997  0.6472  0.3504  0.4257
   41DOPE    C2 5179   2.327   3.027  13.128 -0.4396  0.0462  0.1545
   41DOPE    HS 5180   2.243   3.052  13.059 -0.5880  1.3075  0.7748
   41DOPE   O21 5181   2.393   3.140  13.180 -0.5241 -0.4483  0.0443
   41DOPE   C21 5182   2.319   3.237  13.239  0.2225  0.2270 -0.1098
   41DOPE   O22 5183   2.201   3.246  13.223  0.3111 -0.1794  0.4949
   41DOPE   C22 5184   2.402   3.333  13.324  0.4154 -0.1060  0.0399
   41DOPE   H2R 5185   2.407   3.432  13.274 -0.3160 -0.5634 -0.9587
   41DOPE   H2S 5186   2.504   3.289  13.331  0.8792  0.7544 -1.0387
   41DOPE    C3 5187   2.278   2.927  13.239 -0.7797  0.2107  0.5541
   41DOPE    HX 5188   2.368   2.905  13.301  0.7102  1.7381 -0.9579
   41DOPE    HY 5189   2.242   2.832  13.195 -2.7473  1.2233 -0.1133
   41DOPE   O31 5190   2.188   2.992  13.325 -0.2940 -0.2774  0.0599
   41DOPE   C31 5191   2.057   2.961  13.312 -0.4152 -0.8044 -0.0847
   41DOPE   O32 5192   2.017   2.877  13.239  0.5471 -0.2915 -0.3048
   41DOPE   C32 5193   1.960   3.042  13.398  0.0798 -0.3046 -0.1636
   41DOPE   H2X 5194   1.968   3.150  13.374 -1.1287 -0.0595  0.4458
   41DOPE   H2Y 5195   1.859   3.019  13.357 -0.4260  1.2141  0.1689
   41DOPE   C23 5196   2.334   3.362  13.458 -0.2822 -0.5135 -0.3858
   41DOPE   H3R 5197   2.316   3.270  13.517  0.5063 -1.1900 -1.1565
   41DOPE   H3S 5198   2.233   3.404  13.442 -0.2021  0.0052  0.4603
   41DOPE   C24 5199   2.409   3.463  13.545  0.2589  0.5475 -0.0813
   41DOPE   H4R 5200   2.519   3.449  13.553  0.3005  0.9939  0.2157
   41DOPE   H4S 5201   2.379   3.461  13.652 -2.5074 -1.5482 -0.8065
   41DOPE   C25 5202   2.377   3.610  13.499 -0.1305  0.2657 -1.0643
   41DOPE   H5R 5203   2.268   3.629  13.507  0.0737  1.6549 -1.2939
   41DOPE   H5S 5204   2.408   3.617  13.392 -1.5754  0.1523 -1.5119
   41DOPE   C26 5205   2.452   3.714  13.584  0.2367 -0.0699  0.1782
   41DOPE   H6R 5206   2.558   3.688  13.569 -0.0301 -1.4102  0.4729
   41DOPE   H6S 5207   2.437   3.698  13.693 -0.6953 -1.9878 -0.1884
   41DOPE   C27 5208   2.425   3.866  13.550  0.3555  0.5966 -0.1379
   41DOPE   H7R 5209   2.318   3.883  13.575  0.7391  1.0917  1.2976
   41DOPE   H7S 5210   2.444   3.889  13.443 -0.0134 -0.0835 -0.3585
   41DOPE   C28 5211   2.512   3.961  13.638  0.3891 -0.2065 -0.2736
   41DOPE   H8R 5212   2.491   3.946  13.746 -0.1018  2.2834  0.0188
   41DOPE   H8S 5213   2.478   4.063  13.610 -1.3696 -0.4688  0.8199
   41DOPE   C29 5214   2.664   3.945  13.606 -0.8133 -0.2064 -0.5073
   41DOPE   H9R 5215   2.686   3.942  13.498  1.9887 -2.1802  0.0004
   41DOPE  C210 5216   2.766   3.946  13.693 -0.5950 -0.2656 -0.2803
   41DOPE  H10R 5217   2.869   3.953  13.653 -1.2140 -4.3876 -3.2231
   41DOPE  C211 5218   2.766   3.984  13.839 -0.2944  0.7600 -0.8614
   41DOPE  H11R 5219   2.780   3.890  13.895  0.2090  0.5571 -1.3181
   41DOPE  H11S 5220   2.672   4.015  13.890 -0.5879 -4.1781  2.1897
   41DOPE  C212 5221   2.878   4.089  13.853  0.0856 -0.4757  0.2868
   41DOPE  H12R 5222   2.863   4.180  13.789 -0.2130  0.4275  1.5976
   41DOPE  H12S 5223   2.973   4.048  13.813 -0.0959 -2.0221  1.4036
   41DOPE  C213 5224   2.924   4.144  13.991  0.0406  0.3663 -0.2152
   41DOPE  H13R 5225   2.943   4.058  14.059 -0.4068 -0.5706 -1.2523
   41DOPE  H13S 5226   2.838   4.186  14.047  1.4469  0.8014  1.7527
   41DOPE  C214 5227   3.045   4.235  13.991 -0.5663 -0.0393  0.5496
   41DOPE  H14R 5228   3.014   4.330  13.943  0.5577  0.5729  0.9979
   41DOPE  H14S 5229   3.133   4.182  13.948  0.0738  1.7529 -0.4403
   41DOPE  C215 5230   3.074   4.271  14.136  1.0600 -0.4363 -0.1644
   41DOPE  H15R 5231   3.104   4.177  14.186 -0.1724 -1.1335 -0.6831
   41DOPE  H15S 5232   2.973   4.296  14.175  1.2445 -0.1786  0.1552
   41DOPE  C216 5233   3.163   4.392  14.147 -0.2756  0.5214  0.1987
   41DOPE  H16R 5234   3.192   4.412  14.252  3.0932 -1.4604 -0.1891
   41DOPE  H16S 5235   3.118   4.480  14.098 -0.1770  0.0503 -0.7742
   41DOPE  C217 5236   3.296   4.376  14.082  0.1350 -0.2779 -0.5926
   41DOPE  H17R 5237   3.283   4.369  13.972  1.2061  2.3179 -0.9600
   41DOPE  H17S 5238   3.345   4.281  14.113 -1.2669 -0.3325  1.6726
   41DOPE  C218 5239   3.382   4.497  14.110 -0.3150  0.2038  0.0767
   41DOPE  H18R 5240   3.380   4.511  14.220  0.8743  2.0358 -0.0848
   41DOPE  H18S 5241   3.350   4.592  14.061 -1.1433  0.0284  0.2598
   41DOPE  H18T 5242   3.487   4.481  14.081 -0.0136  2.1116 -0.0349
   41DOPE   C33 5243   1.965   3.008  13.545  0.8562  0.3464 -0.0141
   41DOPE   H3X 5244   1.902   3.078  13.605  1.8029  1.1637  0.0466
   41DOPE   H3Y 5245   2.066   3.027  13.586  1.1640 -0.8871 -0.1705
   41DOPE   C34 5246   1.938   2.851  13.570  0.1900  0.5369 -0.2930
   41DOPE   H4X 5247   1.842   2.819  13.525 -0.5048 -0.0610  1.5369
   41DOPE   H4Y 5248   2.019   2.790  13.524 -1.0332 -0.9101 -0.5774
   41DOPE   C35 5249   1.921   2.826  13.725 -0.3521  0.1072 -0.1354
   41DOPE   H5X 5250   1.842   2.897  13.757 -0.6268  1.3573 -3.2550
   41DOPE   H5Y 5251   2.018   2.849  13.774 -0.3050  0.5361 -0.4237
   41DOPE   C36 5252   1.885   2.677  13.769  0.4657 -0.3208 -0.1194
   41DOPE   H6X 5253   1.968   2.610  13.738  1.2206 -0.1541  1.4572
   41DOPE   H6Y 5254   1.805   2.644  13.699  0.6624 -0.2329 -0.3871
   41DOPE   C37 5255   1.853   2.669  13.912 -0.7114  0.2111 -0.1189
   41DOPE   H7X 5256   1.936   2.720  13.964  0.8088 -1.5670 -0.6865
   41DOPE   H7Y 5257   1.763   2.730  13.934 -0.7772  0.2109 -0.3816
   41DOPE   C38 5258   1.833   2.538  13.990  0.0458 -0.2411  0.5695
   41DOPE   H8X 5259   1.810   2.566  14.095 -2.6275 -0.8332  0.2001
   41DOPE   H8Y 5260   1.930   2.483  13.986 -1.5567 -3.1829 -0.9064
   41DOPE   C39 5261   1.713   2.462  13.932 -0.3050  0.2311  0.2958
   41DOPE   H9X 5262   1.653   2.520  13.859  1.3262 -1.2544 -2.3613
   41DOPE  C310 5263   1.699   2.331  13.954  0.1507 -0.5421 -0.5801
   41DOPE  H10X 5264   1.636   2.265  13.892 -0.7266 -0.0477 -0.2445
   41DOPE  C311 5265   1.791   2.249  14.040 -0.1828 -0.0395  0.0811
   41DOPE  H11X 5266   1.837   2.308  14.122 -1.5908  1.6071 -0.2667
   41DOPE  H11Y 5267   1.733   2.164  14.082  0.3248 -0.6106 -0.3443
   41DOPE  C312 5268   1.905   2.178  13.972 -0.4455  0.1650  0.3490
   41DOPE  H12X 5269   1.963   2.129  14.054  0.7564  0.4838 -0.2853
   41DOPE  H12Y 5270   1.974   2.248  13.922 -0.4724 -0.5436 -0.7124
   41DOPE  C313 5271   1.867   2.070  13.869 -0.4161  0.3888 -0.2831
   41DOPE  H13X 5272   1.805   1.995  13.921 -0.9969  0.5533 -0.7372
   41DOPE  H13Y 5273   1.807   2.116  13.788 -1.7069  0.2830  0.5752
   41DOPE  C314 5274   1.986   1.984  13.815 -0.1241  0.1174 -0.3243
   41DOPE  H14X 5275   2.039   1.956  13.908 -1.6101 -1.9570 -0.0511
   41DOPE  H14Y 5276   2.058   2.038  13.749  1.0434 -1.6297 -0.5412
   41DOPE  C315 5277   1.919   1.872  13.737 -0.5428 -0.3293 -0.6806
   41DOPE  H15X 5278   1.881   1.920  13.645 -0.0242 -1.1582 -1.3454
   41DOPE  H15Y 5279   1.831   1.827  13.788 -0.0490  0.1297  0.6138
   41DOPE  C316 5280   2.017   1.763  13.708  0.6779 -0.1439  0.6483
   41DOPE  H16X 5281   2.069   1.731  13.801 -0.1102 -2.2486  0.4298
   41DOPE  H16Y 5282   2.090   1.804  13.635  0.2192  0.5828  0.5895
   41DOPE  C317 5283   1.955   1.631  13.638  0.3670  0.1128  0.0108
   41DOPE  H17X 5284   2.030   1.549  13.633  0.1429 -0.4470  3.2548
   41DOPE  H17Y 5285   1.875   1.590  13.704  1.5324 -1.1864  0.6635
   41DOPE  C318 5286   1.883   1.668  13.511  0.1501 -0.5363  0.3481
   41DOPE  H18X 5287   1.843   1.578  13.459  0.1917 -1.0921  1.2648
   41DOPE  H18Y 5288   1.803   1.741  13.538  1.1648  1.1512 -1.0115
   41DOPE  H18Z 5289   1.943   1.732  13.443 -0.5173  0.7978  0.9658
   42DOPE     N 5290   0.914   3.638  12.923 -0.1690  0.0288  0.6464
   42DOPE   HN1 5291   0.867   3.693  12.849 -1.6687 -0.5845  1.1072
   42DOPE   HN2 5292   0.834   3.586  12.965 -1.8327  0.5893 -1.6180
   42DOPE   HN3 5293   0.954   3.715  12.979 -1.9847  2.7741 -1.5653
   42DOPE   C12 5294   1.014   3.541  12.864 -0.3707  0.9123 -0.4031
   42DOPE  H12A 5295   1.079   3.590  12.789 -0.1922  0.5390 -0.4967
   42DOPE  H12B 5296   0.961   3.460  12.808  2.7222 -0.6187 -1.3072
   42DOPE   C11 5297   1.097   3.484  12.980  0.4200 -0.2989 -0.1992
   42DOPE  H11A 5298   1.159   3.399  12.945 -1.0779 -0.9887 -1.3271
   42DOPE  H11B 5299   1.034   3.454  13.066 -0.2605  0.7289 -0.3145
   42DOPE     P 5300   1.330   3.622  13.018 -0.1463  0.0448  0.0472
   42DOPE   O13 5301   1.367   3.760  13.061 -0.1050  0.4433  0.3562
   42DOPE   O14 5302   1.367   3.578  12.878 -0.0516 -0.1426  0.1781
   42DOPE   O11 5303   1.397   3.520  13.115 -0.0303 -0.0390 -0.2303
   42DOPE   O12 5304   1.173   3.592  13.026 -0.2422 -0.1407 -0.0972
   42DOPE    C1 5305   1.325   3.498  13.242 -0.7706  0.2923  0.6029
   42DOPE    HA 5306   1.221   3.462  13.230 -0.1898 -1.6709  0.9939
   42DOPE    HB 5307   1.326   3.587  13.308  1.4867  1.7295 -1.2400
   42DOPE    C2 5308   1.399   3.378  13.324  0.1305 -0.3402 -0.2631
   42DOPE    HS 5309   1.502   3.417  13.340 -0.7851  1.5664  1.6061
   42DOPE   O21 5310   1.385   3.257  13.245 -0.5841 -0.1923  0.3821
   42DOPE   C21 5311   1.483   3.179  13.257 -0.4635  0.3271  0.2507
   42DOPE   O22 5312   1.586   3.188  13.320 -0.2984 -0.2922  0.3197
   42DOPE   C22 5313   1.451   3.052  13.170 -0.1104  0.4188 -0.2433
   42DOPE   H2R 5314   1.499   3.068  13.072 -1.8543  2.1986 -0.8686
   42DOPE   H2S 5315   1.342   3.038  13.156 -0.0063 -2.1074  0.9395
   42DOPE    C3 5316   1.326   3.357  13.457  0.6380 -0.5061 -0.8814
   42DOPE    HX 5317   1.224   3.321  13.432 -0.2012  0.7195  0.6069
   42DOPE    HY 5318   1.315   3.459  13.500  1.2349 -0.2640 -1.2763
   42DOPE   O31 5319   1.400   3.255  13.538  0.2194  0.1458 -0.5420
   42DOPE   C31 5320   1.503   3.310  13.611 -0.9993  0.4834  0.6079
   42DOPE   O32 5321   1.518   3.428  13.630  0.8964 -0.2732  0.1834
   42DOPE   C32 5322   1.567   3.200  13.685 -0.4401 -0.7264 -0.4924
   42DOPE   H2X 5323   1.489   3.121  13.687 -1.1016 -0.0783  1.9210
   42DOPE   H2Y 5324   1.659   3.164  13.633  0.5479  0.5342  0.3232
   42DOPE   C23 5325   1.508   2.927  13.252 -0.2701 -0.8223  0.2892
   42DOPE   H3R 5326   1.619   2.916  13.249 -0.2078 -0.6214  1.4954
   42DOPE   H3S 5327   1.471   2.842  13.191  0.2743 -0.2241 -0.9195
   42DOPE   C24 5328   1.444   2.904  13.385  0.1496 -0.5273  0.1919
   42DOPE   H4R 5329   1.342   2.948  13.387  0.6078  0.5458  1.9450
   42DOPE   H4S 5330   1.503   2.951  13.466 -0.9329 -1.1130  1.3587
   42DOPE   C25 5331   1.433   2.752  13.419 -0.7495 -0.7377 -0.6802
   42DOPE   H5R 5332   1.538   2.716  13.426  0.6383  2.9516 -0.4881
   42DOPE   H5S 5333   1.362   2.700  13.352 -0.8818  0.2042 -1.2931
   42DOPE   C26 5334   1.385   2.733  13.566  0.0855  0.1822  0.1231
   42DOPE   H6R 5335   1.383   2.624  13.585  1.2386  0.2000  0.3852
   42DOPE   H6S 5336   1.280   2.771  13.578  0.3552  0.1497  3.6572
   42DOPE   C27 5337   1.474   2.784  13.681  0.7491 -0.4978  0.2320
   42DOPE   H7R 5338   1.474   2.895  13.688 -0.8751 -0.4888  0.6959
   42DOPE   H7S 5339   1.569   2.738  13.648  1.1788 -1.1253  2.2258
   42DOPE   C28 5340   1.438   2.721  13.816 -0.3169 -0.1939 -0.5324
   42DOPE   H8R 5341   1.500   2.786  13.881 -0.2472 -0.2545 -0.5375
   42DOPE   H8S 5342   1.471   2.615  13.817 -2.4176 -0.8835 -0.3117
   42DOPE   C29 5343   1.295   2.725  13.842  0.0596 -0.0079  0.9235
   42DOPE   H9R 5344   1.235   2.656  13.781  2.2407 -1.1182 -0.0619
   42DOPE  C210 5345   1.229   2.779  13.953 -0.3993  0.0203 -0.0308
   42DOPE  H10R 5346   1.122   2.759  13.967 -0.6410  1.1575 -0.1762
   42DOPE  C211 5347   1.302   2.855  14.058 -0.2285  0.1221 -0.8862
   42DOPE  H11R 5348   1.406   2.881  14.027  0.4410 -1.7669 -0.3565
   42DOPE  H11S 5349   1.314   2.797  14.151 -0.0545 -1.2852 -1.7629
   42DOPE  C212 5350   1.233   2.982  14.102  0.4371 -0.7303 -0.0687
   42DOPE  H12R 5351   1.231   3.058  14.020  0.1273 -2.1893 -1.4638
   42DOPE  H12S 5352   1.276   3.032  14.191  0.0196 -2.0524  0.8887
   42DOPE  C213 5353   1.083   2.966  14.134  0.6367 -0.5980 -0.6269
   42DOPE  H13R 5354   1.053   2.883  14.202 -0.7456  1.3808  1.2794
   42DOPE  H13S 5355   1.036   2.936  14.037  2.3443  0.1458 -1.7216
   42DOPE  C214 5356   1.017   3.090  14.192 -0.0354 -0.7984  0.2702
   42DOPE  H14R 5357   1.044   3.180  14.132 -1.3670 -1.8526 -2.0477
   42DOPE  H14S 5358   1.057   3.109  14.294  1.9274 -2.1985 -0.1836
   42DOPE  C215 5359   0.866   3.083  14.191  0.2534 -0.0382 -0.3814
   42DOPE  H15R 5360   0.833   2.991  14.244  0.6715  0.8371  1.4825
   42DOPE  H15S 5361   0.831   3.079  14.085 -1.6696 -0.8929  0.2450
   42DOPE  C216 5362   0.791   3.202  14.247 -0.0583 -0.0698  0.3689
   42DOPE  H16R 5363   0.825   3.204  14.353  0.7302  0.8699  0.1062
   42DOPE  H16S 5364   0.682   3.179  14.248 -0.2744  0.8735 -0.5008
   42DOPE  C217 5365   0.826   3.340  14.175 -0.4170 -0.0065  0.3917
   42DOPE  H17R 5366   0.799   3.341  14.067 -1.2800 -0.5744  0.5960
   42DOPE  H17S 5367   0.935   3.360  14.189 -0.1031 -0.6922 -0.8979
   42DOPE  C218 5368   0.757   3.468  14.242  0.0093  0.1564  0.6526
   42DOPE  H18R 5369   0.657   3.481  14.197  0.5867 -0.5701 -0.9526
   42DOPE  H18S 5370   0.820   3.558  14.225  0.9855 -0.6742 -0.3293
   42DOPE  H18T 5371   0.739   3.454  14.351 -0.4733  2.3544  0.8910
   42DOPE   C33 5372   1.603   3.249  13.824 -0.6186  0.3792  0.0949
   42DOPE   H3X 5373   1.511   3.266  13.885 -0.8821  0.4741 -0.3239
   42DOPE   H3Y 5374   1.665   3.341  13.819  0.9547 -0.6814 -0.8989
   42DOPE   C34 5375   1.696   3.140  13.885  0.6777 -0.3290 -0.0211
   42DOPE   H4X 5376   1.633   3.049  13.877  0.2493 -0.0164 -0.2353
   42DOPE   H4Y 5377   1.792   3.121  13.832  0.0945 -0.4933 -1.0469
   42DOPE   C35 5378   1.710   3.173  14.031 -0.7690  0.3825  0.3331
   42DOPE   H5X 5379   1.623   3.206  14.090 -2.1162 -0.2231 -1.2445
   42DOPE   H5Y 5380   1.783   3.256  14.038 -2.9499  2.3399  0.7027
   42DOPE   C36 5381   1.788   3.050  14.099 -0.1236  0.3980  0.1807
   42DOPE   H6X 5382   1.847   3.091  14.184  1.9776 -1.1774 -0.4275
   42DOPE   H6Y 5383   1.865   3.028  14.022 -0.8680  0.0478 -0.4727
   42DOPE   C37 5384   1.717   2.921  14.135  0.2829 -0.1204 -0.2927
   42DOPE   H7X 5385   1.671   2.870  14.047  1.5694 -0.1766 -0.9470
   42DOPE   H7Y 5386   1.801   2.854  14.162  0.4262  0.1998  0.0595
   42DOPE   C38 5387   1.609   2.952  14.239 -0.0426 -0.5240  0.1332
   42DOPE   H8X 5388   1.519   2.982  14.182  0.5160  0.1961 -0.3988
   42DOPE   H8Y 5389   1.643   3.038  14.302  0.6208  1.4718 -2.7595
   42DOPE   C39 5390   1.568   2.831  14.316  0.6381 -0.3088 -0.5793
   42DOPE   H9X 5391   1.577   2.737  14.259  0.2482 -0.6835 -0.0421
   42DOPE  C310 5392   1.527   2.822  14.444  0.6521 -0.1158  0.6023
   42DOPE  H10X 5393   1.494   2.730  14.494  2.9722  0.0430  2.6229
   42DOPE  C311 5394   1.527   2.939  14.536 -0.0755  0.6143  0.0211
   42DOPE  H11X 5395   1.619   2.932  14.598 -0.5486  0.0023  0.6764
   42DOPE  H11Y 5396   1.525   3.038  14.486 -1.2414  0.6358  0.0828
   42DOPE  C312 5397   1.403   2.939  14.628 -0.1868  0.0559 -0.5166
   42DOPE  H12X 5398   1.423   3.015  14.707 -2.0470  0.4755 -0.3902
   42DOPE  H12Y 5399   1.395   2.835  14.667 -0.2101 -0.0502 -0.8047
   42DOPE  C313 5400   1.274   2.985  14.557 -0.6036 -0.4691  1.0262
   42DOPE  H13X 5401   1.307   3.085  14.520  2.5725 -1.0143  2.0752
   42DOPE  H13Y 5402   1.235   2.924  14.473  0.1317  0.5626 -0.0889
   42DOPE  C314 5403   1.155   3.009  14.654 -0.5629 -0.7598  0.0848
   42DOPE  H14X 5404   1.183   3.088  14.726 -0.3974 -0.0906 -0.6944
   42DOPE  H14Y 5405   1.154   2.914  14.712  1.8071 -1.4973 -0.9677
   42DOPE  C315 5406   1.015   3.026  14.594  0.2172 -0.1512 -0.3564
   42DOPE  H15X 5407   1.016   3.097  14.509  0.4392 -0.2915 -0.4753
   42DOPE  H15Y 5408   0.958   3.082  14.670 -1.4995  1.1774 -2.4990
   42DOPE  C316 5409   0.946   2.893  14.541  0.3934  0.0895 -0.7751
   42DOPE  H16X 5410   0.961   2.817  14.621  0.9558  1.1663  0.1703
   42DOPE  H16Y 5411   0.988   2.846  14.450  1.0923 -0.0363 -0.4000
   42DOPE  C317 5412   0.795   2.915  14.528 -0.2095 -0.0231  0.2342
   42DOPE  H17X 5413   0.772   3.016  14.488  0.2252 -1.2338 -3.4762
   42DOPE  H17Y 5414   0.740   2.850  14.456  1.5393 -3.0386  1.4450
   42DOPE  C318 5415   0.718   2.907  14.667 -0.1059 -0.4625  0.6544
   42DOPE  H18X 5416   0.611   2.902  14.635 -0.6640 -1.0453  2.5038
   42DOPE  H18Y 5417   0.744   2.811  14.716  0.1514 -1.6997 -1.7438
   42DOPE  H18Z 5418   0.745   2.997  14.726  3.1320 -0.6316 -0.3914
   43DOPE     N 5419   2.624   1.799  12.893  0.0848 -0.1185  0.6417
   43DOPE   HN1 5420   2.711   1.810  12.838 -1.5655 -0.5910 -2.2951
   43DOPE   HN2 5421   2.615   1.861  12.976  2.0713  0.7760  0.2363
   43DOPE   HN3 5422   2.626   1.701  12.930 -1.1628 -0.7735 -0.9037
   43DOPE   C12 5423   2.522   1.802  12.788  0.5921 -0.5872 -0.6222
   43DOPE  H12A 5424   2.546   1.723  12.713 -3.4678 -1.1580 -1.5331
   43DOPE  H12B 5425   2.519   1.903  12.744  1.5819  0.2982  1.2167
   43DOPE   C11 5426   2.382   1.769  12.842 -0.3271 -0.0691 -0.3447
   43DOPE  H11A 5427   2.319   1.759  12.751 -0.2483 -0.3279 -0.3691
   43DOPE  H11B 5428   2.359   1.859  12.904 -0.0730 -0.6562  0.6285
   43DOPE     P 5429   2.264   1.627  13.022 -0.0983 -0.4025 -0.1053
   43DOPE   O13 5430   2.281   1.491  13.079 -0.2094  0.0598  0.6385
   43DOPE   O14 5431   2.142   1.667  12.953 -0.0039  0.4679 -0.6980
   43DOPE   O11 5432   2.300   1.738  13.140 -0.3368 -0.2513  0.3556
   43DOPE   O12 5433   2.379   1.657  12.928  0.1687 -0.0581  0.3699
   43DOPE    C1 5434   2.436   1.755  13.183 -0.2469 -0.3390 -0.0683
   43DOPE    HA 5435   2.455   1.864  13.179 -1.1306 -0.1780 -0.1021
   43DOPE    HB 5436   2.506   1.704  13.114 -1.7856  0.2913 -2.2198
   43DOPE    C2 5437   2.451   1.708  13.332 -0.4160 -0.3512  0.2589
   43DOPE    HS 5438   2.526   1.779  13.371 -1.0310  0.2345  0.3942
   43DOPE   O21 5439   2.498   1.571  13.322 -0.1971  0.2830 -0.0883
   43DOPE   C21 5440   2.622   1.557  13.271 -0.3165  0.1687 -0.6583
   43DOPE   O22 5441   2.697   1.646  13.246  0.6080 -0.1943  0.1466
   43DOPE   C22 5442   2.666   1.416  13.248  0.2751  0.9700 -0.1104
   43DOPE   H2R 5443   2.697   1.414  13.142 -0.1081 -0.8289 -0.2249
   43DOPE   H2S 5444   2.573   1.357  13.265  0.2664  1.2505  0.9142
   43DOPE    C3 5445   2.327   1.736  13.422 -0.1309  0.1311  0.2091
   43DOPE    HX 5446   2.235   1.688  13.381  1.2209 -2.7846  0.3062
   43DOPE    HY 5447   2.294   1.842  13.420 -1.0048 -0.1273  0.4128
   43DOPE   O31 5448   2.351   1.703  13.561  0.7533 -0.6911 -0.2567
   43DOPE   C31 5449   2.326   1.580  13.597  0.0522  0.6568 -0.2580
   43DOPE   O32 5450   2.256   1.500  13.532  0.1542 -0.2972  0.2065
   43DOPE   C32 5451   2.379   1.552  13.743  0.0500 -0.8438 -0.0404
   43DOPE   H2X 5452   2.470   1.614  13.761  0.1705 -1.5248  1.9942
   43DOPE   H2Y 5453   2.301   1.598  13.808  1.2503  1.8279 -0.3336
   43DOPE   C23 5454   2.784   1.372  13.338 -0.3968  0.0910 -0.0355
   43DOPE   H3R 5455   2.867   1.444  13.324 -2.0769  2.0996 -0.2042
   43DOPE   H3S 5456   2.798   1.271  13.293 -0.9154  0.3005 -0.6862
   43DOPE   C24 5457   2.742   1.349  13.490 -0.0422  0.2300  0.2260
   43DOPE   H4R 5458   2.662   1.272  13.486  1.2216 -1.0639 -1.5916
   43DOPE   H4S 5459   2.696   1.437  13.540  0.1138 -1.4728  3.5973
   43DOPE   C25 5460   2.870   1.301  13.566  0.5756 -0.4103 -0.6707
   43DOPE   H5R 5461   2.958   1.368  13.558  1.0100 -0.7355  0.9776
   43DOPE   H5S 5462   2.908   1.219  13.502 -2.0979 -3.1721  0.9951
   43DOPE   C26 5463   2.838   1.270  13.720 -0.7488 -0.0228  0.3746
   43DOPE   H6R 5464   2.752   1.199  13.720 -0.0572 -0.9005  1.4422
   43DOPE   H6S 5465   2.809   1.361  13.776  0.6922  1.1172 -0.6564
   43DOPE   C27 5466   2.966   1.213  13.787  0.8450 -0.3584 -0.2787
   43DOPE   H7R 5467   3.054   1.279  13.769  0.5132  0.4206  0.8927
   43DOPE   H7S 5468   2.997   1.118  13.738 -1.8758 -2.1767  1.3181
   43DOPE   C28 5469   2.953   1.203  13.948 -0.5374  0.0579  0.4435
   43DOPE   H8R 5470   3.032   1.132  13.981 -1.3756 -0.0609  2.2790
   43DOPE   H8S 5471   2.860   1.147  13.973 -1.9194  0.7107 -2.6492
   43DOPE   C29 5472   2.961   1.335  14.021 -0.1886 -0.3254  0.8780
   43DOPE   H9R 5473   2.895   1.415  13.985 -1.4687 -1.1664  1.2748
   43DOPE  C210 5474   3.056   1.368  14.111 -0.5390 -0.7592 -0.1700
   43DOPE  H10R 5475   3.063   1.475  14.137 -0.0310 -1.1830  1.5198
   43DOPE  C211 5476   3.139   1.267  14.196 -0.0256 -0.6021  0.9781
   43DOPE  H11R 5477   3.224   1.326  14.238  0.6781 -0.5651 -0.4485
   43DOPE  H11S 5478   3.189   1.200  14.122 -2.2666 -0.8386 -0.4118
   43DOPE  C212 5479   3.059   1.189  14.297 -0.2060 -0.0945 -0.4361
   43DOPE  H12R 5480   3.104   1.095  14.334 -1.6147  0.5959  3.5035
   43DOPE  H12S 5481   2.969   1.145  14.249 -2.6344  2.0499  1.8361
   43DOPE  C213 5482   3.008   1.253  14.428  0.1036  0.2674  0.8346
   43DOPE  H13R 5483   2.975   1.355  14.398  0.3490 -0.2070 -1.2079
   43DOPE  H13S 5484   3.097   1.267  14.493  3.0177 -0.6602 -2.6344
   43DOPE  C214 5485   2.914   1.163  14.501  0.4206  0.1589 -0.0255
   43DOPE  H14R 5486   2.956   1.062  14.519 -1.0207 -0.6256 -0.8336
   43DOPE  H14S 5487   2.830   1.140  14.431  1.1744 -1.7816 -0.3589
   43DOPE  C215 5488   2.852   1.225  14.627 -0.0354 -0.4065  0.2239
   43DOPE  H15R 5489   2.762   1.168  14.660  0.7018 -1.1527  0.9786
   43DOPE  H15S 5490   2.809   1.322  14.592  2.4848 -0.1919 -2.7327
   43DOPE  C216 5491   2.953   1.225  14.741  0.0047 -0.0790 -0.6342
   43DOPE  H16R 5492   3.041   1.287  14.714 -0.8259  1.4042 -0.0962
   43DOPE  H16S 5493   2.988   1.121  14.751  0.0440  0.0114  0.2166
   43DOPE  C217 5494   2.894   1.268  14.873 -0.1290  0.1963 -0.2580
   43DOPE  H17R 5495   2.984   1.258  14.938  0.9519  1.0221 -1.5482
   43DOPE  H17S 5496   2.815   1.203  14.915  0.2372  0.1092  0.3061
   43DOPE  C218 5497   2.842   1.415  14.870 -0.1094 -0.3949  0.0777
   43DOPE  H18R 5498   2.803   1.443  14.970 -0.4123 -0.9936  0.1361
   43DOPE  H18S 5499   2.744   1.430  14.819 -1.4232 -2.1732  1.9157
   43DOPE  H18T 5500   2.921   1.484  14.833 -0.6006 -0.4171 -1.0730
   43DOPE   C33 5501   2.408   1.407  13.780 -0.5059 -0.2592  0.0616
   43DOPE   H3X 5502   2.502   1.380  13.727 -0.4639 -0.6090  0.3103
   43DOPE   H3Y 5503   2.328   1.339  13.742 -0.6111 -0.8815  1.3633
   43DOPE   C34 5504   2.442   1.381  13.931  0.9815  0.3317  1.2056
   43DOPE   H4X 5505   2.349   1.406  13.985  1.2977  1.7242  1.1623
   43DOPE   H4Y 5506   2.468   1.274  13.942  0.9837  0.1093 -0.6474
   43DOPE   C35 5507   2.554   1.470  13.980  0.0035 -0.5900 -0.1083
   43DOPE   H5X 5508   2.511   1.572  13.977 -1.2910 -1.1055  0.1983
   43DOPE   H5Y 5509   2.650   1.464  13.925  0.4303 -1.8649  0.7160
   43DOPE   C36 5510   2.589   1.442  14.126 -0.7945 -0.1387  0.3762
   43DOPE   H6X 5511   2.645   1.348  14.148 -0.9442 -0.3142  0.0195
   43DOPE   H6Y 5512   2.491   1.443  14.178 -0.7391  1.0751  0.4794
   43DOPE   C37 5513   2.677   1.560  14.193  0.0732 -1.0199  0.4029
   43DOPE   H7X 5514   2.753   1.604  14.125  0.3339  0.5048  1.6030
   43DOPE   H7Y 5515   2.608   1.641  14.223  0.2188 -1.0388  0.8060
   43DOPE   C38 5516   2.755   1.510  14.318 -0.0488  0.0504  0.4609
   43DOPE   H8X 5517   2.828   1.583  14.359  1.7081 -0.6015 -1.3118
   43DOPE   H8Y 5518   2.824   1.431  14.284  0.0115  1.0397 -1.8907
   43DOPE   C39 5519   2.667   1.462  14.425  0.3075 -0.6135 -0.1577
   43DOPE   H9X 5520   2.656   1.353  14.435  0.5456 -0.6352 -0.1100
   43DOPE  C310 5521   2.611   1.542  14.523  0.5026  0.0547  0.5803
   43DOPE  H10X 5522   2.536   1.499  14.591  0.4976 -0.2475  0.3888
   43DOPE  C311 5523   2.618   1.692  14.532  1.0490  0.0122  0.7099
   43DOPE  H11X 5524   2.698   1.727  14.600 -0.7394  3.4088  1.3222
   43DOPE  H11Y 5525   2.620   1.732  14.428 -0.5514 -1.2116  0.1634
   43DOPE  C312 5526   2.487   1.752  14.594  0.0004 -0.6287  0.0109
   43DOPE  H12X 5527   2.483   1.722  14.701  4.5746  3.4534  1.7111
   43DOPE  H12Y 5528   2.404   1.716  14.531 -0.7974  0.9063  0.1384
   43DOPE  C313 5529   2.475   1.903  14.587 -0.2854 -0.3004 -0.6673
   43DOPE  H13X 5530   2.555   1.964  14.633 -2.1305  0.7019  1.4356
   43DOPE  H13Y 5531   2.484   1.931  14.480 -1.8923  0.2958 -0.6808
   43DOPE  C314 5532   2.335   1.951  14.632  0.2560  0.4634  1.2626
   43DOPE  H14X 5533   2.256   1.877  14.605 -0.2886  1.2381  0.6522
   43DOPE  H14Y 5534   2.306   2.044  14.578  0.0514 -1.0421 -1.4329
   43DOPE  C315 5535   2.333   1.972  14.782  0.2800  0.1899 -0.4328
   43DOPE  H15X 5536   2.413   2.042  14.816  1.2352 -0.9818 -0.2142
   43DOPE  H15Y 5537   2.362   1.879  14.835  1.3562  0.1116 -1.1269
   43DOPE  C316 5538   2.193   2.007  14.831 -0.5965  0.7324  0.0475
   43DOPE  H16X 5539   2.126   1.927  14.791  0.7418 -0.7057  0.5584
   43DOPE  H16Y 5540   2.146   2.098  14.788  0.1251  1.0975  0.0270
   43DOPE  C317 5541   2.183   1.993  14.984 -0.4535  0.4877  0.0987
   43DOPE  H17X 5542   2.073   2.001  15.000 -0.6788 -1.4745 -0.3015
   43DOPE  H17Y 5543   2.204   1.886  15.000 -1.1592  0.2873 -0.2877
   43DOPE  C318 5544   2.270   2.092  15.064  0.4708  0.1041 -0.7451
   43DOPE  H18X 5545   2.241   2.080  15.171 -1.2746  1.8247 -0.9698
   43DOPE  H18Y 5546   2.377   2.071  15.045  0.6760  0.6648 -0.2340
   43DOPE  H18Z 5547   2.249   2.194  15.027 -2.1063  0.3824  1.1869
   44DOPE     N 5548   4.339   7.044  12.984  0.1467  0.4228  0.9143
   44DOPE   HN1 5549   4.288   7.111  13.045 -1.1212  0.3710 -0.0666
   44DOPE   HN2 5550   4.364   6.956  13.034 -1.4409 -1.2684 -1.0808
   44DOPE   HN3 5551   4.430   7.087  12.958 -0.5622  1.4470  0.0431
   44DOPE   C12 5552   4.257   7.002  12.858  0.4697  0.4239 -0.8645
   44DOPE  H12A 5553   4.156   6.977  12.895  1.6418 -1.4978  1.2299
   44DOPE  H12B 5554   4.312   6.911  12.826  1.2439  0.4197  0.3943
   44DOPE   C11 5555   4.252   7.119  12.758  0.0150  0.4256  0.3607
   44DOPE  H11A 5556   4.170   7.093  12.687  1.0093 -0.2146 -0.5841
   44DOPE  H11B 5557   4.355   7.123  12.717 -1.3611  1.4319 -3.4035
   44DOPE     P 5558   4.183   7.381  12.754 -0.0061 -0.1649 -0.0953
   44DOPE   O13 5559   4.045   7.370  12.697 -0.0304  0.3656  0.4706
   44DOPE   O14 5560   4.292   7.420  12.666  0.1741  0.3416  0.2428
   44DOPE   O11 5561   4.173   7.488  12.869  0.0181  0.3081  0.5302
   44DOPE   O12 5562   4.219   7.241  12.822  0.0176  0.4192 -0.2541
   44DOPE    C1 5563   4.173   7.445  13.006 -0.1689 -0.4017  0.1695
   44DOPE    HA 5564   4.116   7.352  13.024 -0.7985 -0.0304  0.1361
   44DOPE    HB 5565   4.123   7.523  13.067  1.3305  0.0398  0.8942
   44DOPE    C2 5566   4.317   7.445  13.073  0.0836 -0.0324  0.2046
   44DOPE    HS 5567   4.374   7.362  13.027 -0.9777 -1.4338  1.3561
   44DOPE   O21 5568   4.310   7.425  13.214  0.0365 -0.0662 -0.2335
   44DOPE   C21 5569   4.258   7.312  13.255  0.4632 -0.3911 -0.2073
   44DOPE   O22 5570   4.242   7.217  13.182 -0.1644 -0.5992  0.1391
   44DOPE   C22 5571   4.229   7.313  13.409 -0.3626  0.5540  0.4171
   44DOPE   H2R 5572   4.206   7.417  13.441  0.4141  1.3334 -1.4415
   44DOPE   H2S 5573   4.324   7.295  13.464 -0.2591 -1.8901 -0.4669
   44DOPE    C3 5574   4.391   7.581  13.045 -0.8751  0.0388  0.5375
   44DOPE    HX 5575   4.327   7.657  13.095 -1.2950  0.3014 -0.3667
   44DOPE    HY 5576   4.390   7.582  12.934 -0.7378 -1.4001  0.5042
   44DOPE   O31 5577   4.522   7.584  13.107 -0.2918 -0.1350  0.3923
   44DOPE   C31 5578   4.604   7.681  13.052  0.4569 -0.0750  0.2616
   44DOPE   O32 5579   4.572   7.753  12.962  0.6646  0.6299 -0.4552
   44DOPE   C32 5580   4.740   7.660  13.113 -0.9925  0.8777 -0.0758
   44DOPE   H2X 5581   4.747   7.567  13.173 -0.8670  1.1004  0.2579
   44DOPE   H2Y 5582   4.815   7.637  13.035 -0.5812 -0.1590  0.6060
   44DOPE   C23 5583   4.115   7.227  13.460  0.1749 -1.2740  0.4172
   44DOPE   H3R 5584   4.112   7.244  13.569 -0.9223 -1.0105  0.3576
   44DOPE   H3S 5585   4.141   7.121  13.438  0.4042 -1.5466  1.9309
   44DOPE   C24 5586   3.973   7.265  13.410  0.0195  0.6221  0.8889
   44DOPE   H4R 5587   3.967   7.267  13.300  1.4712 -1.8430  0.6865
   44DOPE   H4S 5588   3.948   7.357  13.467  1.6341  1.4681  0.2947
   44DOPE   C25 5589   3.855   7.168  13.451 -0.4953 -0.5926  0.3845
   44DOPE   H5R 5590   3.871   7.126  13.553 -0.2188 -1.3492  0.0349
   44DOPE   H5S 5591   3.860   7.076  13.389 -0.5213 -0.1632 -0.2579
   44DOPE   C26 5592   3.713   7.233  13.454 -0.0430  0.4238  0.1476
   44DOPE   H6R 5593   3.725   7.321  13.521  0.7111  0.3833  0.0802
   44DOPE   H6S 5594   3.640   7.164  13.501  1.8070 -2.5105 -0.9842
   44DOPE   C27 5595   3.654   7.297  13.336 -0.7500 -0.4724 -0.0116
   44DOPE   H7R 5596   3.629   7.222  13.258 -2.1343 -1.4153  1.2996
   44DOPE   H7S 5597   3.717   7.376  13.289  0.5513 -0.9118  0.9374
   44DOPE   C28 5598   3.509   7.350  13.363  0.2554 -0.0161  0.0829
   44DOPE   H8R 5599   3.483   7.438  13.300 -1.5602  0.2386  1.0938
   44DOPE   H8S 5600   3.486   7.386  13.466  0.2620  0.4128 -0.0637
   44DOPE   C29 5601   3.404   7.246  13.317 -0.2282 -0.1724 -0.8422
   44DOPE   H9R 5602   3.399   7.230  13.208  1.9581  0.0622 -1.0263
   44DOPE  C210 5603   3.323   7.174  13.395 -0.5055 -0.3520  0.2338
   44DOPE  H10R 5604   3.263   7.098  13.343 -0.4879 -1.8616  2.2629
   44DOPE  C211 5605   3.319   7.180  13.552 -0.9401  0.4515  0.0282
   44DOPE  H11R 5606   3.217   7.210  13.587 -1.2346  1.9284 -1.9013
   44DOPE  H11S 5607   3.396   7.253  13.585  1.1901 -0.1714 -3.1281
   44DOPE  C212 5608   3.343   7.045  13.614 -0.1994  1.2097  0.2118
   44DOPE  H12R 5609   3.442   7.006  13.584 -1.1378 -0.6739 -0.5501
   44DOPE  H12S 5610   3.272   6.977  13.563  1.0403 -0.8222  1.0845
   44DOPE  C213 5611   3.312   7.049  13.766 -1.1038  0.1259 -0.5316
   44DOPE  H13R 5612   3.333   6.944  13.798  0.3630  0.8180  0.9580
   44DOPE  H13S 5613   3.203   7.067  13.779 -1.2445 -1.2633  0.5062
   44DOPE  C214 5614   3.386   7.157  13.844 -0.6703 -0.1255 -0.0214
   44DOPE  H14R 5615   3.367   7.260  13.806 -0.8058 -0.2284 -0.2333
   44DOPE  H14S 5616   3.493   7.138  13.819 -0.9964  0.8378 -2.3959
   44DOPE  C215 5617   3.374   7.161  14.000  0.0103 -0.2196 -0.8136
   44DOPE  H15R 5618   3.272   7.199  14.019  0.1140 -1.1075  2.0248
   44DOPE  H15S 5619   3.449   7.233  14.040  0.1623 -0.0692 -1.3679
   44DOPE  C216 5620   3.398   7.028  14.071 -0.6049 -0.2181  0.0734
   44DOPE  H16R 5621   3.502   6.995  14.053  0.0403  1.7937 -0.0748
   44DOPE  H16S 5622   3.327   6.958  14.021 -0.0495  1.7373 -3.7751
   44DOPE  C217 5623   3.370   7.044  14.215 -0.2073  0.2074  0.2003
   44DOPE  H17R 5624   3.261   7.042  14.236 -0.0627 -1.2067  1.0083
   44DOPE  H17S 5625   3.399   7.145  14.252 -1.3852  0.4997  0.3690
   44DOPE  C218 5626   3.417   6.928  14.309 -0.2122  0.7937 -0.1522
   44DOPE  H18R 5627   3.528   6.923  14.310 -0.2535 -0.1838  1.3255
   44DOPE  H18S 5628   3.371   6.838  14.263  2.0925  0.3767 -1.8190
   44DOPE  H18T 5629   3.380   6.931  14.413 -0.3179 -0.5526 -0.1317
   44DOPE   C33 5630   4.776   7.796  13.188 -0.5293  0.2567  0.3959
   44DOPE   H3X 5631   4.784   7.879  13.114 -1.3792  0.0453  0.0596
   44DOPE   H3Y 5632   4.878   7.785  13.229 -0.4873  2.3720  1.0042
   44DOPE   C34 5633   4.672   7.836  13.294 -0.4190  0.3988  0.9572
   44DOPE   H4X 5634   4.569   7.819  13.255  1.1445 -0.5767 -3.3109
   44DOPE   H4Y 5635   4.679   7.758  13.372  0.7169 -2.7414 -2.0127
   44DOPE   C35 5636   4.698   7.978  13.347  0.2036  0.2150 -0.2549
   44DOPE   H5X 5637   4.716   8.053  13.267  0.0929 -1.2439 -1.7039
   44DOPE   H5Y 5638   4.780   7.987  13.422 -0.2775  1.8462  0.1205
   44DOPE   C36 5639   4.577   8.024  13.425 -0.3393 -0.6790 -0.1099
   44DOPE   H6X 5640   4.487   8.022  13.360 -2.6428  2.0505  2.6993
   44DOPE   H6Y 5641   4.591   8.132  13.443 -1.8525 -0.7626  1.9270
   44DOPE   C37 5642   4.561   7.947  13.552  0.5764 -0.0220 -0.1784
   44DOPE   H7X 5643   4.488   7.865  13.536  1.3881 -1.0831  1.3090
   44DOPE   H7Y 5644   4.653   7.887  13.569  1.6222  1.9081  1.3852
   44DOPE   C38 5645   4.519   8.027  13.679  0.2225 -0.4093  0.2104
   44DOPE   H8X 5646   4.463   7.960  13.748 -0.3848 -1.8488 -1.5779
   44DOPE   H8Y 5647   4.437   8.099  13.654 -0.1376 -1.0263 -0.4333
   44DOPE   C39 5648   4.639   8.101  13.739  0.4300  0.2647 -0.5653
   44DOPE   H9X 5649   4.619   8.207  13.760  0.0096 -0.2973  2.1710
   44DOPE  C310 5650   4.747   8.046  13.804  0.4425 -0.4023 -0.4309
   44DOPE  H10X 5651   4.828   8.111  13.842 -0.7087  1.4456 -1.0089
   44DOPE  C311 5652   4.769   7.899  13.819 -0.0886 -0.0848  0.3945
   44DOPE  H11X 5653   4.800   7.885  13.925 -0.4320  0.8656  0.6336
   44DOPE  H11Y 5654   4.678   7.838  13.797  0.3330 -0.9992  1.0860
   44DOPE  C312 5655   4.888   7.857  13.728  0.7461  0.2616 -0.2723
   44DOPE  H12X 5656   4.984   7.910  13.747  1.4542 -0.5151 -1.6234
   44DOPE  H12Y 5657   4.850   7.890  13.629 -0.8102  0.7967  0.4642
   44DOPE  C313 5658   4.904   7.707  13.733  0.3480  0.2455 -0.1221
   44DOPE  H13X 5659   4.921   7.673  13.837  0.7299 -0.9385 -0.5531
   44DOPE  H13Y 5660   4.809   7.653  13.711  0.3253 -1.3642  3.3266
   44DOPE  C314 5661   5.022   7.657  13.654 -1.3154  0.2486 -0.9525
   44DOPE  H14X 5662   5.024   7.546  13.650 -0.0771  0.2090  0.1229
   44DOPE  H14Y 5663   5.116   7.702  13.692  0.2375 -2.9538 -0.6790
   44DOPE  C315 5664   5.001   7.696  13.507  0.4043  0.3237 -0.2545
   44DOPE  H15X 5665   4.963   7.798  13.483 -1.3596 -0.1513  0.3711
   44DOPE  H15Y 5666   4.925   7.627  13.465 -0.6751  1.3085  0.0334
   44DOPE  C316 5667   5.124   7.679  13.419  0.1443 -0.5146 -0.3959
   44DOPE  H16X 5668   5.205   7.740  13.463 -1.9128  0.8900  1.6790
   44DOPE  H16Y 5669   5.107   7.722  13.319  0.1630 -0.1507 -0.2428
   44DOPE  C317 5670   5.162   7.530  13.408  0.6186  0.7195 -0.2173
   44DOPE  H17X 5671   5.182   7.495  13.512  1.1681  1.9043  0.0905
   44DOPE  H17Y 5672   5.075   7.472  13.370  0.1382  1.1534  0.2125
   44DOPE  C318 5673   5.273   7.489  13.316 -0.0122  0.1592  0.3153
   44DOPE  H18X 5674   5.367   7.543  13.340 -0.6492  1.1161  0.7096
   44DOPE  H18Y 5675   5.296   7.380  13.320 -0.3761  0.0762  0.1688
   44DOPE  H18Z 5676   5.256   7.520  13.210 -0.4128  0.6999  0.5354
   45DOPE     N 5677   6.041   6.886  13.037 -0.1168 -0.5835  0.2686
   45DOPE   HN1 5678   6.085   6.807  12.986  1.1497  1.1861 -1.5297
   45DOPE   HN2 5679   6.029   6.958  12.963 -0.2380 -1.9722 -1.1450
   45DOPE   HN3 5680   6.119   6.914  13.099 -1.2950 -1.3123  2.1612
   45DOPE   C12 5681   5.918   6.859  13.114  0.2394 -0.5440  0.0261
   45DOPE  H12A 5682   5.873   6.960  13.121  1.4060 -0.0089 -0.0094
   45DOPE  H12B 5683   5.944   6.812  13.211  0.7302 -0.8101 -0.2329
   45DOPE   C11 5684   5.834   6.769  13.022 -0.2617  0.0198  0.4628
   45DOPE  H11A 5685   5.757   6.727  13.090 -0.1358  0.5753  0.9564
   45DOPE  H11B 5686   5.888   6.678  12.988  1.1347  1.5713 -1.8019
   45DOPE     P 5687   5.712   6.753  12.797 -0.3578  0.3531 -0.1158
   45DOPE   O13 5688   5.804   6.645  12.765 -0.5304 -0.2301 -0.0985
   45DOPE   O14 5689   5.678   6.844  12.691 -0.8380 -0.1335 -0.0810
   45DOPE   O11 5690   5.577   6.693  12.859 -0.3287  0.3668 -0.2418
   45DOPE   O12 5691   5.781   6.845  12.912  0.8020 -0.5319  0.1914
   45DOPE    C1 5692   5.458   6.751  12.867  0.9587 -0.0036 -0.5353
   45DOPE    HA 5693   5.383   6.723  12.790  0.5348  0.0591 -0.1553
   45DOPE    HB 5694   5.473   6.861  12.861  1.3107 -0.0656 -0.7426
   45DOPE    C2 5695   5.384   6.722  13.009  0.1448  0.0757 -0.0387
   45DOPE    HS 5696   5.283   6.768  13.009 -0.5637 -1.4018 -1.5540
   45DOPE   O21 5697   5.467   6.769  13.123  0.1011  0.3336  0.3917
   45DOPE   C21 5698   5.443   6.885  13.159  0.2111  0.4070  0.2692
   45DOPE   O22 5699   5.369   6.967  13.104  0.4510  0.4422 -0.2339
   45DOPE   C22 5700   5.521   6.913  13.288 -0.1514  0.2347  1.0099
   45DOPE   H2R 5701   5.622   6.942  13.251 -0.7020 -1.5293 -2.2909
   45DOPE   H2S 5702   5.539   6.818  13.342  0.2446  0.0645  0.5804
   45DOPE    C3 5703   5.360   6.568  13.020  0.1842 -0.3933 -0.5138
   45DOPE    HX 5704   5.462   6.526  13.013 -0.0923 -1.1673 -0.0499
   45DOPE    HY 5705   5.302   6.527  12.934  1.2417 -2.2786 -0.3845
   45DOPE   O31 5706   5.286   6.530  13.141 -0.0919 -0.1045 -0.0656
   45DOPE   C31 5707   5.364   6.485  13.242 -0.1712 -0.2866 -0.2580
   45DOPE   O32 5708   5.484   6.465  13.244 -0.6324 -0.8467 -0.3717
   45DOPE   C32 5709   5.281   6.471  13.371 -0.3581  0.4788  0.3861
   45DOPE   H2X 5710   5.180   6.455  13.329  0.0174 -0.3070 -0.2488
   45DOPE   H2Y 5711   5.330   6.386  13.424  1.3289 -0.5980 -2.6499
   45DOPE   C23 5712   5.448   7.014  13.382  0.2251 -0.0665 -0.2378
   45DOPE   H3R 5713   5.360   6.961  13.426  0.4493 -0.3155 -0.0866
   45DOPE   H3S 5714   5.414   7.099  13.319  3.6916  2.4406  0.9996
   45DOPE   C24 5715   5.546   7.062  13.486 -0.0490  0.5845 -0.2820
   45DOPE   H4R 5716   5.635   7.108  13.438  0.5756 -1.7900 -1.5683
   45DOPE   H4S 5717   5.581   6.972  13.542  0.9033  1.0723 -0.0682
   45DOPE   C25 5718   5.482   7.158  13.586 -0.3571  1.2940 -0.1084
   45DOPE   H5R 5719   5.399   7.104  13.638  0.6248  1.1453  1.3555
   45DOPE   H5S 5720   5.432   7.235  13.524 -0.2462  0.5628 -1.1346
   45DOPE   C26 5721   5.580   7.238  13.679  0.5883 -0.2792 -0.9534
   45DOPE   H6R 5722   5.633   7.302  13.605 -0.2567  1.6324  0.0300
   45DOPE   H6S 5723   5.655   7.169  13.725 -0.1716  0.1227  0.9635
   45DOPE   C27 5724   5.497   7.300  13.794  0.0395  0.2754  0.0620
   45DOPE   H7R 5725   5.431   7.219  13.835  1.6149 -1.2066 -0.2164
   45DOPE   H7S 5726   5.433   7.384  13.759 -0.3775 -0.1221 -0.1517
   45DOPE   C28 5727   5.590   7.350  13.911 -0.5226  0.0703  0.6785
   45DOPE   H8R 5728   5.667   7.416  13.866 -0.8257 -0.4091 -0.5724
   45DOPE   H8S 5729   5.655   7.268  13.949  1.0909  0.1958 -1.6362
   45DOPE   C29 5730   5.510   7.411  14.021 -0.1876  0.1280 -0.4828
   45DOPE   H9R 5731   5.449   7.494  13.980 -0.6194 -0.1567 -0.4203
   45DOPE  C210 5732   5.482   7.364  14.139  0.7467 -0.6257 -0.4857
   45DOPE  H10R 5733   5.415   7.435  14.189 -0.6426 -1.2852 -1.3467
   45DOPE  C211 5734   5.536   7.242  14.206 -0.0405  0.5781  0.3906
   45DOPE  H11R 5735   5.579   7.168  14.136 -2.0350  1.3480 -1.7679
   45DOPE  H11S 5736   5.458   7.188  14.264  0.9146 -1.2799  0.0445
   45DOPE  C212 5737   5.642   7.266  14.324 -0.1203  0.0951 -0.2827
   45DOPE  H12R 5738   5.604   7.322  14.413  2.4342 -0.4847  1.2673
   45DOPE  H12S 5739   5.729   7.317  14.277 -0.4822 -0.1503 -1.2391
   45DOPE  C213 5740   5.688   7.122  14.365 -0.6088 -0.3145 -0.4493
   45DOPE  H13R 5741   5.732   7.073  14.276  2.5469  0.8476  0.3410
   45DOPE  H13S 5742   5.597   7.061  14.384 -0.4372 -0.3388  0.3071
   45DOPE  C214 5743   5.780   7.118  14.489 -0.3889 -0.1953 -1.0148
   45DOPE  H14R 5744   5.879   7.162  14.462 -0.1667  0.2237  0.3658
   45DOPE  H14S 5745   5.811   7.014  14.512  2.2290  0.5614 -0.7682
   45DOPE  C215 5746   5.720   7.179  14.618 -0.0046  0.8236  0.4233
   45DOPE  H15R 5747   5.708   7.288  14.602  2.4950  1.4540  2.1902
   45DOPE  H15S 5748   5.796   7.174  14.699  1.7087  0.0302 -1.1378
   45DOPE  C216 5749   5.590   7.112  14.671 -0.4100 -0.2195  0.1466
   45DOPE  H16R 5750   5.616   7.006  14.687  1.2623  0.4764  2.5817
   45DOPE  H16S 5751   5.520   7.113  14.585  2.4910  0.7905 -2.3915
   45DOPE  C217 5752   5.537   7.166  14.805 -0.2922 -0.7082 -0.7200
   45DOPE  H17R 5753   5.625   7.162  14.873  0.2737  1.0326 -1.3093
   45DOPE  H17S 5754   5.474   7.084  14.845  0.0891 -1.0318 -0.7754
   45DOPE  C218 5755   5.479   7.306  14.801  0.4203 -0.2863 -0.6251
   45DOPE  H18R 5756   5.431   7.327  14.899 -2.0082 -0.4378 -1.6939
   45DOPE  H18S 5757   5.405   7.324  14.720 -1.3446 -0.7186  0.8179
   45DOPE  H18T 5758   5.558   7.382  14.783  1.7333 -1.0421  1.6114
   45DOPE   C33 5759   5.310   6.598  13.464  0.0602  0.2608  1.2512
   45DOPE   H3X 5760   5.270   6.692  13.420  2.1531  0.8323  0.4145
   45DOPE   H3Y 5761   5.421   6.607  13.466 -0.0593  2.2840  1.2739
   45DOPE   C34 5762   5.282   6.604  13.618  0.8293 -0.0601 -0.0100
   45DOPE   H4X 5763   5.172   6.613  13.628  0.8308  2.3428 -1.4004
   45DOPE   H4Y 5764   5.305   6.508  13.670 -0.5054  0.4720  1.6169
   45DOPE   C35 5765   5.343   6.729  13.694 -0.9076 -0.2371 -0.0809
   45DOPE   H5X 5766   5.327   6.813  13.623  1.0251  0.7702  0.6123
   45DOPE   H5Y 5767   5.453   6.720  13.703 -0.7282  1.2463 -0.6046
   45DOPE   C36 5768   5.268   6.762  13.818  0.5777 -0.0660  0.0618
   45DOPE   H6X 5769   5.265   6.678  13.891 -0.8949  0.0865  0.1980
   45DOPE   H6Y 5770   5.164   6.790  13.792  0.4268 -0.3819  0.3296
   45DOPE   C37 5771   5.323   6.879  13.900 -0.1247  0.5720 -0.2072
   45DOPE   H7X 5772   5.430   6.864  13.922 -0.3324 -0.3664  0.1767
   45DOPE   H7Y 5773   5.310   6.965  13.830 -3.4058  0.4466  0.0511
   45DOPE   C38 5774   5.236   6.908  14.033  0.0207  0.5862 -0.2149
   45DOPE   H8X 5775   5.210   6.809  14.075  1.3464 -0.7368 -2.3186
   45DOPE   H8Y 5776   5.144   6.966  14.008  1.0520  2.1943 -0.4607
   45DOPE   C39 5777   5.316   6.978  14.139 -0.2057 -0.7919  0.1589
   45DOPE   H9X 5778   5.367   7.067  14.100 -0.3384 -1.6803 -2.2312
   45DOPE  C310 5779   5.328   6.943  14.264  0.7503 -0.1705 -0.0920
   45DOPE  H10X 5780   5.385   7.004  14.336 -0.2324  0.9287 -0.2122
   45DOPE  C311 5781   5.263   6.825  14.329 -0.7615 -0.3713  0.3822
   45DOPE  H11X 5782   5.254   6.734  14.266  2.5219 -0.4824 -0.0799
   45DOPE  H11Y 5783   5.318   6.803  14.423  0.0767 -1.0495 -0.2503
   45DOPE  C312 5784   5.123   6.854  14.377  0.2474  0.0206 -0.2946
   45DOPE  H12X 5785   5.073   6.908  14.293 -0.3076 -0.7388 -0.4699
   45DOPE  H12Y 5786   5.123   6.922  14.464 -1.5062  1.3564 -1.2705
   45DOPE  C313 5787   5.037   6.731  14.407 -0.1436 -0.8860 -0.7529
   45DOPE  H13X 5788   5.093   6.663  14.474 -0.6422  0.6051  1.2879
   45DOPE  H13Y 5789   4.951   6.765  14.469  0.1847  1.1762 -1.3589
   45DOPE  C314 5790   4.979   6.640  14.295 -0.1483  0.3954 -0.1617
   45DOPE  H14X 5791   5.066   6.576  14.268  1.5088  0.9859  3.1829
   45DOPE  H14Y 5792   4.963   6.697  14.202 -2.3787  0.5407  0.2542
   45DOPE  C315 5793   4.858   6.564  14.347  0.1760 -0.2920 -0.1136
   45DOPE  H15X 5794   4.769   6.630  14.365 -0.7373 -1.2517 -1.0193
   45DOPE  H15Y 5795   4.868   6.516  14.447 -3.1559  1.0103  1.0205
   45DOPE  C316 5796   4.818   6.468  14.235 -0.5162  0.3669  0.1573
   45DOPE  H16X 5797   4.905   6.408  14.202 -0.4769  1.1296 -1.1527
   45DOPE  H16Y 5798   4.789   6.521  14.142  0.4137  3.1934  1.3646
   45DOPE  C317 5799   4.691   6.392  14.272  0.6443 -0.1492 -0.5140
   45DOPE  H17X 5800   4.625   6.465  14.323 -0.2353  0.5528 -2.5788
   45DOPE  H17Y 5801   4.633   6.359  14.184  2.7329 -0.4281 -1.8724
   45DOPE  C318 5802   4.722   6.273  14.362  0.1021 -0.1361 -0.0204
   45DOPE  H18X 5803   4.768   6.180  14.322 -0.7640 -0.7980  0.4784
   45DOPE  H18Y 5804   4.789   6.315  14.439 -1.4382 -0.0659  1.3368
   45DOPE  H18Z 5805   4.628   6.237  14.410 -0.0044  0.4937  0.2480
   46DOPE     N 5806   5.790   5.737  12.705  0.1199 -0.1878 -0.7012
   46DOPE   HN1 5807   5.886   5.698  12.713  1.2729  2.4493 -0.5580
   46DOPE   HN2 5808   5.724   5.659  12.686 -1.1209  0.2920  1.4131
   46DOPE   HN3 5809   5.791   5.813  12.634  1.0507  0.1915 -0.3024
   46DOPE   C12 5810   5.741   5.802  12.831 -0.6637  0.6178 -0.2413
   46DOPE  H12A 5811   5.813   5.880  12.864  1.6087 -1.1504 -0.7317
   46DOPE  H12B 5812   5.735   5.721  12.907 -0.0266  0.0855 -0.7433
   46DOPE   C11 5813   5.592   5.852  12.820 -0.6317  0.0561 -0.0161
   46DOPE  H11A 5814   5.602   5.956  12.782 -1.5562  0.0692 -0.2609
   46DOPE  H11B 5815   5.539   5.873  12.916 -0.5364  1.1294 -0.1756
   46DOPE     P 5816   5.460   5.633  12.779  0.2240  0.6566  0.3266
   46DOPE   O13 5817   5.576   5.541  12.780  0.3385  0.2810 -0.2208
   46DOPE   O14 5818   5.340   5.588  12.701  0.1903  0.3425  0.0901
   46DOPE   O11 5819   5.427   5.647  12.930  0.0227 -0.2461  0.0268
   46DOPE   O12 5820   5.507   5.776  12.728 -0.2954 -0.1089  0.2788
   46DOPE    C1 5821   5.307   5.721  12.958 -0.7927 -0.4161  0.6289
   46DOPE    HA 5822   5.212   5.680  12.915  0.2507 -0.8296 -1.3901
   46DOPE    HB 5823   5.315   5.822  12.914  1.7824 -0.4091  0.9916
   46DOPE    C2 5824   5.289   5.743  13.106  0.5541  0.6909 -0.8935
   46DOPE    HS 5825   5.208   5.817  13.123  1.5794  1.4979  0.7902
   46DOPE   O21 5826   5.406   5.794  13.167  0.5104  0.1492 -0.0203
   46DOPE   C21 5827   5.395   5.872  13.280 -0.5533 -0.0521  0.2308
   46DOPE   O22 5828   5.290   5.920  13.320  0.2305  0.2060  0.3100
   46DOPE   C22 5829   5.531   5.898  13.341 -0.2795 -0.2830  0.1263
   46DOPE   H2R 5830   5.594   5.974  13.288  0.3221  0.2003  1.4931
   46DOPE   H2S 5831   5.583   5.800  13.340 -1.2529 -0.8048  0.2766
   46DOPE    C3 5832   5.245   5.609  13.169  0.0054  0.1012 -0.5437
   46DOPE    HX 5833   5.336   5.546  13.181  0.8521  1.0700 -1.5758
   46DOPE    HY 5834   5.167   5.564  13.104 -0.0708 -1.6314  0.6725
   46DOPE   O31 5835   5.187   5.623  13.304 -0.2391 -0.0475 -0.8734
   46DOPE   C31 5836   5.071   5.688  13.311  0.0572  0.4415  0.2779
   46DOPE   O32 5837   4.995   5.708  13.215  0.2763  0.1867 -0.7408
   46DOPE   C32 5838   5.051   5.722  13.458  0.4184  0.2264 -0.2817
   46DOPE   H2X 5839   5.105   5.644  13.516 -2.3337 -3.1503 -1.8888
   46DOPE   H2Y 5840   5.103   5.817  13.479  1.1178  0.6615 -3.5204
   46DOPE   C23 5841   5.529   5.940  13.485  0.3367 -0.0164  0.1093
   46DOPE   H3R 5842   5.619   5.899  13.536  0.9518  0.5072 -0.5341
   46DOPE   H3S 5843   5.445   5.890  13.538  0.3878  1.4658  1.6507
   46DOPE   C24 5844   5.525   6.091  13.498  0.0732  0.5016  0.0400
   46DOPE   H4R 5845   5.443   6.144  13.445  0.6997 -0.1965 -1.6960
   46DOPE   H4S 5846   5.621   6.119  13.450  1.2778 -1.0413  1.4311
   46DOPE   C25 5847   5.537   6.139  13.640  0.9461  0.4250  0.0734
   46DOPE   H5R 5848   5.620   6.091  13.696 -0.3003 -1.2640  0.5572
   46DOPE   H5S 5849   5.442   6.109  13.689  0.5969  0.5420 -0.5306
   46DOPE   C26 5850   5.563   6.287  13.652  0.0649 -0.1102 -0.1277
   46DOPE   H6R 5851   5.470   6.343  13.630 -0.8861 -1.0714  1.2998
   46DOPE   H6S 5852   5.642   6.324  13.583  1.6913  2.2911  2.7453
   46DOPE   C27 5853   5.609   6.347  13.791  0.0514  0.4044 -0.2502
   46DOPE   H7R 5854   5.648   6.450  13.781 -1.0202  0.7860 -0.6148
   46DOPE   H7S 5855   5.692   6.280  13.822  1.0303  1.1957 -1.0753
   46DOPE   C28 5856   5.501   6.323  13.898  0.4939  0.1118  0.1980
   46DOPE   H8R 5857   5.501   6.213  13.908  1.3331  0.2493  2.1971
   46DOPE   H8S 5858   5.398   6.345  13.862 -0.4365 -2.0735  1.2973
   46DOPE   C29 5859   5.518   6.385  14.039  0.1463  0.8948  0.8034
   46DOPE   H9R 5860   5.520   6.495  14.044 -1.9110  1.0978 -1.2283
   46DOPE  C210 5861   5.528   6.311  14.149  0.1204  0.7183 -0.1177
   46DOPE  H10R 5862   5.520   6.367  14.244 -1.5385 -0.5375  0.5355
   46DOPE  C211 5863   5.542   6.158  14.151 -0.4772 -0.8749  0.0931
   46DOPE  H11R 5864   5.616   6.109  14.084 -2.8762 -2.5681 -1.4825
   46DOPE  H11S 5865   5.443   6.121  14.117 -0.4255  1.3400 -2.8909
   46DOPE  C212 5866   5.554   6.108  14.293  0.1006  0.2700 -0.2091
   46DOPE  H12R 5867   5.520   6.003  14.299 -0.5618  0.5008  0.2332
   46DOPE  H12S 5868   5.496   6.165  14.369 -0.6254 -1.4047  0.5488
   46DOPE  C213 5869   5.697   6.101  14.340 -0.2295 -0.3948  0.4037
   46DOPE  H13R 5870   5.735   6.205  14.349  0.8843 -0.7922  0.3555
   46DOPE  H13S 5871   5.764   6.057  14.264  0.8450  0.4892  0.8065
   46DOPE  C214 5872   5.710   6.018  14.469 -0.2271 -0.6622  0.3197
   46DOPE  H14R 5873   5.692   5.910  14.451 -0.1911 -0.6064 -0.0615
   46DOPE  H14S 5874   5.636   6.050  14.545  0.0835 -0.5258  0.5645
   46DOPE  C215 5875   5.843   6.038  14.540 -0.3339 -0.2832 -0.1543
   46DOPE  H15R 5876   5.854   6.147  14.556 -1.7891  0.0469 -1.1422
   46DOPE  H15S 5877   5.926   6.020  14.468  2.9471  0.9322  3.0290
   46DOPE  C216 5878   5.868   5.956  14.670  0.3615  0.2819 -0.0817
   46DOPE  H16R 5879   5.890   5.849  14.650 -0.1753 -0.1301  1.4084
   46DOPE  H16S 5880   5.769   5.958  14.720  0.8036 -0.6332  0.8648
   46DOPE  C217 5881   5.985   6.011  14.762 -0.1102  0.6352  0.0209
   46DOPE  H17R 5882   5.966   6.115  14.793 -0.0912 -0.0416  2.5394
   46DOPE  H17S 5883   6.078   6.001  14.702 -0.5297  0.7641 -0.6553
   46DOPE  C218 5884   5.991   5.918  14.885  0.4934  0.1100  0.3432
   46DOPE  H18R 5885   6.039   5.822  14.856  0.3549  0.1739 -0.1038
   46DOPE  H18S 5886   5.891   5.895  14.927  0.1559  1.5562  0.3804
   46DOPE  H18T 5887   6.047   5.964  14.970 -1.0775  0.0622  1.4529
   46DOPE   C33 5888   4.891   5.732  13.494  0.6033  0.1394 -0.6149
   46DOPE   H3X 5889   4.864   5.715  13.600 -2.0785  1.7020 -0.9682
   46DOPE   H3Y 5890   4.838   5.646  13.448  1.0221  0.2207 -1.2789
   46DOPE   C34 5891   4.836   5.874  13.467  0.0791  0.2723  0.0392
   46DOPE   H4X 5892   4.892   5.950  13.525 -0.0360  2.9588 -3.0948
   46DOPE   H4Y 5893   4.852   5.901  13.360  2.9226 -0.7272  0.1410
   46DOPE   C35 5894   4.687   5.890  13.493  0.0090  0.7218  0.1957
   46DOPE   H5X 5895   4.652   5.790  13.460 -0.1321  1.2766 -1.4125
   46DOPE   H5Y 5896   4.648   5.967  13.423 -2.3506  0.5568  1.2198
   46DOPE   C36 5897   4.647   5.934  13.639 -0.7401 -0.8344  0.1675
   46DOPE   H6X 5898   4.689   5.868  13.717 -2.2926  3.1283  4.8435
   46DOPE   H6Y 5899   4.536   5.941  13.652 -0.7425  1.4316 -0.6931
   46DOPE   C37 5900   4.701   6.080  13.673 -0.6304  0.0525 -0.4964
   46DOPE   H7X 5901   4.812   6.077  13.664 -0.6583 -2.5413 -0.6883
   46DOPE   H7Y 5902   4.658   6.145  13.594 -0.9106 -1.6060 -1.7666
   46DOPE   C38 5903   4.656   6.119  13.815  0.2658 -0.8535 -0.3063
   46DOPE   H8X 5904   4.685   6.044  13.891 -1.0966  0.6243  1.7747
   46DOPE   H8Y 5905   4.545   6.122  13.825  0.3695  0.8387  0.7578
   46DOPE   C39 5906   4.715   6.246  13.844 -0.5511 -0.1622 -0.4413
   46DOPE   H9X 5907   4.656   6.327  13.799 -2.8834 -1.5069  0.0402
   46DOPE  C310 5908   4.832   6.270  13.898  0.1939  0.7095  0.1427
   46DOPE  H10X 5909   4.850   6.375  13.923  0.0392  0.5130  1.0913
   46DOPE  C311 5910   4.934   6.169  13.952 -0.5283  0.1256 -0.4707
   46DOPE  H11X 5911   4.896   6.139  14.052  1.2561 -1.1760 -0.1430
   46DOPE  H11Y 5912   4.950   6.083  13.883 -0.6469 -1.7009  1.6366
   46DOPE  C312 5913   5.058   6.258  13.981 -0.2558 -0.3311  0.6613
   46DOPE  H12X 5914   5.035   6.345  14.046 -0.9061  0.5363 -0.6732
   46DOPE  H12Y 5915   5.098   6.304  13.888 -0.9003  0.9950  1.0057
   46DOPE  C313 5916   5.180   6.189  14.037 -0.0238  0.6757 -0.2066
   46DOPE  H13X 5917   5.239   6.141  13.956  0.6797  1.3677 -0.1242
   46DOPE  H13Y 5918   5.254   6.269  14.058  2.4444 -1.3051 -0.8761
   46DOPE  C314 5919   5.176   6.102  14.169 -0.6207 -0.6545  0.0867
   46DOPE  H14X 5920   5.269   6.042  14.183 -0.0644  0.0997 -0.3475
   46DOPE  H14Y 5921   5.105   6.017  14.156  0.1404 -1.1179 -1.3163
   46DOPE  C315 5922   5.125   6.191  14.279 -0.4536  0.0469 -0.8222
   46DOPE  H15X 5923   5.028   6.240  14.255 -0.5105 -0.6298 -2.0215
   46DOPE  H15Y 5924   5.199   6.265  14.317 -0.6796 -0.1511  0.0379
   46DOPE  C316 5925   5.087   6.115  14.408 -0.1471 -0.6261 -0.1526
   46DOPE  H16X 5926   5.158   6.036  14.441  1.1204 -0.1233 -1.5722
   46DOPE  H16Y 5927   4.997   6.060  14.374 -0.5659  0.6195 -1.1314
   46DOPE  C317 5928   5.043   6.198  14.532 -0.2869  0.2893  0.2001
   46DOPE  H17X 5929   5.016   6.303  14.506 -1.9719  0.2231  1.4786
   46DOPE  H17Y 5930   4.954   6.147  14.575 -1.4806  0.3057 -2.1052
   46DOPE  C318 5931   5.151   6.203  14.632  0.2525 -0.2207 -0.0173
   46DOPE  H18X 5932   5.251   6.237  14.596  0.5488 -0.7633  0.2828
   46DOPE  H18Y 5933   5.129   6.256  14.728  1.1420  0.3466 -0.1104
   46DOPE  H18Z 5934   5.173   6.104  14.676  1.2619  0.2660  0.6259
   47DOPE     N 5935   2.849   4.962  13.051  0.0028 -0.2807  0.2919
   47DOPE   HN1 5936   2.950   4.951  13.030  0.5667  2.7219  1.0583
   47DOPE   HN2 5937   2.793   4.960  12.963  0.9399  0.0384 -0.3245
   47DOPE   HN3 5938   2.838   5.055  13.095  0.9340  0.4160 -0.8884
   47DOPE   C12 5939   2.799   4.858  13.143  0.3968  0.3597 -0.4438
   47DOPE  H12A 5940   2.724   4.909  13.207 -0.8019  0.1477 -1.6486
   47DOPE  H12B 5941   2.886   4.822  13.202 -1.6199 -1.0082  1.9062
   47DOPE   C11 5942   2.733   4.740  13.077  0.7163 -0.3576  1.1192
   47DOPE  H11A 5943   2.639   4.772  13.028  0.4498 -0.9493  1.2364
   47DOPE  H11B 5944   2.707   4.667  13.156 -1.2368  1.0017  1.7920
   47DOPE     P 5945   2.943   4.589  13.017  0.5717  0.0472 -0.2534
   47DOPE   O13 5946   3.067   4.664  12.992  0.4827  0.0955 -0.0809
   47DOPE   O14 5947   2.909   4.462  12.946  0.0473  0.0602  0.2826
   47DOPE   O11 5948   2.922   4.558  13.173 -0.0472 -0.1623  0.6492
   47DOPE   O12 5949   2.828   4.691  12.977  0.5650  0.3113  0.3250
   47DOPE    C1 5950   2.894   4.426  13.213  0.3719  0.5545  0.1878
   47DOPE    HA 5951   2.981   4.359  13.197 -1.0378 -2.0961  2.7035
   47DOPE    HB 5952   2.807   4.381  13.160  0.6968 -1.4017  1.2484
   47DOPE    C2 5953   2.863   4.434  13.364 -0.2273 -0.4697 -0.4071
   47DOPE    HS 5954   2.776   4.501  13.380 -0.3615 -0.1160 -2.4080
   47DOPE   O21 5955   2.984   4.485  13.435  0.2357 -0.0235  0.0939
   47DOPE   C21 5956   2.955   4.574  13.528 -0.5947  0.6104 -0.0695
   47DOPE   O22 5957   2.851   4.635  13.541  0.0034 -0.3623  0.5914
   47DOPE   C22 5958   3.071   4.577  13.632  0.4946 -0.5885  0.3795
   47DOPE   H2R 5959   3.158   4.615  13.575 -0.5412  0.4862 -0.5493
   47DOPE   H2S 5960   3.084   4.470  13.656  0.7913  0.0359  3.4579
   47DOPE    C3 5961   2.831   4.299  13.428  0.4201  0.4783  0.0364
   47DOPE    HX 5962   2.913   4.224  13.425 -1.3191 -1.6260  1.2546
   47DOPE    HY 5963   2.748   4.250  13.372  0.9617  0.4411 -0.7492
   47DOPE   O31 5964   2.789   4.320  13.566 -0.3577 -0.0854  0.5218
   47DOPE   C31 5965   2.672   4.364  13.588 -0.3212  0.5886  0.0308
   47DOPE   O32 5966   2.582   4.388  13.505 -0.3239 -0.0295 -0.4672
   47DOPE   C32 5967   2.656   4.382  13.737 -0.1028 -0.2965 -0.2532
   47DOPE   H2X 5968   2.600   4.295  13.776 -0.0594  1.2880  3.7452
   47DOPE   H2Y 5969   2.756   4.396  13.782 -0.4199  2.0972 -0.1927
   47DOPE   C23 5970   3.043   4.655  13.763  0.3335 -0.1753 -0.7431
   47DOPE   H3R 5971   3.133   4.636  13.825 -0.2003  0.3451  0.2109
   47DOPE   H3S 5972   2.952   4.616  13.814  1.3285 -0.2219  1.0958
   47DOPE   C24 5973   3.036   4.811  13.743  0.3454  0.2384 -0.4922
   47DOPE   H4R 5974   2.948   4.824  13.676  0.3629 -0.9368 -0.7645
   47DOPE   H4S 5975   3.125   4.843  13.685 -0.5842  0.4122 -1.8751
   47DOPE   C25 5976   3.013   4.879  13.876  0.9416  0.6364  0.0151
   47DOPE   H5R 5977   3.115   4.889  13.920  0.9113  0.8561  0.0356
   47DOPE   H5S 5978   2.955   4.820  13.950 -1.0997 -0.1422 -2.1085
   47DOPE   C26 5979   2.941   5.014  13.869 -0.0993 -1.1118 -0.0786
   47DOPE   H6R 5980   2.947   5.065  13.967 -3.1717  1.4935 -1.0789
   47DOPE   H6S 5981   2.833   4.994  13.849 -0.4038  1.9652 -2.2057
   47DOPE   C27 5982   2.986   5.115  13.753 -0.1128  0.7384  0.0305
   47DOPE   H7R 5983   2.951   5.078  13.655 -1.2498  1.4877  0.1321
   47DOPE   H7S 5984   3.098   5.116  13.754 -0.1063  0.4353  0.8803
   47DOPE   C28 5985   2.939   5.257  13.773  0.8948 -0.5995 -0.9804
   47DOPE   H8R 5986   2.977   5.321  13.689  2.4465 -0.9463 -0.5702
   47DOPE   H8S 5987   2.996   5.299  13.858 -0.6848  2.7266 -1.3983
   47DOPE   C29 5988   2.783   5.273  13.785 -0.0132  0.5070  0.5658
   47DOPE   H9R 5989   2.725   5.214  13.713 -0.5112  0.2970  1.1311
   47DOPE  C210 5990   2.723   5.318  13.899  0.7815 -0.0828  0.2739
   47DOPE  H10R 5991   2.614   5.310  13.908  0.9366 -1.7323  1.0649
   47DOPE  C211 5992   2.790   5.372  14.024  0.2204 -0.2803  0.8553
   47DOPE  H11R 5993   2.744   5.470  14.047 -0.7770 -0.9128  1.6141
   47DOPE  H11S 5994   2.898   5.389  14.004 -0.1298 -0.6802 -1.8039
   47DOPE  C212 5995   2.776   5.277  14.145  0.3224  0.5094  0.3947
   47DOPE  H12R 5996   2.824   5.182  14.115 -0.1798  0.4734 -0.3140
   47DOPE  H12S 5997   2.672   5.251  14.173  0.6439 -0.5121  0.6945
   47DOPE  C213 5998   2.855   5.327  14.274  0.4849  0.6404 -0.2290
   47DOPE  H13R 5999   2.962   5.314  14.245 -0.0703 -3.2516 -1.1429
   47DOPE  H13S 6000   2.841   5.266  14.366 -1.4724  1.6721  0.1978
   47DOPE  C214 6001   2.838   5.473  14.309  0.2350  0.1847 -0.2162
   47DOPE  H14R 6002   2.826   5.525  14.211  0.5433 -2.4510 -1.7764
   47DOPE  H14S 6003   2.928   5.514  14.360 -0.2592  0.2540  0.6043
   47DOPE  C215 6004   2.720   5.498  14.412 -0.2780  0.2011  0.5529
   47DOPE  H15R 6005   2.634   5.447  14.363 -0.2385 -0.8862  1.5533
   47DOPE  H15S 6006   2.691   5.605  14.414  1.9493  0.8523 -0.0864
   47DOPE  C216 6007   2.752   5.437  14.551 -0.3525 -0.5512 -0.4291
   47DOPE  H16R 6008   2.849   5.482  14.579 -0.6045  0.6514 -1.3716
   47DOPE  H16S 6009   2.765   5.327  14.544 -1.7029 -0.6484 -2.0939
   47DOPE  C217 6010   2.653   5.457  14.669  0.2299  0.0238 -0.3280
   47DOPE  H17R 6011   2.564   5.394  14.649  0.6376 -0.9044  0.6732
   47DOPE  H17S 6012   2.615   5.559  14.693 -0.3690 -0.6753  1.9496
   47DOPE  C218 6013   2.709   5.394  14.803 -0.5737 -0.1556  0.4656
   47DOPE  H18R 6014   2.809   5.436  14.825 -0.5814 -0.4335  1.0524
   47DOPE  H18S 6015   2.720   5.283  14.804 -1.7002 -0.3017 -0.3979
   47DOPE  H18T 6016   2.639   5.405  14.889 -3.2620 -0.1174 -1.5924
   47DOPE   C33 6017   2.585   4.512  13.777  0.1035 -0.7036 -0.5382
   47DOPE   H3X 6018   2.485   4.509  13.729 -0.6237  2.5402  0.5772
   47DOPE   H3Y 6019   2.639   4.594  13.726  1.4546 -0.8937  0.5248
   47DOPE   C34 6020   2.569   4.529  13.929 -0.3694  0.1834  0.7139
   47DOPE   H4X 6021   2.502   4.613  13.958 -1.2780 -0.2859  0.0153
   47DOPE   H4Y 6022   2.532   4.440  13.984 -0.3725 -0.2237  0.0551
   47DOPE   C35 6023   2.708   4.563  13.995 -0.6382 -0.1125 -0.3674
   47DOPE   H5X 6024   2.748   4.650  13.938  0.0333 -2.0386 -3.0229
   47DOPE   H5Y 6025   2.779   4.478  13.985 -1.6607 -1.0500  0.1693
   47DOPE   C36 6026   2.707   4.595  14.147 -0.1174 -0.0931 -0.0806
   47DOPE   H6X 6027   2.684   4.501  14.200  0.9204  0.0048  0.5722
   47DOPE   H6Y 6028   2.630   4.674  14.163 -1.0406 -1.5626  3.5467
   47DOPE   C37 6029   2.852   4.656  14.186 -0.2390  0.4136 -0.7934
   47DOPE   H7X 6030   2.923   4.584  14.139 -0.1211  0.5986 -0.8974
   47DOPE   H7Y 6031   2.864   4.760  14.148 -1.0795  1.3669  1.4037
   47DOPE   C38 6032   2.882   4.649  14.337  1.0172  0.2298 -0.4168
   47DOPE   H8X 6033   2.877   4.548  14.383  1.7275  1.1124  1.7339
   47DOPE   H8Y 6034   2.800   4.696  14.395  1.6692  2.3968 -1.1646
   47DOPE   C39 6035   3.021   4.707  14.371  0.6389  0.1797  0.0707
   47DOPE   H9X 6036   3.107   4.642  14.347 -0.0351  0.4846 -3.8071
   47DOPE  C310 6037   3.049   4.822  14.430  0.4832 -0.5498 -0.4280
   47DOPE  H10X 6038   3.152   4.856  14.453  0.4141 -0.8405  0.3032
   47DOPE  C311 6039   2.946   4.926  14.470  0.5151  0.1709  0.0475
   47DOPE  H11X 6040   2.955   5.006  14.393 -0.4934  1.1148  0.8705
   47DOPE  H11Y 6041   2.843   4.886  14.471 -0.4632  2.4437  2.3375
   47DOPE  C312 6042   2.967   4.998  14.606 -0.0513  0.6406 -0.0753
   47DOPE  H12X 6043   2.978   4.926  14.690 -0.6847  1.7225  0.9646
   47DOPE  H12Y 6044   2.873   5.056  14.619 -0.5212 -0.4201  1.5937
   47DOPE  C313 6045   3.081   5.100  14.611  0.4650  0.2095 -0.1516
   47DOPE  H13X 6046   3.168   5.038  14.582  0.2761 -0.1529  0.0498
   47DOPE  H13Y 6047   3.086   5.184  14.538 -1.9379 -0.0865 -0.7426
   47DOPE  C314 6048   3.102   5.170  14.751 -0.4634  0.0902  0.0229
   47DOPE  H14X 6049   3.040   5.262  14.756 -1.1620 -0.2912 -1.0772
   47DOPE  H14Y 6050   3.205   5.210  14.756 -0.8378  1.2665 -0.9703
   47DOPE  C315 6051   3.073   5.072  14.872 -0.0924  0.0108  0.1053
   47DOPE  H15X 6052   3.147   4.990  14.860 -0.9146 -0.6857 -0.3059
   47DOPE  H15Y 6053   2.972   5.027  14.869 -0.2240  0.3400 -0.7226
   47DOPE  C316 6054   3.101   5.132  15.009  0.0689 -0.0099  0.0451
   47DOPE  H16X 6055   3.204   5.175  15.011  0.2373 -0.3611 -0.7748
   47DOPE  H16Y 6056   3.083   5.047  15.078 -1.6048 -1.1337 -1.6780
   47DOPE  C317 6057   3.008   5.248  15.048 -0.7930 -0.0765 -0.5954
   47DOPE  H17X 6058   3.053   5.290  15.140 -1.6009  1.3875 -0.8433
   47DOPE  H17Y 6059   3.009   5.328  14.971 -0.3833  0.6086  0.1055
   47DOPE  C318 6060   2.856   5.212  15.064 -0.0795  0.0579 -0.0862
   47DOPE  H18X 6061   2.823   5.127  15.000  0.1311 -0.2521  0.2121
   47DOPE  H18Y 6062   2.828   5.187  15.168 -1.2352 -1.6609 -0.7497
   47DOPE  H18Z 6063   2.794   5.301  15.040  1.6753  1.2177 -0.5314
   48DOPE     N 6064   7.548   0.449  12.629 -0.2884  0.0685  0.3193
   48DOPE   HN1 6065   7.575   0.453  12.529 -1.6987 -1.8218 -0.1923
   48DOPE   HN2 6066   7.451   0.416  12.649  0.2223 -1.2788  0.7395
   48DOPE   HN3 6067   7.563   0.547  12.662  0.1736  0.8110 -1.9625
   48DOPE   C12 6068   7.652   0.362  12.697  0.5757 -0.3566 -0.1569
   48DOPE  H12A 6069   7.659   0.387  12.806 -0.0128 -0.2530 -0.1435
   48DOPE  H12B 6070   7.751   0.391  12.654  0.4329  0.3588 -0.0087
   48DOPE   C11 6071   7.610   0.211  12.683 -0.0641 -0.0788  0.5635
   48DOPE  H11A 6072   7.693   0.143  12.712  1.0707  0.4778 -1.2613
   48DOPE  H11B 6073   7.587   0.200  12.575 -2.6806  0.2677  1.0182
   48DOPE     P 6074   7.433   0.035  12.728  0.4924  0.4509 -0.3265
   48DOPE   O13 6075   7.538  -0.065  12.685  0.0580 -0.1546 -0.3940
   48DOPE   O14 6076   7.311   0.048  12.643  0.1514 -0.2417  0.3389
   48DOPE   O11 6077   7.378  -0.017  12.862  0.3660  0.3253 -0.2090
   48DOPE   O12 6078   7.493   0.174  12.756 -0.1799 -0.1150 -0.2909
   48DOPE    C1 6079   7.344   0.078  12.973  0.0619 -0.0412  0.0026
   48DOPE    HA 6080   7.279   0.019  13.040 -1.0864 -0.7192 -1.6322
   48DOPE    HB 6081   7.288   0.167  12.938  0.5694 -0.4312 -1.9797
   48DOPE    C2 6082   7.468   0.117  13.044  0.6382  0.2014  0.0092
   48DOPE    HS 6083   7.535   0.177  12.978  0.3475 -0.2880 -0.7446
   48DOPE   O21 6084   7.537  -0.004  13.093 -0.1326 -0.4037  0.3076
   48DOPE   C21 6085   7.661   0.006  13.138 -0.3689  1.0765 -0.5837
   48DOPE   O22 6086   7.737   0.102  13.124  0.3134  0.3249 -0.4214
   48DOPE   C22 6087   7.684  -0.114  13.238  0.5059  0.0492  0.7209
   48DOPE   H2R 6088   7.787  -0.100  13.279  0.1453  0.6710  1.4377
   48DOPE   H2S 6089   7.670  -0.210  13.184 -0.6942 -0.8206  2.5057
   48DOPE    C3 6090   7.449   0.212  13.167  0.0977 -0.0526  0.3603
   48DOPE    HX 6091   7.417   0.313  13.136  1.8136  0.1261 -0.8927
   48DOPE    HY 6092   7.551   0.220  13.209  1.0467 -1.0468 -1.6370
   48DOPE   O31 6093   7.371   0.145  13.268  0.4878  0.0913  0.1809
   48DOPE   C31 6094   7.253   0.197  13.288  0.5641 -0.5714  0.0804
   48DOPE   O32 6095   7.203   0.288  13.227  0.4806 -0.4067 -0.3076
   48DOPE   C32 6096   7.174   0.117  13.391  0.3077  0.7070  0.3880
   48DOPE   H2X 6097   7.070   0.152  13.381 -0.6541 -1.9493  0.3091
   48DOPE   H2Y 6098   7.180   0.014  13.350 -1.3945  0.6415  0.2679
   48DOPE   C23 6099   7.578  -0.117  13.348 -0.1717  0.8128 -0.3697
   48DOPE   H3R 6100   7.474  -0.132  13.312 -0.8074 -1.7616  2.1792
   48DOPE   H3S 6101   7.598  -0.021  13.400  0.3989  0.3100  0.3653
   48DOPE   C24 6102   7.588  -0.227  13.457  0.7517 -0.1707  0.3224
   48DOPE   H4R 6103   7.694  -0.230  13.489  1.0664  0.2683 -0.6266
   48DOPE   H4S 6104   7.575  -0.330  13.419  0.5431 -0.3428  0.8560
   48DOPE   C25 6105   7.483  -0.206  13.571  0.2601 -0.3768 -0.1561
   48DOPE   H5R 6106   7.381  -0.194  13.528  0.2796  0.1647 -0.0452
   48DOPE   H5S 6107   7.525  -0.117  13.622  0.1683  0.8541 -2.1191
   48DOPE   C26 6108   7.480  -0.328  13.660  0.0520  0.1894 -0.9940
   48DOPE   H6R 6109   7.580  -0.356  13.702  0.5072  1.9766 -0.8301
   48DOPE   H6S 6110   7.436  -0.413  13.603 -0.6681  0.5482 -0.9797
   48DOPE   C27 6111   7.380  -0.313  13.777 -0.1641  0.4141  0.2673
   48DOPE   H7R 6112   7.281  -0.316  13.725 -0.3020 -0.1807  0.5657
   48DOPE   H7S 6113   7.386  -0.210  13.819 -1.9004  0.3496  0.7608
   48DOPE   C28 6114   7.387  -0.435  13.878  0.4248  0.2508  0.8974
   48DOPE   H8R 6115   7.372  -0.526  13.815 -2.1552  2.1485 -1.4766
   48DOPE   H8S 6116   7.302  -0.422  13.948  0.7338 -1.0240  1.5388
   48DOPE   C29 6117   7.511  -0.439  13.955 -0.7283 -0.1060  0.1550
   48DOPE   H9R 6118   7.564  -0.343  13.962  0.0218 -0.4069 -1.0037
   48DOPE  C210 6119   7.559  -0.542  14.021 -0.7673  0.1082  0.2213
   48DOPE  H10R 6120   7.640  -0.522  14.092 -0.0551 -2.0493  0.0820
   48DOPE  C211 6121   7.517  -0.684  14.015  0.0325 -0.0660  0.4761
   48DOPE  H11R 6122   7.607  -0.739  13.980 -1.1687  0.5061 -4.1972
   48DOPE  H11S 6123   7.451  -0.698  13.927  1.6344 -1.2669 -0.5696
   48DOPE  C212 6124   7.457  -0.737  14.149  0.1279  0.0099  0.0532
   48DOPE  H12R 6125   7.406  -0.830  14.114  1.0427 -0.4107 -0.1930
   48DOPE  H12S 6126   7.383  -0.669  14.197  0.5076  0.8524 -0.5275
   48DOPE  C213 6127   7.560  -0.781  14.250  0.6902 -0.2383  0.3713
   48DOPE  H13R 6128   7.600  -0.681  14.277  0.2189 -0.2132  1.0130
   48DOPE  H13S 6129   7.640  -0.840  14.201  0.9216  1.1522 -0.9878
   48DOPE  C214 6130   7.496  -0.849  14.367 -0.2373  0.7374 -0.0299
   48DOPE  H14R 6131   7.470  -0.956  14.351  2.1981 -0.3123  2.1643
   48DOPE  H14S 6132   7.399  -0.802  14.393 -0.6258 -0.1867  0.2273
   48DOPE  C215 6133   7.585  -0.851  14.490  0.1900 -0.3118  0.1230
   48DOPE  H15R 6134   7.623  -0.746  14.495  1.5870 -0.5842 -2.4340
   48DOPE  H15S 6135   7.670  -0.921  14.474 -0.6234 -1.6180  1.3812
   48DOPE  C216 6136   7.499  -0.914  14.600 -0.5568  0.3186 -0.4703
   48DOPE  H16R 6137   7.453  -1.009  14.566  1.7416 -1.6164  1.4774
   48DOPE  H16S 6138   7.416  -0.841  14.600  0.3428  1.4863 -3.0659
   48DOPE  C217 6139   7.570  -0.940  14.734 -0.4930  0.5826 -0.3829
   48DOPE  H17R 6140   7.666  -0.992  14.715 -0.8130 -1.1351  2.1367
   48DOPE  H17S 6141   7.506  -1.008  14.795 -1.4268  0.0504 -1.9028
   48DOPE  C218 6142   7.588  -0.814  14.809 -0.0495 -0.0273 -0.6915
   48DOPE  H18R 6143   7.636  -0.829  14.908  0.8916  0.2725 -1.0894
   48DOPE  H18S 6144   7.501  -0.753  14.840 -0.2258 -1.2340  1.3764
   48DOPE  H18T 6145   7.665  -0.753  14.757  0.4618 -1.3976 -1.5914
   48DOPE   C33 6146   7.225   0.120  13.534  1.1531  0.3877  0.1336
   48DOPE   H3X 6147   7.224   0.222  13.578 -1.4742  0.7665 -0.6096
   48DOPE   H3Y 6148   7.328   0.080  13.536  0.9773 -0.1936 -1.1923
   48DOPE   C34 6149   7.157   0.031  13.633 -0.0552 -0.1183 -0.2596
   48DOPE   H4X 6150   7.052   0.068  13.636  0.1367  0.4457 -0.2315
   48DOPE   H4Y 6151   7.146  -0.074  13.600  0.0096 -0.7504  1.6237
   48DOPE   C35 6152   7.208   0.036  13.775  0.1398  0.6148 -0.0857
   48DOPE   H5X 6153   7.207   0.138  13.820  0.4093  0.5476  0.0784
   48DOPE   H5Y 6154   7.316   0.007  13.781 -0.1527 -0.3599  0.7286
   48DOPE   C36 6155   7.132  -0.062  13.871  0.2368  0.5072  0.0446
   48DOPE   H6X 6156   7.152  -0.164  13.832 -1.2506  0.9142 -1.9638
   48DOPE   H6Y 6157   7.021  -0.059  13.857  0.4290 -0.0125 -1.8478
   48DOPE   C37 6158   7.163  -0.053  14.022  0.3615  0.1121 -0.3514
   48DOPE   H7X 6159   7.271  -0.069  14.041  0.3360  0.4632  0.0978
   48DOPE   H7Y 6160   7.133   0.052  14.046 -0.2643  0.4511 -2.3917
   48DOPE   C38 6161   7.070  -0.142  14.113 -0.2624  0.3229 -0.1203
   48DOPE   H8X 6162   7.059  -0.246  14.078  1.0298 -0.2099  0.9579
   48DOPE   H8Y 6163   6.965  -0.109  14.127  0.1056  0.2979  4.1147
   48DOPE   C39 6164   7.122  -0.167  14.251  0.7069  0.2367 -0.0361
   48DOPE   H9X 6165   7.170  -0.081  14.300  1.5697  0.4686 -1.2318
   48DOPE  C310 6166   7.130  -0.290  14.314  0.5608  0.6041 -0.5529
   48DOPE  H10X 6167   7.163  -0.297  14.418  2.0538 -0.6868 -1.0807
   48DOPE  C311 6168   7.086  -0.428  14.264  0.0830  0.1475 -0.5449
   48DOPE  H11X 6169   6.976  -0.437  14.275 -0.2911  2.6892 -1.5746
   48DOPE  H11Y 6170   7.108  -0.435  14.155 -1.4737 -0.7717 -0.8387
   48DOPE  C312 6171   7.149  -0.537  14.358  0.3282  0.2709 -0.2715
   48DOPE  H12X 6172   7.259  -0.527  14.371  0.2072  0.3513  0.7423
   48DOPE  H12Y 6173   7.134  -0.630  14.299 -0.8319  0.0553  0.3464
   48DOPE  C313 6174   7.077  -0.561  14.487  0.2161  0.0680 -0.2842
   48DOPE  H13X 6175   7.084  -0.469  14.549  3.4030  0.1708 -0.6345
   48DOPE  H13Y 6176   6.968  -0.575  14.471  0.3619 -2.4891  0.4693
   48DOPE  C314 6177   7.142  -0.679  14.565 -0.0199 -0.2641 -0.0102
   48DOPE  H14X 6178   7.251  -0.659  14.554 -0.5409  2.4413 -1.0349
   48DOPE  H14Y 6179   7.114  -0.775  14.516 -1.4835 -1.0853  2.3108
   48DOPE  C315 6180   7.104  -0.689  14.711 -0.0281 -0.2907  0.3520
   48DOPE  H15X 6181   7.122  -0.587  14.752  2.2719 -0.9477  1.1124
   48DOPE  H15Y 6182   7.167  -0.767  14.759 -0.0684  1.2359  3.1104
   48DOPE  C316 6183   6.963  -0.726  14.747  0.4441  1.0398  0.1356
   48DOPE  H16X 6184   6.944  -0.832  14.717 -0.1941  1.5039 -1.1952
   48DOPE  H16Y 6185   6.886  -0.673  14.688 -2.5320 -1.8557  1.0681
   48DOPE  C317 6186   6.937  -0.705  14.898  0.3638 -0.3153  0.3138
   48DOPE  H17X 6187   6.951  -0.803  14.947 -0.3603 -0.5270  0.1094
   48DOPE  H17Y 6188   7.008  -0.633  14.945  0.2893 -0.3720  0.5088
   48DOPE  C318 6189   6.791  -0.676  14.938 -0.2283 -0.1379  0.6336
   48DOPE  H18X 6190   6.777  -0.691  15.048 -0.8395  0.5006  0.6563
   48DOPE  H18Y 6191   6.766  -0.572  14.908  0.7554 -0.5749 -1.9720
   48DOPE  H18Z 6192   6.728  -0.747  14.881 -0.1156 -1.0651  1.6220
   49DOPE     N 6193   2.450   5.118  12.882 -1.0585  0.8389  0.3730
   49DOPE   HN1 6194   2.353   5.084  12.866 -0.6377  0.2712 -1.1215
   49DOPE   HN2 6195   2.514   5.114  12.801  0.5094 -1.9470  1.5955
   49DOPE   HN3 6196   2.500   5.064  12.956 -1.2464  3.9319  3.0025
   49DOPE   C12 6197   2.449   5.262  12.921 -1.0833 -0.1034 -0.1840
   49DOPE  H12A 6198   2.393   5.272  13.017 -1.2645  0.5866 -0.3524
   49DOPE  H12B 6199   2.390   5.317  12.844  2.0266  0.4148 -2.3609
   49DOPE   C11 6200   2.592   5.324  12.934 -0.4649 -1.0924 -0.9075
   49DOPE  H11A 6201   2.583   5.432  12.957 -0.7550 -1.1642 -0.6728
   49DOPE  H11B 6202   2.655   5.319  12.843  2.1171 -1.3800  0.7973
   49DOPE     P 6203   2.781   5.316  13.110  0.5200  0.1272  0.2822
   49DOPE   O13 6204   2.857   5.395  13.010 -0.3858 -0.1794  0.3429
   49DOPE   O14 6205   2.855   5.200  13.177  0.2596 -0.5972 -0.2273
   49DOPE   O11 6206   2.725   5.412  13.221 -0.9525  0.0331  0.5574
   49DOPE   O12 6207   2.657   5.249  13.036  0.3688 -0.2215 -0.3502
   49DOPE    C1 6208   2.634   5.351  13.314 -0.8966 -0.1809 -0.2351
   49DOPE    HA 6209   2.695   5.310  13.397  0.2512  2.0475  0.0962
   49DOPE    HB 6210   2.579   5.264  13.274 -0.4634 -1.5020  1.8809
   49DOPE    C2 6211   2.535   5.463  13.363 -0.0093 -0.0054 -0.1872
   49DOPE    HS 6212   2.528   5.537  13.281 -1.5539 -1.8110 -1.7736
   49DOPE   O21 6213   2.596   5.526  13.478 -0.6895  0.5477  0.0029
   49DOPE   C21 6214   2.558   5.645  13.500  0.0158 -0.6706 -0.2939
   49DOPE   O22 6215   2.475   5.712  13.439 -0.0027  0.0501  0.0289
   49DOPE   C22 6216   2.617   5.696  13.634 -0.1372  0.0428  0.0999
   49DOPE   H2R 6217   2.682   5.781  13.605  2.0952 -1.6162 -0.0331
   49DOPE   H2S 6218   2.681   5.618  13.680  1.0637  0.3735 -0.9384
   49DOPE    C3 6219   2.383   5.420  13.385 -0.4804 -0.1332  0.3566
   49DOPE    HX 6220   2.340   5.387  13.288 -1.8036 -0.6863  1.1059
   49DOPE    HY 6221   2.326   5.513  13.402 -0.7008 -0.1002 -0.5084
   49DOPE   O31 6222   2.367   5.323  13.487 -0.1926  0.1155  0.0483
   49DOPE   C31 6223   2.365   5.189  13.446 -0.3546 -0.2626  0.2533
   49DOPE   O32 6224   2.384   5.154  13.332  0.6231 -0.6698 -0.4293
   49DOPE   C32 6225   2.349   5.087  13.554 -0.5730 -0.2356 -0.0538
   49DOPE   H2X 6226   2.245   5.081  13.592  0.0545  0.6558  1.9090
   49DOPE   H2Y 6227   2.373   4.986  13.516 -2.1634 -0.7013  0.1189
   49DOPE   C23 6228   2.506   5.754  13.723 -0.6797  0.1255 -0.4265
   49DOPE   H3R 6229   2.430   5.678  13.751 -0.6481 -1.1138 -3.3137
   49DOPE   H3S 6230   2.453   5.840  13.677  0.0422  0.4495 -0.6776
   49DOPE   C24 6231   2.567   5.812  13.852  0.0121 -0.5536 -0.1970
   49DOPE   H4R 6232   2.493   5.880  13.901  0.5603  1.9099 -2.5133
   49DOPE   H4S 6233   2.654   5.876  13.825  0.1999 -0.6883  0.0906
   49DOPE   C25 6234   2.612   5.706  13.951 -0.4102  0.3098  0.0630
   49DOPE   H5R 6235   2.669   5.625  13.900  0.5874 -0.2322  1.9424
   49DOPE   H5S 6236   2.528   5.665  14.011  0.5975 -2.0326 -0.0254
   49DOPE   C26 6237   2.703   5.768  14.061  1.1058  0.3391  0.3516
   49DOPE   H6R 6238   2.717   5.693  14.142 -1.7398 -0.6086  0.0912
   49DOPE   H6S 6239   2.645   5.849  14.109 -0.0884  0.2351 -0.8510
   49DOPE   C27 6240   2.838   5.821  14.015  0.1742  0.2279  0.8033
   49DOPE   H7R 6241   2.828   5.919  13.964  1.9104  0.3461  0.6478
   49DOPE   H7S 6242   2.869   5.751  13.934  0.8637 -0.1038  1.3413
   49DOPE   C28 6243   2.942   5.846  14.126 -0.6108  0.0909 -0.6533
   49DOPE   H8R 6244   3.028   5.908  14.092 -0.8907  1.0745  0.3641
   49DOPE   H8S 6245   2.965   5.749  14.174 -2.0958 -0.3290 -0.7526
   49DOPE   C29 6246   2.892   5.937  14.239 -0.2903 -0.0130  0.0881
   49DOPE   H9R 6247   2.794   5.987  14.227 -2.1601 -3.0801  1.2951
   49DOPE  C210 6248   2.965   5.977  14.348  0.5011  0.6835 -0.4148
   49DOPE  H10R 6249   2.913   6.040  14.423 -1.1209 -0.4364 -0.5590
   49DOPE  C211 6250   3.110   5.939  14.381 -0.0118 -0.7667 -0.1879
   49DOPE  H11R 6251   3.185   5.950  14.300  1.0179 -2.7231  0.4484
   49DOPE  H11S 6252   3.121   5.836  14.420  0.2663 -0.6430  0.0632
   49DOPE  C212 6253   3.155   6.023  14.503  0.1211 -0.6209  0.5321
   49DOPE  H12R 6254   3.260   5.997  14.526  0.5966  1.4575  0.8864
   49DOPE  H12S 6255   3.091   6.011  14.593  0.0603  1.1263  0.7594
   49DOPE  C213 6256   3.153   6.178  14.470 -0.1776 -0.2984 -0.1531
   49DOPE  H13R 6257   3.046   6.207  14.475  0.0536  0.3945  1.3508
   49DOPE  H13S 6258   3.206   6.211  14.378  0.5259  1.7330  0.9181
   49DOPE  C214 6259   3.225   6.246  14.586  0.4821  0.6290 -0.0989
   49DOPE  H14R 6260   3.328   6.202  14.591  0.7341  1.3098  0.9393
   49DOPE  H14S 6261   3.158   6.221  14.671 -0.5810 -1.1358 -1.3754
   49DOPE  C215 6262   3.244   6.396  14.570 -0.6954 -0.5238  0.7994
   49DOPE  H15R 6263   3.254   6.439  14.672  1.4018  2.3471 -0.4512
   49DOPE  H15S 6264   3.156   6.442  14.519  0.8397  1.3260 -0.3450
   49DOPE  C216 6265   3.367   6.442  14.486  0.3489  0.5437  0.3146
   49DOPE  H16R 6266   3.377   6.394  14.386 -0.1763 -1.4826  1.1768
   49DOPE  H16S 6267   3.454   6.396  14.539 -0.5124 -1.0985  0.3911
   49DOPE  C217 6268   3.373   6.593  14.465 -0.3672  0.1142 -0.3692
   49DOPE  H17R 6269   3.302   6.616  14.383 -0.1400  0.9686 -0.3348
   49DOPE  H17S 6270   3.472   6.616  14.419  0.1658  1.4144  1.2948
   49DOPE  C218 6271   3.353   6.680  14.588  0.1575  0.4913  0.3011
   49DOPE  H18R 6272   3.253   6.686  14.636  0.0376  1.6001 -0.0810
   49DOPE  H18S 6273   3.364   6.789  14.571  1.3935  0.8012  2.5804
   49DOPE  H18T 6274   3.428   6.647  14.663  0.4108  0.6649  0.1262
   49DOPE   C33 6275   2.435   5.116  13.683  0.1412 -0.6000 -0.9463
   49DOPE   H3X 6276   2.436   5.218  13.727  1.9450 -1.0392  0.1458
   49DOPE   H3Y 6277   2.541   5.103  13.653  0.1703  0.0845 -1.1593
   49DOPE   C34 6278   2.390   5.032  13.803 -0.2286 -0.3801  0.0997
   49DOPE   H4X 6279   2.280   5.050  13.804 -0.4184 -1.3241 -1.4945
   49DOPE   H4Y 6280   2.407   4.924  13.785 -0.1440 -0.2685 -0.5139
   49DOPE   C35 6281   2.472   5.058  13.934  0.5527 -0.4094  1.0949
   49DOPE   H5X 6282   2.433   5.159  13.958 -1.2918 -0.2793 -1.8388
   49DOPE   H5Y 6283   2.580   5.069  13.911  0.3507  2.4303  1.1509
   49DOPE   C36 6284   2.456   4.954  14.043  0.7097  0.1055  0.4821
   49DOPE   H6X 6285   2.498   4.864  13.995 -0.1263  0.9801 -2.0904
   49DOPE   H6Y 6286   2.350   4.927  14.062  0.6393 -0.4293 -0.6423
   49DOPE   C37 6287   2.537   4.989  14.171  0.6667 -0.3882  0.7083
   49DOPE   H7X 6288   2.556   4.899  14.233  2.4127 -0.5747 -0.0449
   49DOPE   H7Y 6289   2.636   5.028  14.139 -0.4343  2.2310  0.2443
   49DOPE   C38 6290   2.447   5.089  14.248  0.7111 -0.0173  0.4125
   49DOPE   H8X 6291   2.359   5.034  14.289  0.6779 -0.0840  0.2500
   49DOPE   H8Y 6292   2.422   5.173  14.180  1.5517 -0.9930 -1.1362
   49DOPE   C39 6293   2.524   5.159  14.355  0.6075 -0.4119  0.0368
   49DOPE   H9X 6294   2.557   5.261  14.327 -3.1949  1.3495  1.2904
   49DOPE  C310 6295   2.560   5.098  14.474 -0.3249  0.8189  0.8249
   49DOPE  H10X 6296   2.612   5.165  14.545  0.7520  2.4404 -1.3533
   49DOPE  C311 6297   2.510   4.966  14.530 -0.6343  0.8972 -0.5725
   49DOPE  H11X 6298   2.399   4.965  14.518 -0.6017  3.1505 -1.5308
   49DOPE  H11Y 6299   2.545   4.878  14.471  0.7888  1.6095 -0.8279
   49DOPE  C312 6300   2.538   4.940  14.679 -0.5572  0.1726  0.8678
   49DOPE  H12X 6301   2.649   4.935  14.692 -0.1022  0.8699 -2.0515
   49DOPE  H12Y 6302   2.506   4.839  14.713  0.1155 -0.2345  0.3189
   49DOPE  C313 6303   2.470   5.045  14.770  0.5172  0.1261 -0.6986
   49DOPE  H13X 6304   2.488   5.148  14.733 -0.1265  1.3095  2.0499
   49DOPE  H13Y 6305   2.361   5.026  14.770  0.0450  2.5612 -1.1531
   49DOPE  C314 6306   2.520   5.031  14.922  0.4248  0.2637  0.2069
   49DOPE  H14X 6307   2.621   5.076  14.929  0.8511 -0.8934  2.4920
   49DOPE  H14Y 6308   2.510   4.922  14.940 -0.5551  0.4437  0.8866
   49DOPE  C315 6309   2.424   5.114  15.007  0.0563 -0.2454 -0.7980
   49DOPE  H15X 6310   2.318   5.109  14.975 -0.7452 -1.5633  1.8094
   49DOPE  H15Y 6311   2.447   5.223  15.011  0.4861 -0.2799 -1.8683
   49DOPE  C316 6312   2.431   5.069  15.153 -0.7961 -0.2444  0.6433
   49DOPE  H16X 6313   2.429   4.958  15.158 -1.2589 -0.2137  1.1003
   49DOPE  H16Y 6314   2.339   5.098  15.207  0.2624  1.1139  1.8216
   49DOPE  C317 6315   2.560   5.121  15.227  0.1179  0.1037  0.0160
   49DOPE  H17X 6316   2.543   5.069  15.324 -0.8104 -2.8810 -1.5988
   49DOPE  H17Y 6317   2.650   5.072  15.184  1.2195  1.6113  0.5120
   49DOPE  C318 6318   2.577   5.275  15.235  0.0278  0.1430  0.1809
   49DOPE  H18X 6319   2.481   5.319  15.269 -1.4326 -2.9412  0.3752
   49DOPE  H18Y 6320   2.660   5.294  15.306  0.4417  2.0611 -0.7642
   49DOPE  H18Z 6321   2.597   5.319  15.135 -0.2992 -0.3821 -0.1236
   50DOPE     N 6322   1.846   2.696  13.098  0.1650  0.6284 -0.1561
   50DOPE   HN1 6323   1.830   2.798  13.109 -1.8994  0.1453  2.1285
   50DOPE   HN2 6324   1.931   2.663  13.148 -0.4289 -0.6588  0.0292
   50DOPE   HN3 6325   1.853   2.664  12.999  3.7062  1.6250 -0.3663
   50DOPE   C12 6326   1.721   2.642  13.155  0.3815 -0.2917 -1.1475
   50DOPE  H12A 6327   1.633   2.676  13.096  0.0713 -0.1584 -0.6132
   50DOPE  H12B 6328   1.706   2.664  13.263 -2.7494 -1.2319 -1.2729
   50DOPE   C11 6329   1.714   2.494  13.122  0.4633  0.5809 -0.0073
   50DOPE  H11A 6330   1.620   2.459  13.170 -0.4002  1.4920 -0.9997
   50DOPE  H11B 6331   1.789   2.436  13.181 -2.3849 -2.7283  0.6523
   50DOPE     P 6332   1.608   2.405  12.901  0.1612 -0.2042  0.1138
   50DOPE   O13 6333   1.621   2.258  12.888  0.1584 -0.3612  1.1108
   50DOPE   O14 6334   1.612   2.487  12.778  0.9554 -0.0216  0.1622
   50DOPE   O11 6335   1.475   2.440  12.986  0.9261 -0.2205  0.2413
   50DOPE   O12 6336   1.724   2.451  12.987 -0.8496  0.1017 -0.7588
   50DOPE    C1 6337   1.347   2.390  12.931 -0.5332 -0.5464  0.3620
   50DOPE    HA 6338   1.283   2.351  13.014 -0.0363 -0.3353  0.8529
   50DOPE    HB 6339   1.358   2.309  12.856  1.7715 -0.7191  0.8220
   50DOPE    C2 6340   1.279   2.506  12.863  0.1732  0.0395  0.3171
   50DOPE    HS 6341   1.367   2.559  12.821 -0.2591  1.3147  0.9948
   50DOPE   O21 6342   1.218   2.587  12.964  0.5667 -0.1191 -0.2462
   50DOPE   C21 6343   1.195   2.708  12.920 -0.0343  0.3165 -0.1084
   50DOPE   O22 6344   1.225   2.756  12.813 -0.2910 -0.7780  0.1490
   50DOPE   C22 6345   1.103   2.773  13.022  0.4418 -0.0467 -0.1551
   50DOPE   H2R 6346   1.130   2.744  13.126  0.4269  1.0175  0.1577
   50DOPE   H2S 6347   0.997   2.743  13.007  0.2886  0.3375  0.1460
   50DOPE    C3 6348   1.182   2.452  12.748  0.2883  0.3713 -0.3795
   50DOPE    HX 6349   1.239   2.395  12.672 -0.5425  1.0916 -1.5772
   50DOPE    HY 6350   1.147   2.542  12.692  1.3961 -0.6699 -2.9175
   50DOPE   O31 6351   1.070   2.372  12.798 -0.3312 -0.4926 -0.1001
   50DOPE   C31 6352   0.963   2.443  12.838 -0.1816  0.7597  0.3269
   50DOPE   O32 6353   0.948   2.565  12.834  0.2196  0.6129 -0.0204
   50DOPE   C32 6354   0.853   2.345  12.890  0.7089  0.0096 -0.3583
   50DOPE   H2X 6355   0.796   2.309  12.801 -2.8742  0.5338  1.5181
   50DOPE   H2Y 6356   0.901   2.258  12.939 -0.8345 -0.6471  0.0705
   50DOPE   C23 6357   1.087   2.932  13.016  0.0331  0.0166  0.3153
   50DOPE   H3R 6358   1.044   2.961  12.917 -0.3027  2.5705  1.1186
   50DOPE   H3S 6359   1.192   2.968  13.025  0.0700 -0.3307  1.3510
   50DOPE   C24 6360   1.004   2.990  13.127  0.4193 -0.6188 -0.7436
   50DOPE   H4R 6361   1.035   2.931  13.216  0.2104  0.8978  0.3848
   50DOPE   H4S 6362   0.896   2.962  13.124  0.4792 -0.7580 -2.0188
   50DOPE   C25 6363   1.026   3.136  13.160 -0.3455  0.0216  0.2193
   50DOPE   H5R 6364   0.997   3.190  13.068 -0.0325 -0.7280 -0.3272
   50DOPE   H5S 6365   1.136   3.153  13.170 -0.7216  3.3194 -0.0373
   50DOPE   C26 6366   0.956   3.191  13.289  0.5270  0.4030  0.8472
   50DOPE   H6R 6367   0.847   3.210  13.273  0.4993 -0.0036  0.5367
   50DOPE   H6S 6368   0.998   3.291  13.312 -0.1320  0.9642 -0.3125
   50DOPE   C27 6369   0.981   3.100  13.415 -0.5432  0.1212  0.3226
   50DOPE   H7R 6370   1.091   3.087  13.420 -0.3399  1.3340 -0.5646
   50DOPE   H7S 6371   0.930   3.001  13.423 -1.9618  0.8350  0.3760
   50DOPE   C28 6372   0.949   3.168  13.554  0.4400 -0.0086  0.0846
   50DOPE   H8R 6373   0.841   3.182  13.574 -0.7192  0.1314 -4.9350
   50DOPE   H8S 6374   0.987   3.270  13.534  1.7630 -0.6437 -0.7915
   50DOPE   C29 6375   1.028   3.108  13.667  0.7579  0.3273 -0.3641
   50DOPE   H9R 6376   1.061   3.004  13.656 -1.2168 -0.5466  1.4221
   50DOPE  C210 6377   1.067   3.179  13.780  0.9903  0.1283 -0.1657
   50DOPE  H10R 6378   1.121   3.119  13.855 -0.6165 -0.3864  0.6306
   50DOPE  C211 6379   1.039   3.323  13.802 -0.3308  0.2320  0.2640
   50DOPE  H11R 6380   0.975   3.344  13.890 -0.9812  2.0403 -0.5937
   50DOPE  H11S 6381   0.980   3.355  13.714 -2.4116 -0.6101  1.2756
   50DOPE  C212 6382   1.162   3.411  13.814 -0.2073 -0.2176 -0.1513
   50DOPE  H12R 6383   1.132   3.516  13.838  0.4516  0.0111 -0.3037
   50DOPE  H12S 6384   1.213   3.415  13.715  0.6927 -0.2264  0.3017
   50DOPE  C213 6385   1.259   3.367  13.927 -0.0745  0.2499  0.3631
   50DOPE  H13R 6386   1.354   3.411  13.891 -0.2346  1.8562  1.7777
   50DOPE  H13S 6387   1.275   3.257  13.933  1.6600  0.5055  0.9964
   50DOPE  C214 6388   1.224   3.426  14.063  0.3193 -0.5501 -0.0502
   50DOPE  H14R 6389   1.139   3.367  14.104 -1.0530  0.3037 -1.4951
   50DOPE  H14S 6390   1.206   3.535  14.049 -0.9217 -0.9235 -1.6872
   50DOPE  C215 6391   1.339   3.399  14.158 -0.4709  0.0671  0.0028
   50DOPE  H15R 6392   1.433   3.401  14.098  0.0596  0.1006  0.8185
   50DOPE  H15S 6393   1.326   3.293  14.189 -0.4444 -0.0621 -0.4281
   50DOPE  C216 6394   1.355   3.496  14.275 -0.5201  0.8084 -0.5097
   50DOPE  H16R 6395   1.407   3.586  14.237  1.1468 -0.0815 -0.4043
   50DOPE  H16S 6396   1.427   3.457  14.350  1.6566  2.4836 -1.6017
   50DOPE  C217 6397   1.226   3.525  14.345 -0.1791 -0.4462 -0.5792
   50DOPE  H17R 6398   1.161   3.575  14.269 -1.4223  1.1605  1.4210
   50DOPE  H17S 6399   1.244   3.606  14.419  0.3911 -0.1765 -1.0067
   50DOPE  C218 6400   1.150   3.409  14.420 -0.1183 -0.6886 -0.0185
   50DOPE  H18R 6401   1.126   3.334  14.342  0.7004  0.0596 -1.0225
   50DOPE  H18S 6402   1.057   3.451  14.464  0.9272 -0.3577  2.0133
   50DOPE  H18T 6403   1.205   3.369  14.508  0.4514  0.3501  0.1155
   50DOPE   C33 6404   0.735   2.412  12.970 -0.6506 -0.7615 -0.7846
   50DOPE   H3X 6405   0.657   2.337  12.993 -1.7720  0.9581  1.4723
   50DOPE   H3Y 6406   0.687   2.485  12.901  0.5093 -0.7805 -1.6568
   50DOPE   C34 6407   0.783   2.466  13.102 -0.4447  0.3785 -0.7794
   50DOPE   H4X 6408   0.873   2.529  13.097  1.1784 -1.5938  1.3197
   50DOPE   H4Y 6409   0.701   2.531  13.139  0.4367  1.4662 -0.7238
   50DOPE   C35 6410   0.802   2.355  13.202 -0.6255 -0.8421 -0.4242
   50DOPE   H5X 6411   0.882   2.283  13.174  0.2301  0.1872 -0.7081
   50DOPE   H5Y 6412   0.707   2.302  13.224 -0.6693 -1.0396 -1.0618
   50DOPE   C36 6413   0.853   2.416  13.337  0.0443  0.2788  0.3825
   50DOPE   H6X 6414   0.851   2.334  13.412  0.8685 -0.2812 -0.1940
   50DOPE   H6Y 6415   0.781   2.493  13.374 -0.3693 -0.7744  1.8396
   50DOPE   C37 6416   0.991   2.479  13.336  0.2092  0.3173  0.4643
   50DOPE   H7X 6417   1.065   2.397  13.328  0.2560  0.4841 -1.3180
   50DOPE   H7Y 6418   1.004   2.533  13.239 -4.3109 -0.5026 -0.8461
   50DOPE   C38 6419   1.017   2.573  13.454  0.0647 -0.9166 -0.0654
   50DOPE   H8X 6420   1.119   2.614  13.440  0.4866 -0.4761  3.4094
   50DOPE   H8Y 6421   1.018   2.528  13.556 -1.9670 -1.8032 -0.3810
   50DOPE   C39 6422   0.926   2.695  13.443  0.0094 -0.1439 -0.0757
   50DOPE   H9X 6423   0.891   2.726  13.343 -0.5140 -2.0405 -0.5253
   50DOPE  C310 6424   0.870   2.767  13.543  0.3284  0.6614 -0.8762
   50DOPE  H10X 6425   0.798   2.845  13.515 -0.5115 -0.4990 -2.0668
   50DOPE  C311 6426   0.884   2.739  13.691  0.1509  0.1088 -0.2115
   50DOPE  H11X 6427   0.839   2.639  13.709  1.3423 -0.1689  1.4091
   50DOPE  H11Y 6428   0.992   2.730  13.717  0.1990  1.3019  0.0741
   50DOPE  C312 6429   0.812   2.829  13.787 -0.3800 -0.0249  0.4062
   50DOPE  H12X 6430   0.845   2.935  13.783  0.8491 -0.3872  0.6831
   50DOPE  H12Y 6431   0.839   2.793  13.888 -1.0596 -1.3694  0.1396
   50DOPE  C313 6432   0.658   2.828  13.775 -0.2673 -0.0077 -0.3774
   50DOPE  H13X 6433   0.632   2.870  13.676 -2.0338 -2.3826 -1.0200
   50DOPE  H13Y 6434   0.615   2.725  13.778 -5.3447  1.7448 -2.4208
   50DOPE  C314 6435   0.592   2.897  13.903 -0.3730  0.5896 -0.0242
   50DOPE  H14X 6436   0.497   2.941  13.867 -0.1722 -0.3327 -1.7604
   50DOPE  H14Y 6437   0.652   2.979  13.947 -0.1243  0.2554  0.2630
   50DOPE  C315 6438   0.549   2.801  14.017  0.2273  0.0438  0.5441
   50DOPE  H15X 6439   0.629   2.725  14.030  0.1501  0.3771  3.8953
   50DOPE  H15Y 6440   0.459   2.739  13.997  0.8177 -1.3621  1.9926
   50DOPE  C316 6441   0.533   2.872  14.154  0.0894 -0.1026  0.0254
   50DOPE  H16X 6442   0.626   2.926  14.180 -0.6564  1.1554  0.1878
   50DOPE  H16Y 6443   0.510   2.791  14.227 -3.3283 -0.5458 -1.3334
   50DOPE  C317 6444   0.431   2.987  14.167 -0.3707  0.3437  0.3942
   50DOPE  H17X 6445   0.464   3.057  14.247 -0.3384  0.1192  0.5791
   50DOPE  H17Y 6446   0.446   3.051  14.077  2.1207  1.7886  1.7237
   50DOPE  C318 6447   0.298   2.937  14.180  0.0635  0.4707  0.2262
   50DOPE  H18X 6448   0.223   3.018  14.169 -1.7410 -0.6925  2.9271
   50DOPE  H18Y 6449   0.273   2.853  14.112  1.6620  0.3252 -0.2201
   50DOPE  H18Z 6450   0.277   2.891  14.279 -1.2622  1.2862  0.3491
   51DOPE     N 6451   4.403   6.469  12.863  0.0674  0.3273 -0.4684
   51DOPE   HN1 6452   4.361   6.377  12.887  1.0993 -0.7752 -2.6281
   51DOPE   HN2 6453   4.463   6.467  12.778  1.6762  0.8078  0.6068
   51DOPE   HN3 6454   4.470   6.497  12.938  0.6361 -0.3807 -0.6959
   51DOPE   C12 6455   4.300   6.583  12.840  0.0390 -0.8439 -0.4830
   51DOPE  H12A 6456   4.221   6.535  12.778 -0.2476 -0.3139 -0.5362
   51DOPE  H12B 6457   4.346   6.670  12.789  0.1297  0.8413  2.2481
   51DOPE   C11 6458   4.234   6.610  12.977 -0.0283 -0.2248  0.0765
   51DOPE  H11A 6459   4.314   6.629  13.052 -1.7102  1.0753  1.6558
   51DOPE  H11B 6460   4.178   6.518  13.005  0.4578 -1.3064 -2.3376
   51DOPE     P 6461   4.001   6.716  12.924  0.0234  0.6662 -0.4828
   51DOPE   O13 6462   3.992   6.741  12.782 -0.0541  0.3622 -0.6662
   51DOPE   O14 6463   3.914   6.799  13.010 -0.4488  0.0244 -0.5398
   51DOPE   O11 6464   3.968   6.563  12.946  0.0042  0.3989 -0.4548
   51DOPE   O12 6465   4.151   6.730  12.973 -0.0754  0.4376  0.1147
   51DOPE    C1 6466   3.843   6.507  12.964  0.3154 -0.2815  0.3561
   51DOPE    HA 6467   3.817   6.432  12.886  2.0856 -0.9968  0.4018
   51DOPE    HB 6468   3.760   6.581  12.966 -0.8381 -1.4568 -1.3668
   51DOPE    C2 6469   3.840   6.427  13.095 -0.8159  0.2678 -0.1672
   51DOPE    HS 6470   3.736   6.400  13.124 -0.1105 -2.2492  0.2763
   51DOPE   O21 6471   3.923   6.483  13.199  0.8548 -0.5442 -0.4768
   51DOPE   C21 6472   3.861   6.589  13.249  0.1044  0.9847  1.0915
   51DOPE   O22 6473   3.744   6.617  13.248 -0.0232  0.4472 -0.3523
   51DOPE   C22 6474   3.960   6.668  13.325 -0.6855 -0.0347 -0.7133
   51DOPE   H2R 6475   3.945   6.774  13.295 -0.2808  0.1001 -0.4580
   51DOPE   H2S 6476   4.056   6.638  13.279 -1.2909 -2.7774 -0.3611
   51DOPE    C3 6477   3.903   6.289  13.053 -0.6688 -0.0951  0.7611
   51DOPE    HX 6478   3.995   6.319  12.999 -0.0376 -0.6617  1.5042
   51DOPE    HY 6479   3.842   6.241  12.973  0.0305 -0.4201  0.4130
   51DOPE   O31 6480   3.945   6.205  13.153 -0.0953  0.1929 -0.4025
   51DOPE   C31 6481   3.841   6.147  13.217  0.0439  0.0779 -0.6574
   51DOPE   O32 6482   3.728   6.149  13.174  0.4562 -0.0502 -0.0969
   51DOPE   C32 6483   3.893   6.075  13.340  0.9995  0.1318 -0.5635
   51DOPE   H2X 6484   3.820   5.995  13.364 -0.5168  1.8110  0.7324
   51DOPE   H2Y 6485   3.993   6.028  13.330  0.5764 -0.5075 -1.9254
   51DOPE   C23 6486   3.954   6.646  13.477 -0.3846 -0.4054  0.0395
   51DOPE   H3R 6487   4.053   6.631  13.524 -0.3523  1.6990  0.7707
   51DOPE   H3S 6488   3.893   6.555  13.495 -0.0198 -0.6654 -0.0304
   51DOPE   C24 6489   3.888   6.769  13.544  0.6137 -0.0932  0.0076
   51DOPE   H4R 6490   3.782   6.784  13.514  0.9155  2.4520 -0.0567
   51DOPE   H4S 6491   3.946   6.857  13.511  0.6403  0.9016  2.4324
   51DOPE   C25 6492   3.896   6.741  13.695 -0.1034  0.2537  0.1433
   51DOPE   H5R 6493   3.998   6.706  13.718 -0.0439 -0.5041 -1.2052
   51DOPE   H5S 6494   3.826   6.656  13.712  0.7749 -0.2384  1.4485
   51DOPE   C26 6495   3.848   6.851  13.791  0.2667 -0.4742 -0.4717
   51DOPE   H6R 6496   3.744   6.880  13.762 -0.3140 -2.4269 -0.5030
   51DOPE   H6S 6497   3.916   6.937  13.801  0.9798 -1.1940  1.3306
   51DOPE   C27 6498   3.835   6.786  13.932 -0.1323  0.2858  0.3978
   51DOPE   H7R 6499   3.933   6.737  13.950 -0.5828 -0.5226  0.6507
   51DOPE   H7S 6500   3.751   6.714  13.934 -0.0689  0.1640 -0.6671
   51DOPE   C28 6501   3.819   6.900  14.035  0.2004 -0.8723 -0.2258
   51DOPE   H8R 6502   3.720   6.942  14.006 -0.8062 -2.4689  0.7726
   51DOPE   H8S 6503   3.907   6.968  14.034 -0.5704  0.1624 -0.0680
   51DOPE   C29 6504   3.794   6.858  14.175  0.1951 -0.0304  0.9331
   51DOPE   H9R 6505   3.767   6.751  14.174  2.3168 -0.6318 -0.9984
   51DOPE  C210 6506   3.820   6.928  14.283 -0.5501 -0.2081  0.1222
   51DOPE  H10R 6507   3.774   6.886  14.374 -0.9399 -0.4323 -0.1714
   51DOPE  C211 6508   3.865   7.071  14.305  0.2313 -0.2007  0.4270
   51DOPE  H11R 6509   3.911   7.106  14.210  2.2240  1.0611  1.7734
   51DOPE  H11S 6510   3.944   7.074  14.382  1.5698 -2.3799 -0.7693
   51DOPE  C212 6511   3.756   7.173  14.323 -0.3411  0.1925  0.0781
   51DOPE  H12R 6512   3.680   7.163  14.243  0.9462 -2.2468 -0.9588
   51DOPE  H12S 6513   3.801   7.274  14.319  1.2530 -0.4125  1.2586
   51DOPE  C213 6514   3.670   7.158  14.445  0.1338  0.0697 -0.1095
   51DOPE  H13R 6515   3.736   7.154  14.534  1.2215  1.8971 -0.7849
   51DOPE  H13S 6516   3.602   7.071  14.434  1.0293 -0.4056 -2.2710
   51DOPE  C214 6517   3.579   7.273  14.481 -0.8796  0.4433 -0.5388
   51DOPE  H14R 6518   3.501   7.287  14.403 -0.6824 -2.1934 -1.2872
   51DOPE  H14S 6519   3.634   7.369  14.495 -0.5023  0.0494  0.8054
   51DOPE  C215 6520   3.503   7.247  14.613 -0.2414 -0.8439  0.0133
   51DOPE  H15R 6521   3.571   7.249  14.701 -0.5469 -0.6193  0.2491
   51DOPE  H15S 6522   3.461   7.145  14.606  0.1277 -0.9315 -1.1375
   51DOPE  C216 6523   3.381   7.337  14.633  0.3555  0.5397 -0.0691
   51DOPE  H16R 6524   3.307   7.284  14.697  1.8533 -1.4823  0.1004
   51DOPE  H16S 6525   3.338   7.365  14.535  1.4290 -0.2049 -0.7783
   51DOPE  C217 6526   3.421   7.476  14.685 -0.2141 -0.3285 -0.2528
   51DOPE  H17R 6527   3.476   7.525  14.603  0.5966  0.8470  0.9494
   51DOPE  H17S 6528   3.493   7.465  14.769  2.1480  1.1154 -1.9748
   51DOPE  C218 6529   3.306   7.568  14.731 -0.3223  0.2133  1.0226
   51DOPE  H18R 6530   3.248   7.587  14.638  2.6382  1.4770 -0.7131
   51DOPE  H18S 6531   3.348   7.661  14.774 -0.7936 -0.0051  1.9857
   51DOPE  H18T 6532   3.251   7.511  14.809 -0.0276 -1.1819  0.2499
   51DOPE   C33 6533   3.910   6.161  13.472  0.2567 -0.4995  0.3975
   51DOPE   H3X 6534   3.974   6.248  13.445 -1.7781  0.8546 -0.2441
   51DOPE   H3Y 6535   3.966   6.109  13.552  2.7179  0.3121 -0.6979
   51DOPE   C34 6536   3.775   6.194  13.531 -0.9321  0.1474 -0.6776
   51DOPE   H4X 6537   3.710   6.221  13.445  0.0978  0.9148 -1.2539
   51DOPE   H4Y 6538   3.731   6.102  13.573 -1.6139  0.7732 -0.0057
   51DOPE   C35 6539   3.775   6.311  13.635  0.0980  0.3246  0.3648
   51DOPE   H5X 6540   3.676   6.310  13.686 -0.2949  0.6662 -0.3666
   51DOPE   H5Y 6541   3.771   6.406  13.578  1.2802 -0.1370 -0.5267
   51DOPE   C36 6542   3.887   6.309  13.739  0.5302  0.2043  0.2397
   51DOPE   H6X 6543   3.873   6.395  13.807 -1.7294 -0.9258  1.3211
   51DOPE   H6Y 6544   3.979   6.304  13.677 -0.0513 -2.2030 -0.5504
   51DOPE   C37 6545   3.887   6.177  13.827  0.3504 -0.4817  1.4368
   51DOPE   H7X 6546   3.884   6.098  13.749 -0.3562  0.9117 -0.0047
   51DOPE   H7Y 6547   3.978   6.159  13.888  2.0035  1.6458 -0.2047
   51DOPE   C38 6548   3.761   6.159  13.913 -0.2273  0.5353 -0.3815
   51DOPE   H8X 6549   3.760   6.053  13.946  2.0742  1.1155  1.8927
   51DOPE   H8Y 6550   3.674   6.173  13.846  0.1241 -1.8110 -1.4570
   51DOPE   C39 6551   3.736   6.245  14.039  0.1381  0.2076  0.2077
   51DOPE   H9X 6552   3.759   6.351  14.019 -1.8316  0.5352 -0.5054
   51DOPE  C310 6553   3.685   6.213  14.159 -0.1739  0.7310 -0.7874
   51DOPE  H10X 6554   3.670   6.290  14.236  0.3046 -1.0025  1.1469
   51DOPE  C311 6555   3.643   6.068  14.193 -0.0990  0.3214 -0.0006
   51DOPE  H11X 6556   3.558   6.045  14.124 -0.0869 -1.0550  0.4109
   51DOPE  H11Y 6557   3.719   5.990  14.174  0.0932  0.8434 -1.5588
   51DOPE  C312 6558   3.604   6.057  14.345  0.2683 -0.0577 -0.1309
   51DOPE  H12X 6559   3.545   6.139  14.390  1.7923  0.1987  1.5171
   51DOPE  H12Y 6560   3.699   6.040  14.401  0.9845 -0.4566 -1.4373
   51DOPE  C313 6561   3.522   5.931  14.379 -0.5712  0.7489  0.3120
   51DOPE  H13X 6562   3.416   5.939  14.345 -0.1269  0.1532 -1.3071
   51DOPE  H13Y 6563   3.571   5.847  14.325  0.4757  0.4495  1.6748
   51DOPE  C314 6564   3.519   5.881  14.523  0.6401  0.2072 -0.6186
   51DOPE  H14X 6565   3.451   5.795  14.537 -1.9818  2.3222  0.5854
   51DOPE  H14Y 6566   3.471   5.952  14.593 -0.0599 -1.5274  0.7344
   51DOPE  C315 6567   3.651   5.825  14.578 -0.0522 -0.0774  0.2501
   51DOPE  H15X 6568   3.722   5.911  14.580 -1.7676  1.4334 -0.4235
   51DOPE  H15Y 6569   3.683   5.749  14.504 -0.0577 -1.6031  1.7563
   51DOPE  C316 6570   3.634   5.749  14.713 -0.1998 -0.1736  0.2773
   51DOPE  H16X 6571   3.582   5.653  14.694 -0.6345  0.4809 -2.1402
   51DOPE  H16Y 6572   3.555   5.803  14.769 -0.4450  1.1630 -1.2982
   51DOPE  C317 6573   3.762   5.737  14.793 -0.0236 -0.1694  0.5971
   51DOPE  H17X 6574   3.799   5.841  14.802  0.9854 -0.3654 -0.9519
   51DOPE  H17Y 6575   3.725   5.717  14.896 -0.0061  1.0162  0.8425
   51DOPE  C318 6576   3.862   5.636  14.749 -0.8693  0.2813  0.5474
   51DOPE  H18X 6577   3.810   5.539  14.734 -0.7007  0.1788  0.6354
   51DOPE  H18Y 6578   3.909   5.667  14.653 -0.0782 -0.5527  0.6579
   51DOPE  H18Z 6579   3.946   5.625  14.821  1.8346  1.1183 -2.2460
   52DOPE     N 6580   0.364   3.710  12.682  0.0696 -0.1343  0.1783
   52DOPE   HN1 6581   0.384   3.626  12.624  0.0427  0.7774 -1.2014
   52DOPE   HN2 6582   0.338   3.788  12.618  0.7892 -1.0990 -1.3510
   52DOPE   HN3 6583   0.458   3.733  12.719 -0.3430  1.1167  0.5140
   52DOPE   C12 6584   0.290   3.693  12.815  0.2320 -0.2033  0.0532
   52DOPE  H12A 6585   0.182   3.695  12.790  0.5861  0.3963 -1.5275
   52DOPE  H12B 6586   0.317   3.777  12.882  0.2857 -0.6592  0.6163
   52DOPE   C11 6587   0.350   3.575  12.890 -0.4592  0.2341  0.2160
   52DOPE  H11A 6588   0.320   3.484  12.834 -1.1035  0.8782 -0.5164
   52DOPE  H11B 6589   0.309   3.561  12.992  2.2801 -1.9988  1.1431
   52DOPE     P 6590   0.572   3.471  12.948  0.2702 -0.4837 -0.6829
   52DOPE   O13 6591   0.688   3.528  13.017 -0.0852 -0.3515  0.0769
   52DOPE   O14 6592   0.591   3.376  12.833 -0.7161  0.3812 -0.2955
   52DOPE   O11 6593   0.488   3.393  13.056  0.1859 -0.2667  0.0999
   52DOPE   O12 6594   0.489   3.598  12.900  0.0082 -0.0776  0.3861
   52DOPE    C1 6595   0.545   3.395  13.194 -0.3611  0.7224 -0.8507
   52DOPE    HA 6596   0.577   3.498  13.220  0.2723  0.6124 -1.1591
   52DOPE    HB 6597   0.643   3.343  13.184 -0.9097 -0.3591 -0.7070
   52DOPE    C2 6598   0.475   3.316  13.301  0.8168  0.2427 -0.0350
   52DOPE    HS 6599   0.532   3.326  13.396 -0.1593 -0.9620  0.7200
   52DOPE   O21 6600   0.468   3.178  13.256  0.1232 -0.0915  0.5256
   52DOPE   C21 6601   0.479   3.085  13.346 -0.1533  0.5054 -0.6824
   52DOPE   O22 6602   0.508   3.101  13.465 -0.6840 -0.4564 -0.1024
   52DOPE   C22 6603   0.468   2.946  13.285 -0.1354  0.0225  0.3087
   52DOPE   H2R 6604   0.561   2.920  13.229 -0.8181 -3.1046  0.4556
   52DOPE   H2S 6605   0.385   2.938  13.211 -2.1701  1.2482  2.3150
   52DOPE    C3 6606   0.322   3.361  13.326  0.7020 -0.1465 -0.2380
   52DOPE    HX 6607   0.257   3.318  13.247  0.2290 -1.0705  0.6304
   52DOPE    HY 6608   0.323   3.472  13.313  3.1042 -0.3733 -3.1923
   52DOPE   O31 6609   0.272   3.314  13.458 -0.2863  0.6244  0.0453
   52DOPE   C31 6610   0.161   3.372  13.493 -0.4108 -0.0901  0.7223
   52DOPE   O32 6611   0.108   3.471  13.441 -0.4752 -0.1274  0.7339
   52DOPE   C32 6612   0.115   3.311  13.620  0.1371  0.4127 -0.4931
   52DOPE   H2X 6613   0.125   3.200  13.614 -0.8271  0.2615  0.3947
   52DOPE   H2Y 6614   0.173   3.343  13.709 -2.0944  1.6787  0.5775
   52DOPE   C23 6615   0.460   2.833  13.391 -0.1515 -1.0984  0.4113
   52DOPE   H3R 6616   0.380   2.861  13.462  0.5542  1.7513  0.2141
   52DOPE   H3S 6617   0.550   2.828  13.457  1.8183  1.4031 -1.8562
   52DOPE   C24 6618   0.427   2.698  13.331  0.0218  0.4613  0.9196
   52DOPE   H4R 6619   0.505   2.676  13.254 -1.3597 -0.2417 -0.3211
   52DOPE   H4S 6620   0.324   2.692  13.290  0.3558 -2.7250  0.3256
   52DOPE   C25 6621   0.431   2.581  13.429 -0.4815 -0.1601 -0.3924
   52DOPE   H5R 6622   0.517   2.587  13.499 -1.5834 -0.5891  1.0474
   52DOPE   H5S 6623   0.455   2.492  13.367 -1.2322  0.2455 -1.2924
   52DOPE   C26 6624   0.317   2.550  13.531  0.6223  0.3583  0.6661
   52DOPE   H6R 6625   0.247   2.482  13.479 -0.8000  0.8538  1.8541
   52DOPE   H6S 6626   0.259   2.643  13.549  0.3321  0.1150  0.9922
   52DOPE   C27 6627   0.368   2.477  13.659 -0.6035 -0.0770  0.2967
   52DOPE   H7R 6628   0.459   2.524  13.702 -0.2818 -1.3490  1.0366
   52DOPE   H7S 6629   0.415   2.383  13.622  3.2874  1.7092  0.2011
   52DOPE   C28 6630   0.251   2.437  13.748 -0.0468 -0.2752  0.9985
   52DOPE   H8R 6631   0.279   2.348  13.809 -1.0323 -1.6429 -0.4893
   52DOPE   H8S 6632   0.167   2.408  13.682  1.2800  0.9631 -1.3854
   52DOPE   C29 6633   0.210   2.544  13.846  0.4030  0.2789 -0.8375
   52DOPE   H9R 6634   0.187   2.638  13.794  1.8403  1.8865  1.2934
   52DOPE  C210 6635   0.208   2.529  13.981 -0.1698  0.5866 -0.4905
   52DOPE  H10R 6636   0.180   2.622  14.034  0.0499  0.2464  0.2189
   52DOPE  C211 6637   0.233   2.412  14.077 -0.0080  0.2305  0.6198
   52DOPE  H11R 6638   0.293   2.330  14.031 -0.8566  0.0523 -0.1968
   52DOPE  H11S 6639   0.136   2.361  14.097  0.0450 -1.0241 -1.9071
   52DOPE  C212 6640   0.305   2.471  14.198 -0.5338  0.2432  0.4103
   52DOPE  H12R 6641   0.392   2.528  14.160 -1.4865  1.4666  0.0088
   52DOPE  H12S 6642   0.339   2.385  14.259 -1.9057 -0.3578  0.3671
   52DOPE  C213 6643   0.213   2.548  14.288 -0.6466  0.7077 -0.1475
   52DOPE  H13R 6644   0.121   2.493  14.319  0.7008 -2.0643 -0.7781
   52DOPE  H13S 6645   0.160   2.627  14.231  0.3532  1.1716 -0.4485
   52DOPE  C214 6646   0.275   2.604  14.413 -0.0795 -0.5381 -0.0727
   52DOPE  H14R 6647   0.212   2.683  14.460  0.2305  0.7487 -1.7122
   52DOPE  H14S 6648   0.369   2.657  14.387  0.7984 -2.2216 -0.4568
   52DOPE  C215 6649   0.315   2.498  14.519  0.3485  0.3123 -0.2552
   52DOPE  H15R 6650   0.400   2.443  14.473 -1.3984  0.3732 -3.8705
   52DOPE  H15S 6651   0.230   2.427  14.516 -1.5284  2.4329  0.4845
   52DOPE  C216 6652   0.345   2.553  14.660 -0.7903 -0.3012  0.0706
   52DOPE  H16R 6653   0.420   2.632  14.641 -1.5421  0.1694 -1.0581
   52DOPE  H16S 6654   0.395   2.463  14.702 -0.0868  0.0410 -0.0299
   52DOPE  C217 6655   0.226   2.594  14.744 -0.2662  0.0975 -0.5488
   52DOPE  H17R 6656   0.133   2.609  14.686 -1.1411 -1.2840  0.4088
   52DOPE  H17S 6657   0.241   2.689  14.799  2.9963 -0.3568 -0.4693
   52DOPE  C218 6658   0.188   2.481  14.840  0.1310  0.2020  0.4006
   52DOPE  H18R 6659   0.101   2.500  14.907  2.3893  1.5918  3.1086
   52DOPE  H18S 6660   0.175   2.382  14.791  0.1030  0.5269 -0.2695
   52DOPE  H18T 6661   0.275   2.455  14.903 -1.1448 -2.9863  1.0340
   52DOPE   C33 6662  -0.036   3.342  13.639  0.0278 -0.0378 -0.1684
   52DOPE   H3X 6663  -0.098   3.313  13.551  0.5573 -2.6645  0.2281
   52DOPE   H3Y 6664  -0.043   3.452  13.651 -2.1683 -0.3560  2.1758
   52DOPE   C34 6665  -0.096   3.266  13.760 -0.2292 -0.1769 -0.4797
   52DOPE   H4X 6666  -0.083   3.158  13.736 -2.2366 -0.8085  1.0725
   52DOPE   H4Y 6667  -0.022   3.282  13.841 -0.8208 -0.5894  0.1547
   52DOPE   C35 6668  -0.232   3.312  13.805  0.7238 -0.2914  0.4384
   52DOPE   H5X 6669  -0.313   3.287  13.733  1.9014 -1.1705 -0.6303
   52DOPE   H5Y 6670  -0.232   3.423  13.809 -0.4915 -0.2318 -0.6594
   52DOPE   C36 6671  -0.264   3.266  13.948  0.4367  0.2713 -0.7154
   52DOPE   H6X 6672  -0.177   3.278  14.015 -1.8091  2.1047  2.1288
   52DOPE   H6Y 6673  -0.287   3.159  13.932  0.6785  0.2702 -1.0623
   52DOPE   C37 6674  -0.375   3.335  14.033  0.2164  0.2564 -0.0684
   52DOPE   H7X 6675  -0.354   3.441  14.062 -0.1552  0.6633 -1.2215
   52DOPE   H7Y 6676  -0.474   3.337  13.983  0.1217  0.6550  0.1304
   52DOPE   C38 6677  -0.385   3.271  14.170 -0.7261  0.4400  0.8439
   52DOPE   H8X 6678  -0.292   3.277  14.229  0.1316  0.1819 -0.4300
   52DOPE   H8Y 6679  -0.402   3.164  14.146  2.0439  0.4458 -1.6706
   52DOPE   C39 6680  -0.479   3.330  14.270  0.1688  0.5430 -0.0024
   52DOPE   H9X 6681  -0.501   3.433  14.238  1.6603  0.7462 -0.4609
   52DOPE  C310 6682  -0.549   3.269  14.367  0.3983 -0.2822  0.8961
   52DOPE  H10X 6683  -0.609   3.329  14.437 -0.8731  0.9446 -1.1433
   52DOPE  C311 6684  -0.542   3.128  14.414  0.1468  0.0156 -0.8359
   52DOPE  H11X 6685  -0.637   3.070  14.411  0.3419 -0.3967  0.2302
   52DOPE  H11Y 6686  -0.464   3.074  14.356  1.0419  0.3393  0.0368
   52DOPE  C312 6687  -0.490   3.118  14.558  0.3454 -0.3059 -0.8462
   52DOPE  H12X 6688  -0.383   3.146  14.565  0.2925 -0.1577 -0.6031
   52DOPE  H12Y 6689  -0.493   3.009  14.580 -3.4281 -0.0484  0.6499
   52DOPE  C313 6690  -0.588   3.183  14.660 -0.0377  0.4597 -0.1671
   52DOPE  H13X 6691  -0.600   3.291  14.637  0.4681  0.2584 -1.4785
   52DOPE  H13Y 6692  -0.689   3.139  14.643  0.8264 -1.8050  0.1778
   52DOPE  C314 6693  -0.552   3.154  14.810  0.0942  0.0647  0.8830
   52DOPE  H14X 6694  -0.639   3.183  14.872 -2.4981 -2.6018 -1.1945
   52DOPE  H14Y 6695  -0.463   3.217  14.833  0.8251  0.0877 -1.7141
   52DOPE  C315 6696  -0.517   3.008  14.843 -0.2832  0.0344 -0.5590
   52DOPE  H15X 6697  -0.430   2.980  14.780  0.6174 -1.5789  1.2816
   52DOPE  H15Y 6698  -0.602   2.947  14.806 -0.8902  0.7565 -0.4011
   52DOPE  C316 6699  -0.499   2.982  14.995  0.8345  0.6413  0.6433
   52DOPE  H16X 6700  -0.567   2.905  15.037  0.5228  0.6049  0.0893
   52DOPE  H16Y 6701  -0.536   3.071  15.050 -0.3514  0.6939 -0.1842
   52DOPE  C317 6702  -0.354   2.956  15.037  0.0245 -0.0241  0.1745
   52DOPE  H17X 6703  -0.317   2.866  14.983  0.0899 -0.6135  1.1818
   52DOPE  H17Y 6704  -0.289   3.040  15.003  2.6891 -1.5686  1.1115
   52DOPE  C318 6705  -0.331   2.940  15.189  0.1246  0.6332  0.8222
   52DOPE  H18X 6706  -0.224   2.930  15.215  0.3488  0.6521 -0.0560
   52DOPE  H18Y 6707  -0.379   3.022  15.246 -1.0604 -0.5641  1.6124
   52DOPE  H18Z 6708  -0.390   2.848  15.209  1.6679 -0.9087 -1.2262
   53DOPE     N 6709   7.468   5.167  13.067  0.3119 -0.0918 -0.6104
   53DOPE   HN1 6710   7.532   5.233  13.018 -1.9557  2.4429 -0.4606
   53DOPE   HN2 6711   7.519   5.079  13.086 -0.6167 -0.6997 -0.9007
   53DOPE   HN3 6712   7.390   5.145  13.002 -1.0452  0.2160  0.8507
   53DOPE   C12 6713   7.418   5.237  13.196  0.7802 -0.0507  0.4300
   53DOPE  H12A 6714   7.510   5.258  13.255  1.1557  1.8263 -0.7425
   53DOPE  H12B 6715   7.338   5.174  13.241 -2.3612  2.1834 -1.5592
   53DOPE   C11 6716   7.351   5.373  13.149  0.4164  0.0623 -0.0398
   53DOPE  H11A 6717   7.417   5.423  13.075 -0.7950  0.7270 -0.7001
   53DOPE  H11B 6718   7.342   5.442  13.236 -0.5271 -0.7933  0.5511
   53DOPE     P 6719   7.093   5.386  13.107 -0.1318  0.4403 -0.2478
   53DOPE   O13 6720   7.046   5.287  13.212  0.0301 -0.6765 -0.2458
   53DOPE   O14 6721   7.011   5.407  12.990  0.2068 -0.5938 -0.3691
   53DOPE   O11 6722   7.110   5.528  13.173 -0.6447 -0.4979 -0.5171
   53DOPE   O12 6723   7.239   5.352  13.069 -0.2352  0.0218  0.2416
   53DOPE    C1 6724   7.001   5.615  13.206 -0.0254  0.0014 -0.0099
   53DOPE    HA 6725   6.913   5.588  13.144  1.2379 -1.8531 -1.1197
   53DOPE    HB 6726   7.025   5.717  13.169  0.7556 -0.7638 -1.7614
   53DOPE    C2 6727   6.974   5.627  13.356 -1.3307 -0.0950 -0.0661
   53DOPE    HS 6728   7.062   5.684  13.393 -1.1556 -0.6415  0.3767
   53DOPE   O21 6729   6.957   5.498  13.413 -0.1101 -0.1860  0.3769
   53DOPE   C21 6730   7.056   5.440  13.472 -0.5975  0.0803  0.6405
   53DOPE   O22 6731   7.171   5.484  13.483 -0.1955 -0.6932 -0.9071
   53DOPE   C22 6732   7.015   5.307  13.524 -0.3291 -0.0296 -0.3537
   53DOPE   H2R 6733   7.098   5.250  13.570 -0.9067  0.0230  0.7926
   53DOPE   H2S 6734   6.977   5.251  13.436 -4.5109  3.1136 -0.8558
   53DOPE    C3 6735   6.845   5.717  13.382 -0.1940  0.2188  0.6009
   53DOPE    HX 6736   6.748   5.664  13.366 -0.2506  0.2522  0.8300
   53DOPE    HY 6737   6.852   5.806  13.317  1.3537  1.0244  1.8043
   53DOPE   O31 6738   6.842   5.766  13.520  0.2605 -0.4560 -0.1089
   53DOPE   C31 6739   6.728   5.822  13.561  0.1826  0.0292 -0.0869
   53DOPE   O32 6740   6.630   5.847  13.491  0.5479  0.4039 -0.1713
   53DOPE   C32 6741   6.742   5.833  13.717  0.7138  0.6167 -0.7792
   53DOPE   H2X 6742   6.785   5.738  13.753  0.5205  0.9206  0.2911
   53DOPE   H2Y 6743   6.817   5.912  13.739 -0.3190  0.9451  1.8584
   53DOPE   C23 6744   6.895   5.314  13.622 -0.1061  0.2799 -0.4820
   53DOPE   H3R 6745   6.868   5.215  13.664  1.0807 -0.5453 -1.5742
   53DOPE   H3S 6746   6.811   5.352  13.560  0.0439 -0.3250 -1.0664
   53DOPE   C24 6747   6.903   5.417  13.734  0.2362 -0.4060 -0.6304
   53DOPE   H4R 6748   6.908   5.521  13.696  1.2884  1.0020  2.9939
   53DOPE   H4S 6749   6.989   5.390  13.799  0.1942  1.1296  0.0791
   53DOPE   C25 6750   6.783   5.405  13.827  0.9329  0.2104 -0.4145
   53DOPE   H5R 6751   6.768   5.295  13.836  2.4566  0.1484  2.2446
   53DOPE   H5S 6752   6.700   5.461  13.778 -1.1804 -0.1307  2.5509
   53DOPE   C26 6753   6.821   5.465  13.964  0.5040 -0.0481  0.3925
   53DOPE   H6R 6754   6.871   5.564  13.954 -0.2067  0.5036  1.9113
   53DOPE   H6S 6755   6.903   5.397  13.995  1.7518  0.7191 -1.1145
   53DOPE   C27 6756   6.701   5.481  14.060 -0.1559  0.0878 -0.0661
   53DOPE   H7R 6757   6.672   5.384  14.106 -0.2089 -0.7453 -1.7731
   53DOPE   H7S 6758   6.609   5.504  14.002  0.0716  0.2417 -0.3685
   53DOPE   C28 6759   6.714   5.593  14.158  0.6454  0.7440 -0.2016
   53DOPE   H8R 6760   6.621   5.599  14.219  0.1100 -1.7813 -0.6928
   53DOPE   H8S 6761   6.704   5.688  14.101 -1.4487  0.5218 -0.2988
   53DOPE   C29 6762   6.837   5.578  14.245  0.4124 -0.3443  0.1279
   53DOPE   H9R 6763   6.861   5.486  14.300  1.1476  0.8887  1.9859
   53DOPE  C210 6764   6.923   5.674  14.270 -0.0881  0.0704  0.8743
   53DOPE  H10R 6765   6.994   5.652  14.352  1.4023 -0.8348 -0.5873
   53DOPE  C211 6766   6.927   5.814  14.218 -0.1690 -0.3129 -0.2156
   53DOPE  H11R 6767   6.958   5.870  14.309  0.1630 -1.2740  0.2758
   53DOPE  H11S 6768   6.826   5.850  14.193  0.8432 -0.1996 -5.1481
   53DOPE  C212 6769   7.030   5.842  14.104 -0.2635 -0.0221  0.3000
   53DOPE  H12R 6770   7.000   5.800  14.006  0.1904 -0.4887  0.3628
   53DOPE  H12S 6771   7.129   5.803  14.134 -0.0665  0.7414  0.6757
   53DOPE  C213 6772   7.057   5.995  14.071 -0.5419 -0.0385 -0.7583
   53DOPE  H13R 6773   7.119   6.009  13.980  0.6788  0.4569  0.1343
   53DOPE  H13S 6774   7.125   6.021  14.154  0.5130 -4.4409  0.0062
   53DOPE  C214 6775   6.930   6.086  14.061  0.3565  0.1172 -0.2134
   53DOPE  H14R 6776   6.871   6.062  14.152 -1.5449 -2.2298 -1.9193
   53DOPE  H14S 6777   6.857   6.054  13.982 -0.7186 -0.8312  1.1127
   53DOPE  C215 6778   6.973   6.242  14.064  0.1954  0.2437  0.2591
   53DOPE  H15R 6779   7.029   6.253  14.160 -1.1178 -1.0991  1.2262
   53DOPE  H15S 6780   6.872   6.287  14.080  0.5504  1.0505  0.2719
   53DOPE  C216 6781   7.046   6.275  13.940 -0.3759 -0.5607 -0.5883
   53DOPE  H16R 6782   7.141   6.217  13.938  0.8268  1.2814  0.3780
   53DOPE  H16S 6783   7.083   6.379  13.931  0.1151 -0.7449 -0.7419
   53DOPE  C217 6784   6.964   6.258  13.805  0.2765  0.0578 -0.4331
   53DOPE  H17R 6785   6.862   6.301  13.797  0.0439 -0.4329 -0.1363
   53DOPE  H17S 6786   6.944   6.150  13.794 -0.0389  0.0564  0.1245
   53DOPE  C218 6787   7.046   6.308  13.686  0.1143  0.1553  0.2318
   53DOPE  H18R 6788   7.142   6.253  13.680  0.9880  1.3816  2.1604
   53DOPE  H18S 6789   7.066   6.418  13.688  1.6796 -0.1146  0.2141
   53DOPE  H18T 6790   6.986   6.290  13.594 -1.7793  1.8431  1.0532
   53DOPE   C33 6791   6.607   5.867  13.798 -0.6351 -0.0059 -0.6468
   53DOPE   H3X 6792   6.560   5.957  13.753  1.1548  1.9782  1.2375
   53DOPE   H3Y 6793   6.651   5.899  13.895  2.2315 -1.0933 -1.4994
   53DOPE   C34 6794   6.519   5.746  13.807  0.3338  0.2770  0.8035
   53DOPE   H4X 6795   6.477   5.731  13.705 -1.2510 -1.0175  1.6050
   53DOPE   H4Y 6796   6.573   5.655  13.840  1.8498  0.7127 -0.3052
   53DOPE   C35 6797   6.403   5.769  13.906 -0.0944  0.0729  0.7238
   53DOPE   H5X 6798   6.334   5.850  13.875 -0.9357  0.6195  3.6945
   53DOPE   H5Y 6799   6.442   5.803  14.004 -0.7600  1.7211  0.4391
   53DOPE   C36 6800   6.322   5.645  13.931  0.3533 -0.4033  0.2470
   53DOPE   H6X 6801   6.378   5.556  13.968 -0.5413 -1.4932 -0.9577
   53DOPE   H6Y 6802   6.268   5.618  13.838 -2.0155 -0.2080  1.4745
   53DOPE   C37 6803   6.210   5.674  14.038  0.0291 -0.5087 -0.1187
   53DOPE   H7X 6804   6.257   5.697  14.136 -0.1888  0.9744 -0.3337
   53DOPE   H7Y 6805   6.164   5.763  13.991 -0.5454 -1.2765 -1.0343
   53DOPE   C38 6806   6.104   5.565  14.053  0.2792 -0.5906  0.1114
   53DOPE   H8X 6807   6.061   5.537  13.954  0.2746  1.3327 -0.4619
   53DOPE   H8Y 6808   6.021   5.620  14.103 -1.2620 -1.1377 -1.7325
   53DOPE   C39 6809   6.155   5.442  14.119 -1.1375  0.5717 -0.8392
   53DOPE   H9X 6810   6.230   5.384  14.064 -0.7925  0.7107 -0.5132
   53DOPE  C310 6811   6.094   5.394  14.233 -0.0633  0.7521 -0.7909
   53DOPE  H10X 6812   6.129   5.296  14.270 -2.1056  0.4760  0.5619
   53DOPE  C311 6813   5.989   5.446  14.324  1.5553  0.6641  0.2956
   53DOPE  H11X 6814   5.924   5.519  14.272 -0.2135 -0.0879  1.3605
   53DOPE  H11Y 6815   5.921   5.360  14.343 -0.5874  1.9173 -1.2382
   53DOPE  C312 6816   6.034   5.503  14.463 -0.3975 -0.0093  0.6408
   53DOPE  H12X 6817   6.112   5.573  14.425 -1.8338  1.2380 -0.1099
   53DOPE  H12Y 6818   6.087   5.425  14.522 -2.8904 -2.9614 -0.7342
   53DOPE  C313 6819   5.921   5.582  14.527 -0.0456 -0.3059 -0.0130
   53DOPE  H13X 6820   5.965   5.653  14.600  0.2217  2.3024 -2.5417
   53DOPE  H13Y 6821   5.861   5.651  14.465  1.8159  1.1868 -0.2406
   53DOPE  C314 6822   5.829   5.494  14.612  0.4464 -0.2486 -0.6934
   53DOPE  H14X 6823   5.895   5.418  14.660  0.9320  1.0375  0.7642
   53DOPE  H14Y 6824   5.753   5.446  14.547 -0.3094 -1.1304  0.7836
   53DOPE  C315 6825   5.757   5.573  14.724 -0.5510  0.3704  0.0105
   53DOPE  H15X 6826   5.840   5.623  14.779 -1.9358 -0.3577  2.9059
   53DOPE  H15Y 6827   5.709   5.502  14.793 -0.0122  0.0161  0.0228
   53DOPE  C316 6828   5.651   5.655  14.658  0.4030  0.3458  0.1354
   53DOPE  H16X 6829   5.580   5.582  14.614  0.0055 -0.5256  2.1247
   53DOPE  H16Y 6830   5.690   5.735  14.591  0.3101  0.2537 -0.0278
   53DOPE  C317 6831   5.565   5.734  14.763 -0.4627 -0.3007  0.0795
   53DOPE  H17X 6832   5.522   5.662  14.835  1.2319 -0.1497  1.3212
   53DOPE  H17Y 6833   5.627   5.809  14.818 -0.5016 -0.0729 -0.1845
   53DOPE  C318 6834   5.449   5.814  14.700 -0.4013 -1.0409  0.1433
   53DOPE  H18X 6835   5.405   5.875  14.782  0.7297 -2.7614  2.1602
   53DOPE  H18Y 6836   5.471   5.880  14.614 -0.5809  0.2982  1.0919
   53DOPE  H18Z 6837   5.374   5.738  14.668 -2.0187 -0.6265  2.6547
   54DOPE     N 6838   0.346   2.476  12.500 -0.0645  0.7176 -0.3576
   54DOPE   HN1 6839   0.353   2.578  12.480 -1.3053  0.5780 -1.6892
   54DOPE   HN2 6840   0.396   2.459  12.590 -0.6888 -0.9227 -0.2904
   54DOPE   HN3 6841   0.393   2.433  12.418  0.9418 -0.4417  0.7786
   54DOPE   C12 6842   0.199   2.441  12.527  0.0845  0.7289 -0.2519
   54DOPE  H12A 6843   0.198   2.332  12.546  0.3829  0.5417 -1.2605
   54DOPE  H12B 6844   0.151   2.451  12.427  1.1700 -0.8795 -0.9738
   54DOPE   C11 6845   0.126   2.519  12.637  0.0336 -0.6155  0.0539
   54DOPE  H11A 6846   0.192   2.518  12.726  1.0481 -1.0249 -0.6849
   54DOPE  H11B 6847   0.033   2.462  12.657  0.4285 -1.1335  0.4422
   54DOPE     P 6848  -0.015   2.749  12.599  0.3759 -0.2121 -0.1949
   54DOPE   O13 6849  -0.101   2.715  12.489 -0.1626 -0.3121 -0.2347
   54DOPE   O14 6850   0.033   2.885  12.601  0.5212 -0.2886  0.0617
   54DOPE   O11 6851  -0.085   2.725  12.735 -0.3038 -0.1163 -0.4081
   54DOPE   O12 6852   0.112   2.656  12.595  0.0285 -1.0231  0.0418
   54DOPE    C1 6853  -0.018   2.778  12.848 -0.2706  0.5501  0.3116
   54DOPE    HA 6854  -0.079   2.862  12.887  0.5518  2.0820 -1.5526
   54DOPE    HB 6855   0.085   2.818  12.831  0.2053  0.1626  2.0101
   54DOPE    C2 6856   0.004   2.672  12.951 -0.2507 -0.1303 -0.1364
   54DOPE    HS 6857   0.025   2.580  12.894  0.8861  0.0805 -0.0750
   54DOPE   O21 6858  -0.112   2.667  13.039 -0.4080  0.2546  0.2489
   54DOPE   C21 6859  -0.148   2.562  13.098 -0.4101  0.2944  0.6111
   54DOPE   O22 6860  -0.105   2.450  13.078  0.5066 -0.4916 -0.0441
   54DOPE   C22 6861  -0.247   2.601  13.211  0.2716  0.1985  0.3964
   54DOPE   H2R 6862  -0.343   2.593  13.157  0.5358 -4.0200  0.2437
   54DOPE   H2S 6863  -0.227   2.703  13.250 -0.1270  0.0316  1.0576
   54DOPE    C3 6864   0.140   2.680  13.029 -0.6568 -0.4444  0.0202
   54DOPE    HX 6865   0.135   2.773  13.090  0.5390  0.4257 -1.1575
   54DOPE    HY 6866   0.222   2.682  12.954 -0.3329  0.8065  0.3842
   54DOPE   O31 6867   0.160   2.563  13.122 -0.4128 -0.1719 -0.2622
   54DOPE   C31 6868   0.188   2.441  13.066  0.6138 -0.4110 -0.3172
   54DOPE   O32 6869   0.206   2.426  12.949  0.1100 -0.2085  0.0448
   54DOPE   C32 6870   0.205   2.342  13.176 -0.0953 -0.0868  0.0800
   54DOPE   H2X 6871   0.237   2.390  13.271  0.9328 -2.0795  0.8039
   54DOPE   H2Y 6872   0.100   2.314  13.196  0.5810 -0.9523  2.7856
   54DOPE   C23 6873  -0.260   2.510  13.336 -0.8662  0.1910  0.2007
   54DOPE   H3R 6874  -0.255   2.402  13.311  0.7239  0.0560  0.9830
   54DOPE   H3S 6875  -0.361   2.512  13.384 -0.5217  0.1332  0.9458
   54DOPE   C24 6876  -0.150   2.534  13.438  0.4827 -0.4373  0.3621
   54DOPE   H4R 6877  -0.149   2.642  13.463  1.0036 -0.2489 -0.4378
   54DOPE   H4S 6878  -0.058   2.515  13.380 -1.0780 -3.1804 -1.4142
   54DOPE   C25 6879  -0.148   2.431  13.551  0.6386  0.2196 -0.3177
   54DOPE   H5R 6880  -0.054   2.442  13.609  0.0695  0.1957  0.6394
   54DOPE   H5S 6881  -0.142   2.328  13.510  1.8765 -0.4924  1.4999
   54DOPE   C26 6882  -0.272   2.434  13.655 -0.4708  0.3473 -0.8807
   54DOPE   H6R 6883  -0.357   2.406  13.590 -1.7610 -0.0914  0.9087
   54DOPE   H6S 6884  -0.282   2.526  13.717  1.9245  0.4660 -0.5603
   54DOPE   C27 6885  -0.248   2.322  13.763  0.7153 -0.4294 -1.2673
   54DOPE   H7R 6886  -0.170   2.358  13.833 -0.3178 -1.2876  0.3926
   54DOPE   H7S 6887  -0.212   2.235  13.705  2.0027 -0.6314 -0.2240
   54DOPE   C28 6888  -0.383   2.289  13.840  0.3798  0.6543  0.2475
   54DOPE   H8R 6889  -0.466   2.255  13.774 -0.4513  0.3666  1.4030
   54DOPE   H8S 6890  -0.419   2.386  13.879  0.0828  1.2104 -1.3135
   54DOPE   C29 6891  -0.358   2.193  13.951  0.0395 -0.1819 -0.6366
   54DOPE   H9R 6892  -0.319   2.094  13.921  0.0401 -0.2827 -0.3058
   54DOPE  C210 6893  -0.362   2.219  14.086 -0.9272  0.0205  0.2549
   54DOPE  H10R 6894  -0.342   2.142  14.162 -1.3521  1.1096  1.4851
   54DOPE  C211 6895  -0.405   2.349  14.148  0.3293  0.2632 -0.1308
   54DOPE  H11R 6896  -0.516   2.346  14.153  0.0918 -0.2216 -3.4792
   54DOPE  H11S 6897  -0.377   2.435  14.083  1.0270 -0.2288 -0.4855
   54DOPE  C212 6898  -0.350   2.378  14.284 -0.9104 -1.2506 -0.1361
   54DOPE  H12R 6899  -0.250   2.425  14.277 -1.3178 -0.2997  0.2221
   54DOPE  H12S 6900  -0.331   2.285  14.342 -1.2776 -0.7403  0.8326
   54DOPE  C213 6901  -0.451   2.473  14.360 -0.3755  0.4138  0.0885
   54DOPE  H13R 6902  -0.543   2.410  14.356 -0.1822  0.1596 -2.6624
   54DOPE  H13S 6903  -0.462   2.559  14.291 -1.0015 -1.1322 -1.8562
   54DOPE  C214 6904  -0.402   2.523  14.498 -0.5604  0.0538  0.1955
   54DOPE  H14R 6905  -0.367   2.433  14.552 -1.6496 -0.2046  0.4816
   54DOPE  H14S 6906  -0.491   2.561  14.552  0.2218  2.8856 -0.3296
   54DOPE  C215 6907  -0.303   2.641  14.485 -0.5044  0.1873  0.2453
   54DOPE  H15R 6908  -0.354   2.730  14.444 -0.9768 -0.2940 -0.2323
   54DOPE  H15S 6909  -0.224   2.611  14.413 -0.7516 -1.6490  0.6824
   54DOPE  C216 6910  -0.229   2.676  14.614 -0.3065  0.3044  0.2443
   54DOPE  H16R 6911  -0.174   2.580  14.629 -0.9389 -0.0297  0.4339
   54DOPE  H16S 6912  -0.304   2.678  14.696  0.5951 -1.1789  1.1706
   54DOPE  C217 6913  -0.149   2.805  14.599  0.0417  0.1405 -0.3628
   54DOPE  H17R 6914  -0.212   2.888  14.562  1.4721  1.4522  0.0269
   54DOPE  H17S 6915  -0.072   2.780  14.523  0.8147 -1.7704  0.9675
   54DOPE  C218 6916  -0.074   2.851  14.724 -0.8792  0.5153  0.4376
   54DOPE  H18R 6917  -0.129   2.868  14.819  0.0346  1.0655  0.8875
   54DOPE  H18S 6918  -0.006   2.936  14.701 -0.5189  0.1928  0.2970
   54DOPE  H18T 6919   0.001   2.772  14.744 -3.2885 -2.2384 -0.7154
   54DOPE   C33 6920   0.306   2.228  13.150 -0.2482  0.1817  0.3157
   54DOPE   H3X 6921   0.378   2.257  13.071  0.5977 -0.2510  0.8996
   54DOPE   H3Y 6922   0.252   2.154  13.087  2.1325 -1.3777 -0.0450
   54DOPE   C34 6923   0.372   2.177  13.279  0.1684  0.0647 -0.1705
   54DOPE   H4X 6924   0.424   2.265  13.323  0.6630 -0.2450 -0.1260
   54DOPE   H4Y 6925   0.293   2.146  13.350 -1.4575  3.0818 -0.5008
   54DOPE   C35 6926   0.472   2.054  13.252  0.5644  0.9317 -0.1853
   54DOPE   H5X 6927   0.550   2.084  13.178  2.7171 -2.1257  0.6401
   54DOPE   H5Y 6928   0.407   1.975  13.208  0.9845  0.8101 -0.5921
   54DOPE   C36 6929   0.533   2.012  13.385 -0.5254 -0.2367 -0.4253
   54DOPE   H6X 6930   0.600   1.925  13.370  1.6452  1.0922  1.0354
   54DOPE   H6Y 6931   0.469   1.980  13.470  0.1501  1.2239  0.6617
   54DOPE   C37 6932   0.633   2.118  13.445  0.7521 -0.5319  0.1156
   54DOPE   H7X 6933   0.702   2.130  13.359  0.2732  0.4087 -0.1608
   54DOPE   H7Y 6934   0.585   2.215  13.473 -3.2156 -1.7916 -1.5487
   54DOPE   C38 6935   0.705   2.079  13.570  0.0507 -0.6639 -0.1137
   54DOPE   H8X 6936   0.799   2.137  13.582 -0.0250 -0.2929 -1.2055
   54DOPE   H8Y 6937   0.725   1.970  13.563  1.2081 -0.4850  0.2053
   54DOPE   C39 6938   0.619   2.097  13.694  0.0929  0.3973  0.7749
   54DOPE   H9X 6939   0.537   2.023  13.695  1.9589 -1.9647 -2.4958
   54DOPE  C310 6940   0.611   2.209  13.772 -0.3181  0.6904  0.9277
   54DOPE  H10X 6941   0.548   2.215  13.862 -0.8910  1.3819  0.4943
   54DOPE  C311 6942   0.686   2.333  13.743  0.2393  0.3271  0.0213
   54DOPE  H11X 6943   0.703   2.363  13.637  0.2788  0.6713  0.1215
   54DOPE  H11Y 6944   0.632   2.420  13.786 -0.0753  0.3750 -0.4691
   54DOPE  C312 6945   0.820   2.339  13.814 -0.0695 -0.7030  0.0989
   54DOPE  H12X 6946   0.873   2.429  13.775 -0.7807 -1.0157 -1.6914
   54DOPE  H12Y 6947   0.877   2.245  13.795 -0.0719 -0.6518 -0.1609
   54DOPE  C313 6948   0.802   2.366  13.961  0.1431  0.1546 -0.5537
   54DOPE  H13X 6949   0.721   2.300  13.998 -0.4637  0.3271 -1.5728
   54DOPE  H13Y 6950   0.903   2.339  14.001  0.9958  0.5310 -2.3502
   54DOPE  C314 6951   0.768   2.509  14.004  0.1780  0.8801  0.5198
   54DOPE  H14X 6952   0.669   2.525  13.957  0.5687 -0.2102 -0.7266
   54DOPE  H14Y 6953   0.843   2.574  13.954 -0.1626 -0.1308 -1.3959
   54DOPE  C315 6954   0.777   2.528  14.159  0.4809  0.1734  0.2551
   54DOPE  H15X 6955   0.706   2.463  14.215  0.5094  1.3921  1.7722
   54DOPE  H15Y 6956   0.743   2.629  14.191  1.8190 -0.1259  2.9848
   54DOPE  C316 6957   0.921   2.519  14.219  0.1789 -0.0110 -0.4798
   54DOPE  H16X 6958   0.992   2.563  14.145 -1.6332  2.7995 -0.7033
   54DOPE  H16Y 6959   0.939   2.410  14.226  1.3197  0.1844 -0.1522
   54DOPE  C317 6960   0.920   2.591  14.351  0.1399 -0.1027 -0.3543
   54DOPE  H17X 6961   0.893   2.695  14.321 -0.6826 -0.1851  0.0858
   54DOPE  H17Y 6962   0.842   2.550  14.418  0.9840  0.7787  1.2242
   54DOPE  C318 6963   1.056   2.587  14.426  0.2725 -0.6762  0.1689
   54DOPE  H18X 6964   1.141   2.618  14.362 -0.7585 -0.3230 -1.0605
   54DOPE  H18Y 6965   1.051   2.643  14.522  3.2146  1.4815 -0.7585
   54DOPE  H18Z 6966   1.077   2.481  14.452  0.5766 -0.0632  2.6453
   55DOPE     N 6967   1.528   3.884  12.880  0.0759 -0.1464  0.7625
   55DOPE   HN1 6968   1.470   3.825  12.943 -0.2674 -0.4973  0.1269
   55DOPE   HN2 6969   1.622   3.903  12.922  0.1677  2.1226 -0.3009
   55DOPE   HN3 6970   1.476   3.972  12.859  0.3978  0.2385  1.5236
   55DOPE   C12 6971   1.566   3.823  12.751  0.1575  0.3454 -0.1347
   55DOPE  H12A 6972   1.638   3.893  12.704  0.8416  0.8719  1.6158
   55DOPE  H12B 6973   1.474   3.803  12.692  0.6389 -1.9322 -0.2287
   55DOPE   C11 6974   1.655   3.696  12.752 -0.2715 -0.1280  0.8389
   55DOPE  H11A 6975   1.703   3.678  12.653 -1.0026  3.5038 -0.3296
   55DOPE  H11B 6976   1.577   3.619  12.767 -0.3223 -0.0928  0.7594
   55DOPE     P 6977   1.818   3.576  12.917  0.0093 -0.4493  0.1459
   55DOPE   O13 6978   1.964   3.587  12.891  0.1131 -0.1856  0.4747
   55DOPE   O14 6979   1.742   3.456  12.868 -0.2662 -0.7566  0.4674
   55DOPE   O11 6980   1.785   3.569  13.069  0.2986  0.0140  0.6141
   55DOPE   O12 6981   1.745   3.706  12.862 -0.4538  0.0728 -0.0877
   55DOPE    C1 6982   1.724   3.682  13.137  0.3635 -0.4240 -0.5795
   55DOPE    HA 6983   1.624   3.650  13.173 -0.2807 -0.3709 -2.2255
   55DOPE    HB 6984   1.702   3.765  13.067 -1.2281  0.1954  0.5832
   55DOPE    C2 6985   1.814   3.728  13.255  0.2721  0.3188  0.2721
   55DOPE    HS 6986   1.912   3.747  13.205 -0.4059  0.4314 -1.0435
   55DOPE   O21 6987   1.831   3.620  13.348  0.1298  0.1574  0.0039
   55DOPE   C21 6988   1.881   3.649  13.469 -0.7255  0.5190 -0.1427
   55DOPE   O22 6989   1.931   3.757  13.509  0.4480  0.7380  0.3384
   55DOPE   C22 6990   1.862   3.534  13.563  0.0196  0.3274  0.7383
   55DOPE   H2R 6991   1.858   3.443  13.500  0.0326  1.9419 -1.7096
   55DOPE   H2S 6992   1.755   3.532  13.593 -0.3085 -0.7819 -0.3954
   55DOPE    C3 6993   1.746   3.858  13.311  0.2218  0.3388 -0.4209
   55DOPE    HX 6994   1.732   3.931  13.228  1.9199  0.3583 -0.7263
   55DOPE    HY 6995   1.817   3.912  13.378 -2.8565  2.2629  1.5549
   55DOPE   O31 6996   1.614   3.822  13.373 -0.7953 -1.2605  0.3177
   55DOPE   C31 6997   1.599   3.885  13.487 -0.7124 -0.2664 -0.1205
   55DOPE   O32 6998   1.652   3.988  13.524 -0.3558  0.5045  0.0791
   55DOPE   C32 6999   1.500   3.815  13.583 -0.5603  0.6831  0.1941
   55DOPE   H2X 7000   1.413   3.884  13.575 -0.4314  0.7762 -0.5056
   55DOPE   H2Y 7001   1.471   3.714  13.549  0.5914  0.3208  0.2416
   55DOPE   C23 7002   1.962   3.540  13.685 -0.4819  0.0463  0.0392
   55DOPE   H3R 7003   1.925   3.598  13.772  1.4464 -0.0762  1.0106
   55DOPE   H3S 7004   2.056   3.586  13.647  0.0758 -1.8758 -1.0621
   55DOPE   C24 7005   2.005   3.400  13.734 -0.3242  0.4837 -0.2671
   55DOPE   H4R 7006   2.033   3.338  13.647 -2.6584 -1.5974  0.3547
   55DOPE   H4S 7007   1.918   3.351  13.784  0.8200  0.4771  1.8203
   55DOPE   C25 7008   2.130   3.401  13.829  0.4846  0.9987 -0.2655
   55DOPE   H5R 7009   2.216   3.442  13.771  0.6321 -0.9108 -1.5101
   55DOPE   H5S 7010   2.143   3.293  13.853 -0.8419  0.9614  0.3716
   55DOPE   C26 7011   2.099   3.465  13.962 -0.3781 -0.1502 -0.4072
   55DOPE   H6R 7012   1.994   3.444  13.992 -0.5170  0.5681 -0.3848
   55DOPE   H6S 7013   2.114   3.574  13.947  1.6514 -0.5923 -2.0888
   55DOPE   C27 7014   2.196   3.437  14.085  0.9191 -0.3703  0.1250
   55DOPE   H7R 7015   2.194   3.525  14.153  2.3023  1.0347 -1.5586
   55DOPE   H7S 7016   2.296   3.437  14.036  0.1208  1.6841 -1.6869
   55DOPE   C28 7017   2.177   3.312  14.174  0.7924  0.2099 -1.2042
   55DOPE   H8R 7018   2.262   3.318  14.245  0.1624 -0.5494 -0.3751
   55DOPE   H8S 7019   2.195   3.216  14.121  1.2291 -1.0220  1.0826
   55DOPE   C29 7020   2.039   3.321  14.235 -0.8625 -0.3831  0.2876
   55DOPE   H9R 7021   1.958   3.336  14.161 -1.1759  0.4756  0.7869
   55DOPE  C210 7022   2.013   3.308  14.360  0.0023 -0.0123 -0.5637
   55DOPE  H10R 7023   1.909   3.314  14.394  0.2512 -1.7588  0.6597
   55DOPE  C211 7024   2.110   3.273  14.473  1.0207 -0.0997  0.0649
   55DOPE  H11R 7025   2.138   3.367  14.525  0.5763 -0.2957  0.6759
   55DOPE  H11S 7026   2.201   3.218  14.443 -0.6825 -1.8549 -2.2184
   55DOPE  C212 7027   2.035   3.191  14.582 -0.5756 -0.0699 -0.4227
   55DOPE  H12R 7028   1.944   3.245  14.617 -0.2671  0.2141 -0.0612
   55DOPE  H12S 7029   2.110   3.185  14.664 -1.5509  2.1522  0.7331
   55DOPE  C213 7030   2.008   3.044  14.542  0.2636  0.0655  0.4496
   55DOPE  H13R 7031   2.097   2.985  14.512 -1.2425 -2.1796  0.0975
   55DOPE  H13S 7032   1.943   3.048  14.451 -0.9197 -1.3347  1.1831
   55DOPE  C214 7033   1.935   2.969  14.654  0.1371  0.4971 -0.0836
   55DOPE  H14R 7034   1.906   2.866  14.624 -1.4029  0.4739  1.3943
   55DOPE  H14S 7035   1.846   3.026  14.686 -0.6103  0.2534 -1.6130
   55DOPE  C215 7036   2.011   2.955  14.787 -0.4351 -0.2841 -0.6147
   55DOPE  H15R 7037   1.938   2.950  14.871  1.0055 -1.6770  0.6357
   55DOPE  H15S 7038   2.063   3.049  14.816 -1.6448 -0.0666  1.0177
   55DOPE  C216 7039   2.114   2.844  14.787  1.7403  0.1800  0.1439
   55DOPE  H16R 7040   2.196   2.874  14.719  1.5997  0.5348  0.1320
   55DOPE  H16S 7041   2.065   2.748  14.758  1.1931  0.1856  0.9987
   55DOPE  C217 7042   2.170   2.824  14.921 -0.9452 -0.0460 -0.4271
   55DOPE  H17R 7043   2.090   2.804  14.996 -0.7952  1.1719  0.0827
   55DOPE  H17S 7044   2.211   2.918  14.962  1.2207 -0.2668 -1.9278
   55DOPE  C218 7045   2.283   2.721  14.931 -0.9512 -0.6596 -0.0062
   55DOPE  H18R 7046   2.243   2.621  14.905 -0.3114 -0.8371 -0.3169
   55DOPE  H18S 7047   2.340   2.720  15.027  0.5248  0.4007 -0.8249
   55DOPE  H18T 7048   2.361   2.743  14.856 -1.4832  0.1171 -0.3547
   55DOPE   C33 7049   1.560   3.810  13.730  0.0146 -0.7835  0.2524
   55DOPE   H3X 7050   1.575   3.914  13.765 -1.9975 -0.7380  1.1413
   55DOPE   H3Y 7051   1.656   3.754  13.726 -0.4040 -1.4951 -0.1807
   55DOPE   C34 7052   1.451   3.769  13.831 -0.1103  0.2385  0.2914
   55DOPE   H4X 7053   1.361   3.831  13.810 -0.6324 -0.2344  1.0848
   55DOPE   H4Y 7054   1.422   3.663  13.819 -0.3738  0.2943  0.4241
   55DOPE   C35 7055   1.474   3.802  13.977  0.0262  0.0968  0.0373
   55DOPE   H5X 7056   1.382   3.789  14.037  0.3066  1.2969  0.7777
   55DOPE   H5Y 7057   1.502   3.910  13.979 -0.4423  0.2110  0.8749
   55DOPE   C36 7058   1.586   3.719  14.040  0.5669  0.3290  0.6511
   55DOPE   H6X 7059   1.674   3.728  13.972 -0.4588 -1.4437 -1.0138
   55DOPE   H6Y 7060   1.555   3.612  14.042 -0.7932  0.6579 -0.7748
   55DOPE   C37 7061   1.615   3.749  14.186 -0.3514 -0.1090 -0.6410
   55DOPE   H7X 7062   1.526   3.779  14.247 -1.2839 -1.1870 -1.4460
   55DOPE   H7Y 7063   1.670   3.667  14.236  1.5715  1.6946  0.3915
   55DOPE   C38 7064   1.721   3.864  14.182 -0.0667 -0.2232 -0.8021
   55DOPE   H8X 7065   1.725   3.915  14.281  0.4430 -0.4294 -0.7123
   55DOPE   H8Y 7066   1.706   3.958  14.124  1.0261  0.8428  0.5673
   55DOPE   C39 7067   1.866   3.829  14.153  0.3970  1.0155 -0.0257
   55DOPE   H9X 7068   1.887   3.845  14.047  0.4949 -1.4012 -0.4218
   55DOPE  C310 7069   1.967   3.807  14.233  0.5730 -0.3540 -0.4442
   55DOPE  H10X 7070   2.070   3.820  14.194  0.6734 -0.0057 -0.0691
   55DOPE  C311 7071   1.953   3.779  14.376  0.2570  0.3768 -0.1738
   55DOPE  H11X 7072   1.853   3.753  14.417  0.4841 -0.2971 -0.0353
   55DOPE  H11Y 7073   1.996   3.679  14.396 -0.6381  0.1806  0.8215
   55DOPE  C312 7074   2.031   3.885  14.465  0.5666  0.4553  0.4770
   55DOPE  H12X 7075   2.129   3.903  14.415 -0.5365  2.8259 -1.0133
   55DOPE  H12Y 7076   2.056   3.839  14.563  1.2474 -0.2763 -0.0256
   55DOPE  C313 7077   1.958   4.016  14.478  0.5106  0.1166 -0.3199
   55DOPE  H13X 7078   1.959   4.068  14.380 -0.2597 -2.7848 -2.0107
   55DOPE  H13Y 7079   1.854   4.001  14.513  0.3527  0.0812 -0.8012
   55DOPE  C314 7080   2.025   4.100  14.585 -0.2469 -0.0179 -0.5012
   55DOPE  H14X 7081   2.120   4.136  14.540  0.2223  0.8096  1.0858
   55DOPE  H14Y 7082   2.042   4.038  14.676 -0.6537 -1.0738 -1.1286
   55DOPE  C315 7083   1.942   4.229  14.618 -0.3042  0.3514  0.1663
   55DOPE  H15X 7084   1.837   4.196  14.637 -0.5869  0.4027 -1.1970
   55DOPE  H15Y 7085   1.924   4.300  14.535  0.1106  0.5400  0.2380
   55DOPE  C316 7086   2.016   4.314  14.722  0.1851  0.0546 -0.4597
   55DOPE  H16X 7087   1.975   4.418  14.716 -1.3774 -0.5836 -1.5286
   55DOPE  H16Y 7088   2.123   4.324  14.694  0.4613  2.6357  1.1879
   55DOPE  C317 7089   2.002   4.258  14.868  0.2121 -0.4618 -0.1896
   55DOPE  H17X 7090   2.071   4.174  14.889  0.2156 -0.1234  1.2576
   55DOPE  H17Y 7091   2.034   4.341  14.935 -1.0137  1.4397 -1.8462
   55DOPE  C318 7092   1.862   4.222  14.902  1.2980 -0.1128 -0.0245
   55DOPE  H18X 7093   1.852   4.187  15.008  3.0873  2.0136  0.9220
   55DOPE  H18Y 7094   1.799   4.313  14.897  0.6701 -0.4806  0.8068
   55DOPE  H18Z 7095   1.822   4.139  14.840  2.8580 -0.0545 -1.1550
   56DOPE     N 7096   1.799   4.893  12.712  0.0493 -0.1388 -0.1005
   56DOPE   HN1 7097   1.707   4.870  12.670 -0.7224  1.9111  0.3218
   56DOPE   HN2 7098   1.844   4.971  12.660  0.8773 -0.3333  0.3015
   56DOPE   HN3 7099   1.866   4.814  12.703  0.9697  0.4460  1.1741
   56DOPE   C12 7100   1.782   4.932  12.858  0.3741  0.1537 -0.1336
   56DOPE  H12A 7101   1.737   4.838  12.899 -1.0503  0.1787 -1.5591
   56DOPE  H12B 7102   1.704   5.011  12.864  0.2210  0.1773 -2.0547
   56DOPE   C11 7103   1.913   4.971  12.925 -0.9424  0.4522  0.1866
   56DOPE  H11A 7104   1.892   5.004  13.029 -0.4129  1.8947 -0.1342
   56DOPE  H11B 7105   1.940   5.056  12.858  0.2101 -0.3987 -0.4602
   56DOPE     P 7106   2.155   4.892  12.957  0.4655  0.0294 -0.1948
   56DOPE   O13 7107   2.197   5.011  12.882  0.3559  0.1464  0.2234
   56DOPE   O14 7108   2.232   4.766  12.932 -0.1675 -0.9621 -0.1838
   56DOPE   O11 7109   2.134   4.932  13.110 -0.2904 -0.0242 -0.2609
   56DOPE   O12 7110   2.002   4.859  12.913 -0.6632 -0.1055 -0.0133
   56DOPE    C1 7111   2.103   4.842  13.210 -0.2355  0.1906  0.0432
   56DOPE    HA 7112   2.183   4.857  13.286 -0.7481  4.1565 -0.0249
   56DOPE    HB 7113   2.110   4.733  13.188 -3.5999 -0.2690  0.6526
   56DOPE    C2 7114   1.960   4.863  13.266 -0.9737 -0.2382  0.8048
   56DOPE    HS 7115   1.894   4.853  13.177  2.0146  2.2615 -1.9771
   56DOPE   O21 7116   1.947   4.997  13.305 -0.3081  0.2240 -0.0646
   56DOPE   C21 7117   1.817   5.038  13.327  0.4459  0.0784  0.3686
   56DOPE   O22 7118   1.723   4.973  13.282  0.2876 -0.4428 -0.3171
   56DOPE   C22 7119   1.814   5.151  13.432 -0.5163  1.0808  0.1358
   56DOPE   H2R 7120   1.716   5.179  13.474 -0.3409  2.0653 -0.0841
   56DOPE   H2S 7121   1.842   5.245  13.380 -0.5557  1.6542  1.1290
   56DOPE    C3 7122   1.918   4.765  13.381 -0.1563  0.0086  0.6063
   56DOPE    HX 7123   1.901   4.665  13.336  0.3086 -0.7372  2.0065
   56DOPE    HY 7124   1.813   4.782  13.413 -0.6449 -0.5196 -0.6810
   56DOPE   O31 7125   2.008   4.756  13.492 -0.7257  0.3528 -0.2039
   56DOPE   C31 7126   2.022   4.645  13.557  0.2258 -0.4904  0.0211
   56DOPE   O32 7127   1.954   4.545  13.540  0.0908  0.6611  0.6298
   56DOPE   C32 7128   2.123   4.658  13.665  0.2184 -0.6147  0.4028
   56DOPE   H2X 7129   2.202   4.584  13.640  0.5422  0.5318 -2.3394
   56DOPE   H2Y 7130   2.164   4.762  13.670 -0.1241 -0.4771  0.3471
   56DOPE   C23 7131   1.919   5.136  13.552  0.1382 -0.1836 -0.1838
   56DOPE   H3R 7132   1.968   5.235  13.561  0.7553 -0.4757 -0.2733
   56DOPE   H3S 7133   1.997   5.066  13.516 -0.1329 -2.5793  3.3848
   56DOPE   C24 7134   1.857   5.079  13.670  0.4619  0.2914  0.3279
   56DOPE   H4R 7135   1.802   4.983  13.654  3.5928 -1.6606  0.4552
   56DOPE   H4S 7136   1.789   5.158  13.708 -0.9883 -0.1390 -1.2497
   56DOPE   C25 7137   1.961   5.043  13.784  0.7011 -0.1999  0.3739
   56DOPE   H5R 7138   2.024   5.131  13.808  2.8237 -1.8098  0.9690
   56DOPE   H5S 7139   2.025   4.960  13.748  1.1359  1.3048 -2.6339
   56DOPE   C26 7140   1.887   5.011  13.912  0.4799 -0.0863  0.1052
   56DOPE   H6R 7141   1.807   4.936  13.891 -0.8013  1.2091  0.1889
   56DOPE   H6S 7142   1.841   5.106  13.945  0.9829  0.2511 -0.1617
   56DOPE   C27 7143   1.975   4.972  14.033  0.6573 -0.5834  0.2386
   56DOPE   H7R 7144   2.039   4.895  13.986  1.3377 -0.0932  0.3477
   56DOPE   H7S 7145   1.908   4.935  14.115 -0.5474  0.7089 -0.1149
   56DOPE   C28 7146   2.059   5.089  14.097 -0.0423  0.3849 -0.9519
   56DOPE   H8R 7147   2.104   5.143  14.011 -0.6020  0.9838 -0.8779
   56DOPE   H8S 7148   2.143   5.047  14.155  1.5938  2.1608 -1.9043
   56DOPE   C29 7149   1.977   5.190  14.176 -0.2411  0.1905  0.8390
   56DOPE   H9R 7150   1.922   5.261  14.113  1.2016 -0.0423 -0.7823
   56DOPE  C210 7151   1.959   5.195  14.310 -0.1573 -0.2809  0.6408
   56DOPE  H10R 7152   1.908   5.284  14.348 -1.3126  0.4170 -2.2522
   56DOPE  C211 7153   2.020   5.103  14.417  0.0277 -0.4658  0.2276
   56DOPE  H11R 7154   2.110   5.048  14.381  2.1901  3.1439 -0.4295
   56DOPE  H11S 7155   1.947   5.025  14.446 -1.1540  1.0423  1.4919
   56DOPE  C212 7156   2.055   5.181  14.541  0.6972  0.1210  0.4726
   56DOPE  H12R 7157   2.086   5.109  14.619  1.4971 -1.4913 -1.2557
   56DOPE  H12S 7158   1.964   5.230  14.583  2.0211 -0.1911  4.0605
   56DOPE  C213 7159   2.167   5.283  14.528  0.3123  0.5289  0.8987
   56DOPE  H13R 7160   2.135   5.380  14.483 -0.7938  0.5856  1.7680
   56DOPE  H13S 7161   2.240   5.230  14.463  0.5482  0.6721  1.0456
   56DOPE  C214 7162   2.242   5.306  14.659 -0.2436 -0.4143  0.0369
   56DOPE  H14R 7163   2.351   5.318  14.640 -0.0661 -0.4729  0.9715
   56DOPE  H14S 7164   2.241   5.217  14.725 -1.8757 -0.1800  0.3667
   56DOPE  C215 7165   2.174   5.419  14.740 -0.0854 -0.0947  0.1693
   56DOPE  H15R 7166   2.068   5.392  14.762 -0.5547  0.0746 -1.7243
   56DOPE  H15S 7167   2.165   5.511  14.678 -0.4675 -0.1074  0.1991
   56DOPE  C216 7168   2.235   5.436  14.880 -0.7265  0.2707  0.0326
   56DOPE  H16R 7169   2.343   5.458  14.884 -0.6472 -0.2198  0.7933
   56DOPE  H16S 7170   2.203   5.351  14.944 -1.2959 -1.1117 -1.9681
   56DOPE  C217 7171   2.177   5.556  14.951  0.3567 -0.4519 -0.1563
   56DOPE  H17R 7172   2.066   5.548  14.962  0.4054  0.4382  1.2393
   56DOPE  H17S 7173   2.201   5.647  14.892  0.4170  0.3859  1.1177
   56DOPE  C218 7174   2.243   5.574  15.092 -0.5040  0.0999 -0.0010
   56DOPE  H18R 7175   2.352   5.589  15.084 -0.5270  1.6041  1.8096
   56DOPE  H18S 7176   2.233   5.485  15.159  0.6234  0.4894  0.7078
   56DOPE  H18T 7177   2.209   5.673  15.128 -1.7435  0.3489 -1.7207
   56DOPE   C33 7178   2.064   4.641  13.804 -0.2015  0.1395 -1.0045
   56DOPE   H3X 7179   2.019   4.539  13.808 -0.3981  0.2129 -1.3191
   56DOPE   H3Y 7180   1.982   4.714  13.824 -0.4367 -0.6484  1.1753
   56DOPE   C34 7181   2.151   4.659  13.932 -0.2947  0.5157  1.4339
   56DOPE   H4X 7182   2.233   4.587  13.912 -2.3828 -1.6357 -0.1048
   56DOPE   H4Y 7183   2.189   4.762  13.918 -1.6910  0.9798  0.8631
   56DOPE   C35 7184   2.074   4.636  14.064 -0.9984 -0.2627  0.4023
   56DOPE   H5X 7185   2.035   4.531  14.062  0.1167 -0.6873  0.5673
   56DOPE   H5Y 7186   1.984   4.702  14.067 -0.6452  0.6447 -3.3291
   56DOPE   C36 7187   2.156   4.660  14.186  0.5109  0.0268 -0.0618
   56DOPE   H6X 7188   2.168   4.770  14.198  0.3954 -0.0787  1.0573
   56DOPE   H6Y 7189   2.257   4.621  14.162  0.0535 -0.5482 -1.1067
   56DOPE   C37 7190   2.099   4.591  14.306  0.4810  0.0425  0.0228
   56DOPE   H7X 7191   2.006   4.645  14.336 -0.3340 -1.4810  0.3343
   56DOPE   H7Y 7192   2.081   4.482  14.294  2.2459 -0.2428 -0.1915
   56DOPE   C38 7193   2.182   4.612  14.439  0.2703 -0.5914  0.8205
   56DOPE   H8X 7194   2.272   4.546  14.430 -0.4267 -1.5370  0.6162
   56DOPE   H8Y 7195   2.131   4.560  14.523 -1.4180 -0.0782  0.1377
   56DOPE   C39 7196   2.201   4.752  14.481 -0.3746 -0.0938  0.0307
   56DOPE   H9X 7197   2.263   4.807  14.409  1.0664 -1.4997  0.1360
   56DOPE  C310 7198   2.146   4.823  14.582 -0.1609  0.2600  0.0045
   56DOPE  H10X 7199   2.184   4.924  14.598  1.1702 -0.1052 -0.7327
   56DOPE  C311 7200   2.054   4.765  14.687  0.5325 -0.4589 -0.2754
   56DOPE  H11X 7201   2.086   4.659  14.704  1.1312 -0.4623 -1.3361
   56DOPE  H11Y 7202   2.058   4.808  14.789 -1.0583 -1.3621  0.1944
   56DOPE  C312 7203   1.907   4.769  14.651  0.2516  0.3888  0.4611
   56DOPE  H12X 7204   1.895   4.728  14.548 -0.6030  2.6073 -0.3854
   56DOPE  H12Y 7205   1.886   4.877  14.636 -1.1123 -0.2150 -2.7591
   56DOPE  C313 7206   1.806   4.717  14.752  0.1620 -0.3168  0.2566
   56DOPE  H13X 7207   1.808   4.608  14.774  0.9733 -0.1313  1.1546
   56DOPE  H13Y 7208   1.829   4.771  14.846  2.2453 -0.3976 -0.1653
   56DOPE  C314 7209   1.661   4.740  14.695 -0.8477 -0.3319  0.4675
   56DOPE  H14X 7210   1.617   4.649  14.650 -1.5725 -0.5920  1.6605
   56DOPE  H14Y 7211   1.670   4.813  14.611  1.9912 -2.0247 -0.8849
   56DOPE  C315 7212   1.570   4.798  14.799  0.2759 -0.3383 -0.4069
   56DOPE  H15X 7213   1.594   4.732  14.885 -1.2265 -1.8070 -1.0727
   56DOPE  H15Y 7214   1.460   4.790  14.783  0.1177  0.1721  0.3674
   56DOPE  C316 7215   1.598   4.944  14.832 -0.0097 -0.3926 -0.4569
   56DOPE  H16X 7216   1.546   4.999  14.750  0.1121 -2.2191 -1.8409
   56DOPE  H16Y 7217   1.706   4.967  14.818 -0.0592 -0.9229 -1.9884
   56DOPE  C317 7218   1.547   4.995  14.967 -0.3327  0.1893 -0.5126
   56DOPE  H17X 7219   1.595   4.935  15.047 -0.2177  0.8397 -0.0867
   56DOPE  H17Y 7220   1.571   5.102  14.984  1.3764 -0.2635  0.1744
   56DOPE  C318 7221   1.392   4.988  14.981  0.1964 -0.1073  0.5179
   56DOPE  H18X 7222   1.364   4.881  14.971 -4.8167  0.8720  1.3842
   56DOPE  H18Y 7223   1.359   5.025  15.081 -1.0884  0.9910 -0.2707
   56DOPE  H18Z 7224   1.345   5.043  14.896 -0.0783 -1.6185 -0.3529
   57DOPE     N 7225   1.315   1.565  12.956 -0.5202 -0.0411 -0.4817
   57DOPE   HN1 7226   1.238   1.610  12.903  0.6028  0.5507 -1.6857
   57DOPE   HN2 7227   1.337   1.617  13.044 -1.3559 -2.7060  1.4138
   57DOPE   HN3 7228   1.400   1.564  12.895 -0.8825  2.0832 -1.1280
   57DOPE   C12 7229   1.274   1.422  12.976  0.3370  0.3927  0.9787
   57DOPE  H12A 7230   1.183   1.435  13.039 -0.3745  1.1196 -0.1602
   57DOPE  H12B 7231   1.357   1.379  13.035  0.6395 -0.2989  0.0701
   57DOPE   C11 7232   1.253   1.343  12.846 -0.7481  0.4833 -0.2986
   57DOPE  H11A 7233   1.238   1.234  12.862  0.2015  0.5243  1.0358
   57DOPE  H11B 7234   1.344   1.338  12.782  0.1873 -2.7077  1.0454
   57DOPE     P 7235   0.997   1.348  12.804 -0.1876 -0.4310  0.0080
   57DOPE   O13 7236   0.997   1.204  12.810 -0.2741  0.0347 -0.0223
   57DOPE   O14 7237   0.905   1.404  12.701 -0.6479 -0.0455 -0.0432
   57DOPE   O11 7238   0.970   1.422  12.944  0.1084 -0.3281  0.0995
   57DOPE   O12 7239   1.143   1.395  12.772  0.0613  0.0038  0.0136
   57DOPE    C1 7240   0.936   1.344  13.061  0.4354  1.0030 -0.3329
   57DOPE    HA 7241   0.983   1.386  13.152  2.1530 -2.0105  0.2902
   57DOPE    HB 7242   0.985   1.245  13.068  0.6709  1.2241  1.3958
   57DOPE    C2 7243   0.782   1.333  13.090 -0.7287 -0.7477  0.7829
   57DOPE    HS 7244   0.730   1.303  12.996  0.1558 -0.1690  0.0920
   57DOPE   O21 7245   0.742   1.468  13.120 -0.3644  0.3042  0.5749
   57DOPE   C21 7246   0.607   1.487  13.114 -0.0625 -0.0530 -0.8017
   57DOPE   O22 7247   0.529   1.399  13.097 -0.1002 -0.0146  0.6314
   57DOPE   C22 7248   0.573   1.638  13.134 -0.7202 -0.3817 -0.1344
   57DOPE   H2R 7249   0.520   1.660  13.039  0.8598 -3.2903 -1.8366
   57DOPE   H2S 7250   0.668   1.695  13.141 -0.1527 -1.1889 -0.9600
   57DOPE    C3 7251   0.750   1.237  13.215 -0.0878 -0.2337  0.7009
   57DOPE    HX 7252   0.818   1.152  13.191  2.6646  2.2425 -0.8550
   57DOPE    HY 7253   0.643   1.208  13.212 -0.1463 -0.0724 -2.0960
   57DOPE   O31 7254   0.794   1.296  13.338  0.1202  0.1636 -0.2425
   57DOPE   C31 7255   0.704   1.317  13.428 -0.5357 -0.2645 -0.0272
   57DOPE   O32 7256   0.588   1.279  13.423 -0.6437 -0.5414  0.1585
   57DOPE   C32 7257   0.773   1.389  13.544  0.7502 -1.1666  0.1804
   57DOPE   H2X 7258   0.878   1.353  13.551  1.2312  0.0117 -0.6171
   57DOPE   H2Y 7259   0.775   1.497  13.518  0.4422 -1.0493  0.6326
   57DOPE   C23 7260   0.475   1.652  13.256 -0.2744  0.0059 -0.2077
   57DOPE   H3R 7261   0.394   1.576  13.258 -0.4237  0.1246 -1.0752
   57DOPE   H3S 7262   0.426   1.751  13.263  1.1204  0.5904  2.3393
   57DOPE   C24 7263   0.551   1.639  13.390 -0.0083  0.7726  0.5136
   57DOPE   H4R 7264   0.630   1.717  13.389 -0.0671  0.8426 -1.3281
   57DOPE   H4S 7265   0.598   1.538  13.396  0.4031  0.8091 -1.4443
   57DOPE   C25 7266   0.465   1.667  13.514  0.4953  0.1446  0.4475
   57DOPE   H5R 7267   0.408   1.571  13.520  0.1861  0.1749 -1.3962
   57DOPE   H5S 7268   0.396   1.750  13.489  0.5197  0.3178  0.9570
   57DOPE   C26 7269   0.543   1.712  13.641 -0.3355  0.1162 -0.6696
   57DOPE   H6R 7270   0.593   1.810  13.623  0.2600  0.2066  1.2167
   57DOPE   H6S 7271   0.628   1.644  13.663  0.3919  1.0427 -0.5434
   57DOPE   C27 7272   0.441   1.711  13.754  0.2271 -0.2086  0.4790
   57DOPE   H7R 7273   0.362   1.633  13.745  0.8737 -0.8642  0.4113
   57DOPE   H7S 7274   0.377   1.801  13.744 -1.5318 -1.5086 -0.5166
   57DOPE   C28 7275   0.499   1.717  13.901 -0.1515 -0.0404  1.1208
   57DOPE   H8R 7276   0.544   1.617  13.921  0.6888  0.1725  0.3707
   57DOPE   H8S 7277   0.404   1.725  13.958 -0.4772  1.3053  0.4086
   57DOPE   C29 7278   0.606   1.813  13.953  0.8699  0.7864  0.0016
   57DOPE   H9R 7279   0.702   1.818  13.899  0.6424  0.9234 -0.3889
   57DOPE  C210 7280   0.587   1.888  14.064 -0.1994 -0.1843  0.0454
   57DOPE  H10R 7281   0.660   1.968  14.082 -0.7274  0.1591  0.6875
   57DOPE  C211 7282   0.467   1.896  14.151 -0.2435  0.1618 -1.0253
   57DOPE  H11R 7283   0.477   1.827  14.238  1.5905  1.4329 -0.1573
   57DOPE  H11S 7284   0.368   1.872  14.107 -1.2938 -0.4260  1.4609
   57DOPE  C212 7285   0.446   2.039  14.212  0.3479  0.0108  0.2502
   57DOPE  H12R 7286   0.350   2.022  14.265  0.8512 -2.3279  0.5007
   57DOPE  H12S 7287   0.432   2.122  14.139 -1.9094  0.2922  0.9282
   57DOPE  C213 7288   0.548   2.088  14.315  0.1407  0.0056 -0.4015
   57DOPE  H13R 7289   0.645   2.121  14.270  0.7904 -0.3989  0.6513
   57DOPE  H13S 7290   0.583   2.013  14.389  0.5280 -0.3345 -0.9207
   57DOPE  C214 7291   0.500   2.203  14.404 -0.1418 -0.5881  0.6648
   57DOPE  H14R 7292   0.396   2.185  14.437 -0.4015  1.0056  0.7808
   57DOPE  H14S 7293   0.503   2.297  14.344 -0.1028 -1.2658 -0.4410
   57DOPE  C215 7294   0.596   2.213  14.519  0.6894 -0.3812  0.1494
   57DOPE  H15R 7295   0.605   2.112  14.563  0.6096 -1.0700 -1.3341
   57DOPE  H15S 7296   0.547   2.271  14.600 -1.5339 -0.8423 -0.8133
   57DOPE  C216 7297   0.738   2.264  14.488  0.1339 -0.4364 -0.6297
   57DOPE  H16R 7298   0.721   2.352  14.423  0.9422  1.1562  1.2365
   57DOPE  H16S 7299   0.791   2.185  14.430  0.8554 -0.8907  0.6001
   57DOPE  C217 7300   0.810   2.308  14.619  0.0715 -0.3541  0.0022
   57DOPE  H17R 7301   0.757   2.400  14.651  1.6850  0.4542  0.4608
   57DOPE  H17S 7302   0.912   2.341  14.587 -0.6330  0.8789 -1.0705
   57DOPE  C218 7303   0.825   2.214  14.744  0.2456  0.4392  0.2186
   57DOPE  H18R 7304   0.726   2.201  14.792  0.3832 -1.9008  0.0168
   57DOPE  H18S 7305   0.891   2.262  14.819 -1.0597  0.0975  1.6156
   57DOPE  H18T 7306   0.867   2.114  14.717  0.3879  1.2475 -3.0143
   57DOPE   C33 7307   0.709   1.365  13.684  0.1480  0.3361 -0.5652
   57DOPE   H3X 7308   0.673   1.260  13.692  2.3725 -0.6762 -2.5797
   57DOPE   H3Y 7309   0.618   1.426  13.706 -1.6782 -1.8844 -1.5561
   57DOPE   C34 7310   0.815   1.380  13.799  0.2500 -0.3185 -0.1515
   57DOPE   H4X 7311   0.893   1.313  13.757  1.9426  1.4751 -0.0334
   57DOPE   H4Y 7312   0.852   1.485  13.797  0.4272 -0.3380  1.2487
   57DOPE   C35 7313   0.748   1.350  13.929 -0.0845  0.1748 -0.8844
   57DOPE   H5X 7314   0.701   1.249  13.936  0.7747 -0.3626 -2.3560
   57DOPE   H5Y 7315   0.654   1.409  13.938 -0.5480 -0.8810  3.1796
   57DOPE   C36 7316   0.854   1.374  14.041  0.6690  0.0285 -0.3298
   57DOPE   H6X 7317   0.882   1.481  14.049 -0.0518  0.2322 -0.4428
   57DOPE   H6Y 7318   0.948   1.326  14.009  0.6438  0.3606 -0.9261
   57DOPE   C37 7319   0.801   1.340  14.182  0.2466 -0.7194 -0.0118
   57DOPE   H7X 7320   0.758   1.434  14.222  0.6669 -0.1499 -0.8496
   57DOPE   H7Y 7321   0.724   1.260  14.173 -1.0154  0.4457  0.0217
   57DOPE   C38 7322   0.919   1.284  14.272  0.8743 -0.4249  0.4747
   57DOPE   H8X 7323   0.889   1.280  14.378  0.4470 -2.3064  0.3093
   57DOPE   H8Y 7324   1.007   1.352  14.268  0.6218  0.0444  2.3472
   57DOPE   C39 7325   0.965   1.138  14.238  0.4080 -0.5018  0.1988
   57DOPE   H9X 7326   0.971   1.122  14.129 -0.2554 -1.7494  0.3348
   57DOPE  C310 7327   1.004   1.032  14.314  0.4984  0.1208 -0.1538
   57DOPE  H10X 7328   1.037   0.941  14.262  1.4344  0.3372  0.0467
   57DOPE  C311 7329   1.000   1.021  14.465  0.4346  0.8564 -0.2946
   57DOPE  H11X 7330   1.006   1.118  14.519  0.4213 -0.8548  3.1028
   57DOPE  H11Y 7331   0.917   0.961  14.507 -0.1326  0.8555 -1.3743
   57DOPE  C312 7332   1.128   0.946  14.516 -0.0983  0.4693  0.6497
   57DOPE  H12X 7333   1.130   0.952  14.627  0.7133 -0.4747  0.7002
   57DOPE  H12Y 7334   1.219   1.000  14.482  0.1537 -0.3388  0.0148
   57DOPE  C313 7335   1.139   0.793  14.488 -0.4189 -1.1221 -0.2027
   57DOPE  H13X 7336   1.050   0.740  14.528 -0.3272 -1.4511 -0.4348
   57DOPE  H13Y 7337   1.137   0.785  14.378 -1.3798  0.1341 -0.2937
   57DOPE  C314 7338   1.267   0.722  14.541  0.2998  0.2528 -0.4875
   57DOPE  H14X 7339   1.276   0.723  14.652 -0.2683  0.5735 -0.4371
   57DOPE  H14Y 7340   1.350   0.790  14.515 -0.4703  1.1647 -0.6253
   57DOPE  C315 7341   1.288   0.579  14.493 -0.2219  0.1515 -0.2659
   57DOPE  H15X 7342   1.197   0.531  14.452 -0.5038  1.1904 -0.8923
   57DOPE  H15Y 7343   1.316   0.510  14.576 -1.9220 -1.3028 -0.8551
   57DOPE  C316 7344   1.395   0.550  14.381  0.7377 -0.0830 -0.2918
   57DOPE  H16X 7345   1.490   0.601  14.404 -0.4587  2.2602 -0.2781
   57DOPE  H16Y 7346   1.353   0.605  14.295 -0.5677  1.8403  1.4736
   57DOPE  C317 7347   1.403   0.393  14.341 -0.3848  0.2363 -0.6687
   57DOPE  H17X 7348   1.301   0.351  14.329  0.2014 -3.0017  3.4152
   57DOPE  H17Y 7349   1.464   0.402  14.248 -0.7761  0.8183 -0.8781
   57DOPE  C318 7350   1.462   0.290  14.445  0.0022  0.5602  0.7070
   57DOPE  H18X 7351   1.452   0.187  14.406  1.2735  0.3268  0.9395
   57DOPE  H18Y 7352   1.571   0.302  14.466  1.0729 -0.5185 -3.2319
   57DOPE  H18Z 7353   1.397   0.298  14.534 -0.4522  1.8457  0.2957
   58DOPE     N 7354   1.142   4.548  12.761 -0.0092 -0.0006 -0.4193
   58DOPE   HN1 7355   1.089   4.463  12.788 -0.6701  0.5018 -0.1096
   58DOPE   HN2 7356   1.143   4.608  12.846  2.6132  0.3665 -0.6078
   58DOPE   HN3 7357   1.098   4.598  12.681  2.0809  0.5708 -1.2943
   58DOPE   C12 7358   1.279   4.527  12.720 -0.5817 -0.4001 -0.4147
   58DOPE  H12A 7359   1.332   4.623  12.738 -1.1763 -0.1512  0.0366
   58DOPE  H12B 7360   1.276   4.489  12.616  0.8262 -0.9681 -0.2793
   58DOPE   C11 7361   1.352   4.417  12.796 -0.0108 -0.0545 -1.4366
   58DOPE  H11A 7362   1.374   4.448  12.900  0.6689 -0.3599 -1.4814
   58DOPE  H11B 7363   1.447   4.395  12.744  0.6668  0.3835 -0.4079
   58DOPE     P 7364   1.309   4.170  12.877 -0.3002 -0.0099 -0.4150
   58DOPE   O13 7365   1.450   4.133  12.842  1.0766 -0.3041  0.3564
   58DOPE   O14 7366   1.202   4.067  12.849 -0.3312  0.0818  0.6354
   58DOPE   O11 7367   1.299   4.218  13.022  0.1906 -0.6500 -0.1806
   58DOPE   O12 7368   1.266   4.304  12.795 -0.6098 -0.2466  0.0510
   58DOPE    C1 7369   1.184   4.271  13.084  0.7442 -1.0697  0.5065
   58DOPE    HA 7370   1.094   4.281  13.020 -1.4486  3.2087  3.6923
   58DOPE    HB 7371   1.206   4.374  13.122  1.0672 -1.3350  1.0576
   58DOPE    C2 7372   1.134   4.184  13.203 -0.2546 -0.2891 -0.0602
   58DOPE    HS 7373   1.034   4.221  13.234 -0.8889 -0.5230 -1.7115
   58DOPE   O21 7374   1.231   4.174  13.308  0.0527 -0.8992  0.3350
   58DOPE   C21 7375   1.236   4.282  13.384  0.0690  0.5682 -0.3012
   58DOPE   O22 7376   1.172   4.383  13.365  0.1686 -0.4723  0.1539
   58DOPE   C22 7377   1.343   4.269  13.494 -0.2326 -0.2964 -0.3358
   58DOPE   H2R 7378   1.367   4.367  13.539 -0.2811 -1.3426  2.1145
   58DOPE   H2S 7379   1.440   4.229  13.459  1.0612  0.8806  1.6963
   58DOPE    C3 7380   1.095   4.048  13.153 -0.2771 -0.1307 -0.2699
   58DOPE    HX 7381   1.179   3.986  13.115 -0.6034 -1.2593  0.8132
   58DOPE    HY 7382   1.026   4.066  13.067 -0.4701  0.4733  0.0047
   58DOPE   O31 7383   1.025   3.973  13.253 -0.4068 -0.3233  0.3081
   58DOPE   C31 7384   0.989   3.852  13.210 -0.3254  0.2024 -0.3860
   58DOPE   O32 7385   1.005   3.814  13.094 -0.7053  0.0023 -0.1209
   58DOPE   C32 7386   0.932   3.780  13.335  0.0728 -0.8470 -0.0648
   58DOPE   H2X 7387   1.007   3.797  13.416 -0.7998  2.5055  0.1844
   58DOPE   H2Y 7388   0.850   3.842  13.375  2.4327  2.7765 -0.3860
   58DOPE   C23 7389   1.293   4.182  13.617  0.0402  0.3106  0.4777
   58DOPE   H3R 7390   1.292   4.074  13.591  1.8534  0.3561  0.0703
   58DOPE   H3S 7391   1.189   4.209  13.644  0.2341  1.8658 -0.2306
   58DOPE   C24 7392   1.394   4.209  13.742  0.4746  0.4897 -0.2434
   58DOPE   H4R 7393   1.398   4.320  13.752 -2.2761  0.5145  1.9549
   58DOPE   H4S 7394   1.496   4.173  13.717  0.4514  0.4756 -0.3186
   58DOPE   C25 7395   1.335   4.156  13.877  0.2081  0.6040 -0.3417
   58DOPE   H5R 7396   1.325   4.045  13.876 -3.9770  0.8377 -1.0100
   58DOPE   H5S 7397   1.229   4.182  13.896 -0.1852  0.5812 -2.3410
   58DOPE   C26 7398   1.422   4.216  13.984 -1.0144  0.2751  0.4841
   58DOPE   H6R 7399   1.425   4.327  13.984  0.6243  0.2562  1.1059
   58DOPE   H6S 7400   1.522   4.168  13.976 -1.4751 -0.6247  0.0046
   58DOPE   C27 7401   1.368   4.175  14.130 -0.3040 -0.2719  0.2802
   58DOPE   H7R 7402   1.373   4.064  14.138  0.2493 -0.2831 -0.1364
   58DOPE   H7S 7403   1.260   4.199  14.121 -0.4371 -1.3504 -1.5758
   58DOPE   C28 7404   1.428   4.253  14.247 -0.1471  0.0441 -0.3023
   58DOPE   H8R 7405   1.379   4.223  14.342  1.8305 -1.6243  0.2715
   58DOPE   H8S 7406   1.422   4.362  14.232  3.7136  0.7766  2.0143
   58DOPE   C29 7407   1.575   4.221  14.262 -0.6016  0.0768 -0.0888
   58DOPE   H9R 7408   1.600   4.114  14.248  2.2358  0.7788 -1.0076
   58DOPE  C210 7409   1.669   4.316  14.276 -0.0580  0.3127  0.2450
   58DOPE  H10R 7410   1.772   4.278  14.266 -0.0405  0.6151 -0.8199
   58DOPE  C211 7411   1.655   4.469  14.281  0.4690  0.5633  0.0853
   58DOPE  H11R 7412   1.746   4.519  14.320  1.1419 -0.2254 -0.4490
   58DOPE  H11S 7413   1.570   4.504  14.343  0.9870  4.1027 -0.9677
   58DOPE  C212 7414   1.624   4.530  14.138 -0.3779  0.6749 -0.4581
   58DOPE  H12R 7415   1.634   4.638  14.162 -0.8829  0.2098  2.1824
   58DOPE  H12S 7416   1.516   4.516  14.117 -0.7809  0.7222  1.3570
   58DOPE  C213 7417   1.711   4.485  14.015 -0.0726  0.5836  0.1667
   58DOPE  H13R 7418   1.695   4.386  13.969 -0.8505  1.6018 -1.9109
   58DOPE  H13S 7419   1.818   4.487  14.046  0.6100 -0.6857 -1.8949
   58DOPE  C214 7420   1.699   4.577  13.893 -0.0137  0.8499  0.2526
   58DOPE  H14R 7421   1.761   4.538  13.809 -0.8228 -1.4450  0.6306
   58DOPE  H14S 7422   1.743   4.674  13.925  1.4922  0.2736  0.0210
   58DOPE  C215 7423   1.556   4.592  13.841  0.2137  0.0764 -0.2291
   58DOPE  H15R 7424   1.498   4.648  13.917  0.1789  0.1134 -0.2813
   58DOPE  H15S 7425   1.521   4.488  13.823 -0.0789  0.2533 -0.7189
   58DOPE  C216 7426   1.544   4.672  13.714  0.1840 -0.4315 -0.5447
   58DOPE  H16R 7427   1.600   4.634  13.626 -0.6249 -0.9342 -0.8520
   58DOPE  H16S 7428   1.580   4.775  13.734  0.5023 -0.7843  0.8012
   58DOPE  C217 7429   1.407   4.695  13.656  0.7869 -0.1918 -0.5503
   58DOPE  H17R 7430   1.350   4.750  13.734  0.4466 -0.8558 -0.3170
   58DOPE  H17S 7431   1.356   4.598  13.636 -0.8597  1.0075 -2.5382
   58DOPE  C218 7432   1.409   4.786  13.534 -0.7519 -0.1739  0.3597
   58DOPE  H18R 7433   1.308   4.813  13.495 -0.7315 -1.9165 -1.0016
   58DOPE  H18S 7434   1.462   4.738  13.449  0.3521  1.8583 -0.1740
   58DOPE  H18T 7435   1.455   4.886  13.551 -0.9188 -0.1351  0.5870
   58DOPE   C33 7436   0.901   3.634  13.318 -0.0129  0.2756  0.1861
   58DOPE   H3X 7437   0.993   3.584  13.278  0.4432 -0.0454  1.5784
   58DOPE   H3Y 7438   0.833   3.617  13.232  0.0820 -0.6911  0.2842
   58DOPE   C34 7439   0.850   3.550  13.433 -0.6655  0.3599 -0.0570
   58DOPE   H4X 7440   0.851   3.445  13.398 -0.8136  0.3343  0.0164
   58DOPE   H4Y 7441   0.927   3.560  13.512  0.5329  1.5115 -1.3000
   58DOPE   C35 7442   0.713   3.596  13.487 -0.0678 -0.0377 -0.5616
   58DOPE   H5X 7443   0.629   3.559  13.424 -1.7262  1.1175  0.8882
   58DOPE   H5Y 7444   0.716   3.707  13.494  0.1987  0.0732 -2.0751
   58DOPE   C36 7445   0.683   3.545  13.633  0.6453 -0.0446  0.1440
   58DOPE   H6X 7446   0.607   3.613  13.678  1.9049  0.3051  1.8489
   58DOPE   H6Y 7447   0.775   3.543  13.694  0.4967 -2.2173  0.3737
   58DOPE   C37 7448   0.643   3.392  13.637 -0.6402  0.2939 -0.2289
   58DOPE   H7X 7449   0.545   3.391  13.586 -0.5795  2.0484 -0.4282
   58DOPE   H7Y 7450   0.726   3.333  13.591  0.2107  2.2123 -1.2502
   58DOPE   C38 7451   0.622   3.337  13.774 -0.2661  0.3421 -1.4503
   58DOPE   H8X 7452   0.596   3.423  13.840  0.6624 -1.1181  0.9346
   58DOPE   H8Y 7453   0.721   3.313  13.818  0.4023  2.9113 -1.3576
   58DOPE   C39 7454   0.513   3.233  13.784 -0.3340  0.2795 -0.1933
   58DOPE   H9X 7455   0.538   3.140  13.730  1.8305 -0.1770  1.4376
   58DOPE  C310 7456   0.399   3.243  13.857  0.4124 -0.6218 -0.3192
   58DOPE  H10X 7457   0.343   3.151  13.876 -0.7430 -0.1635 -1.3521
   58DOPE  C311 7458   0.354   3.360  13.940 -0.3314  0.1505 -0.6429
   58DOPE  H11X 7459   0.410   3.453  13.917  1.1438 -1.3618 -3.9599
   58DOPE  H11Y 7460   0.251   3.385  13.908 -0.1758  0.1556 -1.1609
   58DOPE  C312 7461   0.349   3.337  14.092 -0.7250  0.3094 -0.1328
   58DOPE  H12X 7462   0.372   3.434  14.142  3.8963 -0.8287  0.3846
   58DOPE  H12Y 7463   0.432   3.270  14.122 -3.1140 -3.2106 -0.7710
   58DOPE  C313 7464   0.216   3.276  14.127 -0.3892  0.0501 -0.1614
   58DOPE  H13X 7465   0.131   3.335  14.087 -0.9302  2.5594  4.0823
   58DOPE  H13Y 7466   0.208   3.177  14.076 -1.1480 -0.9038  1.7157
   58DOPE  C314 7467   0.190   3.271  14.283  0.3047  0.3482  0.1408
   58DOPE  H14X 7468   0.189   3.378  14.313  0.3443  0.3503  0.1342
   58DOPE  H14Y 7469   0.271   3.212  14.331 -1.0463 -0.7403  1.1848
   58DOPE  C315 7470   0.057   3.210  14.305  0.1897  0.0957 -0.0104
   58DOPE  H15X 7471   0.050   3.117  14.245  0.6510  1.0040 -1.5493
   58DOPE  H15Y 7472  -0.019   3.273  14.253  0.3880  0.4342  0.1041
   58DOPE  C316 7473   0.003   3.173  14.445  0.1114 -0.2355 -0.1142
   58DOPE  H16X 7474   0.076   3.099  14.483 -0.2880 -0.9505 -0.7076
   58DOPE  H16Y 7475  -0.099   3.130  14.429  0.8271 -2.5054  0.9616
   58DOPE  C317 7476  -0.001   3.294  14.538 -0.4871 -1.1397 -0.0517
   58DOPE  H17X 7477   0.100   3.324  14.573 -1.1066  1.4424 -0.2577
   58DOPE  H17Y 7478  -0.027   3.385  14.479  2.4952  0.0697  0.3155
   58DOPE  C318 7479  -0.084   3.267  14.663 -0.1823 -0.1247 -0.4531
   58DOPE  H18X 7480  -0.039   3.181  14.717 -2.6648 -0.9772  0.3621
   58DOPE  H18Y 7481  -0.075   3.358  14.726 -0.8423 -0.5003  0.1880
   58DOPE  H18Z 7482  -0.188   3.251  14.628  0.3558 -1.1963 -1.6806
   59DOPE     N 7483   1.088   0.528  12.892 -0.3225 -0.5192  0.7996
   59DOPE   HN1 7484   1.094   0.424  12.901  1.0176 -0.4388  1.0342
   59DOPE   HN2 7485   1.120   0.539  12.794  0.8651 -2.1792  0.9595
   59DOPE   HN3 7486   1.164   0.561  12.955 -0.3953  1.9590 -0.3081
   59DOPE   C12 7487   0.953   0.577  12.926  0.0969  0.3918 -0.4445
   59DOPE  H12A 7488   0.881   0.550  12.847 -0.6321 -1.0108  0.6376
   59DOPE  H12B 7489   0.959   0.686  12.947  0.2775 -0.0094  1.8541
   59DOPE   C11 7490   0.902   0.511  13.052 -0.0294 -0.2976  0.3944
   59DOPE  H11A 7491   0.800   0.555  13.061 -0.8888 -1.4292 -2.7556
   59DOPE  H11B 7492   0.968   0.532  13.139  0.7407 -0.3095 -0.1875
   59DOPE     P 7493   0.820   0.277  13.141  0.1546  0.2090 -0.3273
   59DOPE   O13 7494   0.904   0.267  13.262  0.2500 -0.3227 -0.3470
   59DOPE   O14 7495   0.787   0.147  13.080  0.0528  0.5511 -0.0453
   59DOPE   O11 7496   0.691   0.365  13.180  0.1427  0.3300  0.2020
   59DOPE   O12 7497   0.889   0.372  13.035  0.2496 -0.0805 -0.1515
   59DOPE    C1 7498   0.577   0.294  13.228  0.6511  0.7812  0.1408
   59DOPE    HA 7499   0.588   0.268  13.336  0.2715 -3.3670 -0.6268
   59DOPE    HB 7500   0.559   0.195  13.180 -0.1190  0.4496  1.0777
   59DOPE    C2 7501   0.448   0.369  13.203  0.5256 -0.2274  0.5692
   59DOPE    HS 7502   0.446   0.411  13.100 -0.8966 -0.0241  0.6572
   59DOPE   O21 7503   0.432   0.460  13.307 -0.4084  0.7237 -0.0608
   59DOPE   C21 7504   0.353   0.558  13.271  0.2519 -0.6175  0.3856
   59DOPE   O22 7505   0.288   0.571  13.166 -0.2374 -0.0325 -0.0817
   59DOPE   C22 7506   0.349   0.663  13.378 -0.7111 -0.2950 -0.8432
   59DOPE   H2R 7507   0.449   0.711  13.391 -1.0875 -0.1816  2.0898
   59DOPE   H2S 7508   0.325   0.612  13.473  0.5446 -1.8183 -1.2883
   59DOPE    C3 7509   0.324   0.271  13.204  0.4289  0.2471 -0.6704
   59DOPE    HX 7510   0.341   0.207  13.115  2.3308  0.0034 -0.1672
   59DOPE    HY 7511   0.234   0.333  13.185  1.0342  1.6597  0.8040
   59DOPE   O31 7512   0.313   0.198  13.328  0.0559  0.2398 -0.2305
   59DOPE   C31 7513   0.349   0.070  13.320  0.0623 -0.5939 -0.6345
   59DOPE   O32 7514   0.366  -0.004  13.227 -0.3335 -0.3520  0.0054
   59DOPE   C32 7515   0.372   0.026  13.468 -1.2322 -0.7524  0.6032
   59DOPE   H2X 7516   0.483   0.025  13.473 -1.2342 -0.2824  0.6999
   59DOPE   H2Y 7517   0.329   0.100  13.538 -0.9777 -0.5700  0.5672
   59DOPE   C23 7518   0.262   0.792  13.349 -0.2313 -0.5433 -0.3918
   59DOPE   H3R 7519   0.159   0.768  13.316 -0.6774 -0.4281  0.8580
   59DOPE   H3S 7520   0.310   0.859  13.275  0.8048 -0.9399 -0.0888
   59DOPE   C24 7521   0.258   0.880  13.478  0.1391  0.2105 -0.3072
   59DOPE   H4R 7522   0.354   0.927  13.507 -0.6801  1.2152  0.9062
   59DOPE   H4S 7523   0.238   0.799  13.551  0.8374 -0.0605 -0.4162
   59DOPE   C25 7524   0.145   0.986  13.474 -0.2117 -0.0073 -0.1419
   59DOPE   H5R 7525   0.056   0.932  13.435 -0.2329 -0.2450  0.2400
   59DOPE   H5S 7526   0.170   1.074  13.410 -0.7290  0.8256  0.7799
   59DOPE   C26 7527   0.100   1.020  13.615  0.4620  0.1377 -0.1194
   59DOPE   H6R 7528   0.024   1.101  13.607  0.5228  0.4593  1.9062
   59DOPE   H6S 7529   0.181   1.066  13.676 -0.0466 -0.0863  0.7458
   59DOPE   C27 7530   0.032   0.921  13.706 -0.5041  1.2804 -0.2306
   59DOPE   H7R 7531   0.100   0.835  13.720  0.5534  2.0988 -0.2386
   59DOPE   H7S 7532  -0.051   0.871  13.651 -0.1003  1.0695 -0.6499
   59DOPE   C28 7533  -0.046   0.974  13.832  0.0871  0.1225  0.0692
   59DOPE   H8R 7534  -0.117   0.897  13.869 -0.5871  1.8017  2.4266
   59DOPE   H8S 7535  -0.111   1.059  13.802 -0.1563 -0.2222 -0.3935
   59DOPE   C29 7536   0.047   1.013  13.945 -1.0172 -0.2589 -0.3738
   59DOPE   H9R 7537   0.147   1.052  13.921  0.0929 -1.4019  2.1224
   59DOPE  C210 7538   0.036   0.983  14.078 -0.6216 -1.3728 -0.2001
   59DOPE  H10R 7539   0.121   1.011  14.142 -1.1876  2.2757 -0.7983
   59DOPE  C211 7540  -0.072   0.894  14.136 -0.4802 -0.3865  0.0779
   59DOPE  H11R 7541  -0.067   0.788  14.104  0.6542 -0.6135  0.9452
   59DOPE  H11S 7542  -0.171   0.940  14.114 -0.2537  1.7166  2.8613
   59DOPE  C212 7543  -0.060   0.879  14.288  0.1809 -0.5246  1.1431
   59DOPE  H12R 7544  -0.106   0.972  14.329 -3.1026 -0.6360 -1.8010
   59DOPE  H12S 7545   0.047   0.877  14.316  0.5884  1.5001 -0.0682
   59DOPE  C213 7546  -0.124   0.760  14.340  0.4558  0.9633 -0.3887
   59DOPE  H13R 7547  -0.094   0.663  14.295 -0.0029  0.6452 -0.0274
   59DOPE  H13S 7548  -0.232   0.767  14.315  0.5376  2.0155 -0.4727
   59DOPE  C214 7549  -0.114   0.752  14.500 -0.3975  0.4700  0.5379
   59DOPE  H14R 7550  -0.179   0.832  14.541 -0.3326  0.8946 -0.1808
   59DOPE  H14S 7551  -0.013   0.785  14.532 -0.1006 -0.7058  0.8878
   59DOPE  C215 7552  -0.140   0.610  14.552 -0.2766 -0.0087  0.6982
   59DOPE  H15R 7553  -0.046   0.558  14.526 -0.0656  1.4133 -1.6802
   59DOPE  H15S 7554  -0.226   0.567  14.497 -0.5400  0.6101  0.6191
   59DOPE  C216 7555  -0.155   0.602  14.706 -0.2281  0.3910  0.8022
   59DOPE  H16R 7556  -0.083   0.674  14.750 -1.1107  0.7887  1.6265
   59DOPE  H16S 7557  -0.109   0.509  14.746  3.1026  1.0269 -1.1005
   59DOPE  C217 7558  -0.288   0.639  14.758  0.6020  0.6841  0.0393
   59DOPE  H17R 7559  -0.314   0.732  14.702  0.7263  0.2155 -0.8126
   59DOPE  H17S 7560  -0.277   0.647  14.868  2.0613  2.3892 -0.1745
   59DOPE  C218 7561  -0.401   0.533  14.735 -0.1300 -0.1354  0.1712
   59DOPE  H18R 7562  -0.421   0.528  14.626  0.5975 -0.0523  0.0232
   59DOPE  H18S 7563  -0.485   0.576  14.794  0.3302  0.3287  0.5061
   59DOPE  H18T 7564  -0.372   0.441  14.790 -2.3240 -0.2245  1.2983
   59DOPE   C33 7565   0.312  -0.112  13.497 -0.4320  0.6077  0.1323
   59DOPE   H3X 7566   0.334  -0.185  13.415 -2.6979  1.7761 -1.6559
   59DOPE   H3Y 7567   0.202  -0.097  13.503 -0.1332  3.5776 -0.3998
   59DOPE   C34 7568   0.372  -0.171  13.624  0.2043  0.1424 -0.5627
   59DOPE   H4X 7569   0.481  -0.191  13.616  0.2847  0.5493 -0.5424
   59DOPE   H4Y 7570   0.355  -0.098  13.706  2.4285 -1.1532  1.1568
   59DOPE   C35 7571   0.295  -0.302  13.664  0.2150 -0.2596 -0.1023
   59DOPE   H5X 7572   0.326  -0.383  13.595  0.1576  0.1045 -0.5538
   59DOPE   H5Y 7573   0.184  -0.308  13.659  0.0880 -0.7840  2.1201
   59DOPE   C36 7574   0.332  -0.351  13.805  0.4513  0.8193 -0.9560
   59DOPE   H6X 7575   0.296  -0.277  13.880 -1.6157 -2.1909  1.2593
   59DOPE   H6Y 7576   0.441  -0.362  13.827  0.2399  0.5568  0.0166
   59DOPE   C37 7577   0.253  -0.479  13.840 -0.0158 -0.1153  0.0434
   59DOPE   H7X 7578   0.146  -0.450  13.829 -0.0281  0.1341  0.7809
   59DOPE   H7Y 7579   0.270  -0.561  13.767 -0.3140 -0.8622  0.7996
   59DOPE   C38 7580   0.273  -0.532  13.981 -0.1174  0.0775  0.3441
   59DOPE   H8X 7581   0.203  -0.617  13.984  1.7651 -1.5879 -0.4265
   59DOPE   H8Y 7582   0.257  -0.448  14.052 -0.8010 -1.0471  1.5647
   59DOPE   C39 7583   0.412  -0.587  13.995  0.3255  0.4134 -0.8232
   59DOPE   H9X 7584   0.469  -0.621  13.908 -0.4150  0.5438 -1.3693
   59DOPE  C310 7585   0.463  -0.608  14.118 -0.2396  0.2983 -0.4974
   59DOPE  H10X 7586   0.555  -0.668  14.111  0.7563  1.0416  3.6796
   59DOPE  C311 7587   0.407  -0.592  14.260  0.3681 -0.1404 -0.6229
   59DOPE  H11X 7588   0.470  -0.538  14.334 -1.9088  2.5323 -0.5033
   59DOPE  H11Y 7589   0.309  -0.540  14.256  0.2154 -0.4721 -1.3089
   59DOPE  C312 7590   0.374  -0.727  14.322  0.7074  0.2154  0.2000
   59DOPE  H12X 7591   0.469  -0.784  14.334 -0.2619 -1.6942 -0.6873
   59DOPE  H12Y 7592   0.315  -0.783  14.246  2.0655  1.0400 -1.5655
   59DOPE  C313 7593   0.301  -0.720  14.453 -0.7543  0.3026  0.5199
   59DOPE  H13X 7594   0.194  -0.692  14.442 -0.8786 -0.5450 -0.6717
   59DOPE  H13Y 7595   0.297  -0.823  14.495 -2.1855 -0.8223 -2.1456
   59DOPE  C314 7596   0.373  -0.627  14.550  0.1562  0.2268 -0.5144
   59DOPE  H14X 7597   0.367  -0.520  14.521 -2.4784  0.3804  0.3530
   59DOPE  H14Y 7598   0.479  -0.658  14.566 -0.6149 -1.6315  1.4317
   59DOPE  C315 7599   0.304  -0.638  14.686  0.6045  0.3095 -0.4141
   59DOPE  H15X 7600   0.277  -0.745  14.694 -1.9260  0.8647 -0.5727
   59DOPE  H15Y 7601   0.207  -0.584  14.688  0.5070  0.1388  0.9898
   59DOPE  C316 7602   0.386  -0.588  14.808 -0.3824 -0.0776  0.9936
   59DOPE  H16X 7603   0.410  -0.482  14.787 -2.3161  0.3586  0.7896
   59DOPE  H16Y 7604   0.480  -0.647  14.811  1.1302  2.1783  0.3996
   59DOPE  C317 7605   0.308  -0.594  14.935 -0.0378 -0.1812  0.3785
   59DOPE  H17X 7606   0.216  -0.536  14.910  0.8211  0.7047 -0.8417
   59DOPE  H17Y 7607   0.273  -0.693  14.971 -1.5846  0.0960 -0.2779
   59DOPE  C318 7608   0.380  -0.520  15.044 -0.1514 -0.7608 -0.1852
   59DOPE  H18X 7609   0.453  -0.441  15.015  2.3018 -2.9038 -0.3131
   59DOPE  H18Y 7610   0.314  -0.477  15.122  0.8842  0.6800 -0.0685
   59DOPE  H18Z 7611   0.437  -0.598  15.099  1.0516 -0.2310 -0.6433
   60DOPE     N 7612   1.249   6.156  12.879  0.5438 -0.7756 -0.4762
   60DOPE   HN1 7613   1.346   6.157  12.917  0.1763 -0.8084  0.4974
   60DOPE   HN2 7614   1.240   6.218  12.796 -2.4680 -1.9757 -1.1520
   60DOPE   HN3 7615   1.194   6.201  12.955 -0.8294 -4.3953  0.8790
   60DOPE   C12 7616   1.194   6.019  12.849 -0.3439  0.5501 -0.2360
   60DOPE  H12A 7617   1.139   6.034  12.753  2.3782  1.3515 -1.7794
   60DOPE  H12B 7618   1.134   5.990  12.937  1.3841 -0.9438  0.5075
   60DOPE   C11 7619   1.324   5.921  12.846 -0.3175 -0.4838  0.4411
   60DOPE  H11A 7620   1.405   5.946  12.774  2.1875 -1.5858  2.7226
   60DOPE  H11B 7621   1.291   5.820  12.814  0.3112  0.0293 -2.0945
   60DOPE     P 7622   1.347   5.780  13.071 -0.2147  0.6272 -0.0146
   60DOPE   O13 7623   1.447   5.675  13.046  0.2930  0.7295 -0.4191
   60DOPE   O14 7624   1.211   5.730  13.055 -0.1093  0.0514 -0.5387
   60DOPE   O11 7625   1.360   5.832  13.214  0.1644 -0.4760 -0.3569
   60DOPE   O12 7626   1.377   5.901  12.977  0.3412 -0.3540  0.0721
   60DOPE    C1 7627   1.473   5.893  13.260 -0.4396 -0.0778 -0.4426
   60DOPE    HA 7628   1.463   6.003  13.273  0.7197  0.5053 -3.4304
   60DOPE    HB 7629   1.557   5.882  13.188  0.4500  0.0127  0.5570
   60DOPE    C2 7630   1.525   5.832  13.389  0.3856 -0.5115 -0.4571
   60DOPE    HS 7631   1.553   5.727  13.368  0.5901 -0.9317  1.7047
   60DOPE   O21 7632   1.423   5.825  13.491  0.0300 -0.0829 -0.0203
   60DOPE   C21 7633   1.396   5.926  13.559 -0.5286 -0.7623 -0.7379
   60DOPE   O22 7634   1.441   6.042  13.538  0.3125 -0.3151 -0.3861
   60DOPE   C22 7635   1.307   5.896  13.680 -0.2080  0.2778 -0.0772
   60DOPE   H2R 7636   1.261   5.797  13.661 -1.5899  1.1969 -1.8633
   60DOPE   H2S 7637   1.233   5.978  13.689  1.8327  2.4233 -1.4526
   60DOPE    C3 7638   1.661   5.888  13.449 -1.1185 -0.4229  0.7457
   60DOPE    HX 7639   1.650   5.998  13.460 -1.3444 -0.3418 -0.1461
   60DOPE    HY 7640   1.732   5.860  13.368 -1.7071 -0.7024  0.3158
   60DOPE   O31 7641   1.695   5.824  13.573 -0.5201 -0.3331 -0.2113
   60DOPE   C31 7642   1.720   5.691  13.569 -0.1294  1.1311 -0.8500
   60DOPE   O32 7643   1.730   5.625  13.471  0.0425  0.9390  1.2801
   60DOPE   C32 7644   1.733   5.638  13.714  0.2181 -0.0129 -0.4477
   60DOPE   H2X 7645   1.840   5.623  13.740 -0.0318  1.8353  2.0084
   60DOPE   H2Y 7646   1.699   5.711  13.790  0.0584 -0.4096 -0.1346
   60DOPE   C23 7647   1.399   5.894  13.808 -0.6133 -0.6146  0.3303
   60DOPE   H3R 7648   1.401   5.998  13.848  1.2629 -0.5172  0.0723
   60DOPE   H3S 7649   1.499   5.850  13.787 -0.6630 -0.6412  0.1518
   60DOPE   C24 7650   1.329   5.818  13.918 -0.3855  0.4605  0.1539
   60DOPE   H4R 7651   1.334   5.710  13.893  1.4802  0.0622  1.9561
   60DOPE   H4S 7652   1.223   5.851  13.924  0.0828  2.2788 -0.7457
   60DOPE   C25 7653   1.394   5.843  14.060 -0.4874  0.3239  0.0169
   60DOPE   H5R 7654   1.401   5.953  14.072 -0.4688  0.3442 -0.1717
   60DOPE   H5S 7655   1.498   5.805  14.069 -0.1786  1.3165  0.8461
   60DOPE   C26 7656   1.323   5.784  14.176 -0.2017 -0.3157 -0.1261
   60DOPE   H6R 7657   1.326   5.673  14.166 -1.9184 -0.3206 -0.8553
   60DOPE   H6S 7658   1.216   5.809  14.167 -0.5700 -1.5475  0.5148
   60DOPE   C27 7659   1.382   5.832  14.313  1.2546  0.2352  0.1056
   60DOPE   H7R 7660   1.371   5.942  14.329  1.4167  0.4906 -1.4238
   60DOPE   H7S 7661   1.486   5.794  14.312  1.0462 -0.3475  0.0085
   60DOPE   C28 7662   1.302   5.768  14.423  0.1209  0.2631  0.6830
   60DOPE   H8R 7663   1.324   5.659  14.422  0.5806  0.3134 -2.0120
   60DOPE   H8S 7664   1.197   5.784  14.393  0.2689 -0.7884 -0.4838
   60DOPE   C29 7665   1.330   5.827  14.557 -0.3342 -0.4957 -0.1331
   60DOPE   H9R 7666   1.426   5.790  14.597  0.8204  1.3454 -1.0859
   60DOPE  C210 7667   1.251   5.906  14.632  0.1180 -1.0552  0.1935
   60DOPE  H10R 7668   1.290   5.937  14.730 -0.8878 -2.0491  0.9327
   60DOPE  C211 7669   1.118   5.965  14.589  0.2453  0.3798 -0.0092
   60DOPE  H11R 7670   1.073   5.902  14.509 -2.4694  2.3341 -0.1628
   60DOPE  H11S 7671   1.139   6.064  14.544 -0.3761  1.9540  2.8964
   60DOPE  C212 7672   1.017   5.974  14.699  0.2694  0.0101 -0.0254
   60DOPE  H12R 7673   1.043   6.045  14.780 -0.0813 -1.8394  1.7895
   60DOPE  H12S 7674   1.013   5.878  14.754 -0.3608  0.5516  0.9037
   60DOPE  C213 7675   0.879   6.026  14.652 -0.0183  0.1439  0.3837
   60DOPE  H13R 7676   0.831   5.933  14.615 -2.5366  0.8517  1.6174
   60DOPE  H13S 7677   0.900   6.102  14.573 -0.3330  1.3706  1.4379
   60DOPE  C214 7678   0.794   6.097  14.765  0.3902 -0.1403  0.3404
   60DOPE  H14R 7679   0.696   6.138  14.732 -1.4213 -1.5555  3.5404
   60DOPE  H14S 7680   0.848   6.178  14.819 -1.7386  0.8542  1.0746
   60DOPE  C215 7681   0.746   5.995  14.879 -0.0513 -0.1919 -0.6194
   60DOPE  H15R 7682   0.838   5.948  14.919 -0.3089 -0.8039 -0.7350
   60DOPE  H15S 7683   0.684   5.916  14.831  0.2020 -2.0181  1.8778
   60DOPE  C216 7684   0.663   6.074  14.981  0.0984  0.1321  0.4004
   60DOPE  H16R 7685   0.566   6.108  14.938 -2.7130 -1.0011  5.1551
   60DOPE  H16S 7686   0.726   6.161  15.009  2.6742 -0.2073 -3.4885
   60DOPE  C217 7687   0.629   5.996  15.102  0.2345  0.0263  0.0766
   60DOPE  H17R 7688   0.569   6.071  15.159  0.7970  2.8497 -2.7654
   60DOPE  H17S 7689   0.720   5.970  15.160  1.0136 -2.3937 -2.0733
   60DOPE  C218 7690   0.555   5.868  15.081  0.0905 -0.5738  0.2774
   60DOPE  H18R 7691   0.510   5.828  15.175  0.8136 -3.1575 -0.3774
   60DOPE  H18S 7692   0.629   5.791  15.051 -0.1707 -0.4325 -0.7614
   60DOPE  H18T 7693   0.467   5.885  15.016 -0.1727 -2.3899  0.0953
   60DOPE   C33 7694   1.647   5.510  13.743  0.0227  0.4166 -0.2002
   60DOPE   H3X 7695   1.671   5.431  13.669  3.6219 -0.4180  1.5966
   60DOPE   H3Y 7696   1.541   5.540  13.733  0.2562  1.6129  0.6172
   60DOPE   C34 7697   1.673   5.452  13.882  0.0435 -0.6401  0.0278
   60DOPE   H4X 7698   1.625   5.352  13.889  3.2380 -2.1856  2.4513
   60DOPE   H4Y 7699   1.783   5.444  13.893  0.0940 -1.6324 -1.0203
   60DOPE   C35 7700   1.611   5.529  14.000 -0.1699 -0.4451  0.1009
   60DOPE   H5X 7701   1.500   5.543  13.997 -0.0057  0.8798 -0.7606
   60DOPE   H5Y 7702   1.656   5.630  14.006  2.4980 -1.5709  0.3664
   60DOPE   C36 7703   1.654   5.446  14.123 -0.0164  0.2640 -0.1717
   60DOPE   H6X 7704   1.761   5.473  14.138  0.7182 -2.9692  1.3970
   60DOPE   H6Y 7705   1.651   5.335  14.116  1.3095 -0.0813  2.9549
   60DOPE   C37 7706   1.569   5.482  14.244 -0.1383 -0.0167 -0.2424
   60DOPE   H7X 7707   1.547   5.590  14.256  2.8894  0.6163  0.3125
   60DOPE   H7Y 7708   1.470   5.433  14.226  0.2274 -1.1997  0.8023
   60DOPE   C38 7709   1.612   5.429  14.386 -0.6447 -0.4579 -0.8371
   60DOPE   H8X 7710   1.568   5.494  14.465  1.7471 -0.2263  0.3965
   60DOPE   H8Y 7711   1.722   5.444  14.389 -0.5586 -1.1593 -0.5631
   60DOPE   C39 7712   1.585   5.287  14.408  0.6851 -0.1053  0.1308
   60DOPE   H9X 7713   1.598   5.224  14.319 -0.7083 -0.1049 -0.0956
   60DOPE  C310 7714   1.556   5.231  14.531  0.0453 -0.5665 -0.0018
   60DOPE  H10X 7715   1.527   5.127  14.550 -0.3788  0.1008  3.9814
   60DOPE  C311 7716   1.552   5.309  14.664 -0.4785 -0.3781 -0.5305
   60DOPE  H11X 7717   1.476   5.389  14.650 -0.2653  0.1080  0.8803
   60DOPE  H11Y 7718   1.515   5.252  14.753  2.8735  0.8646  1.8371
   60DOPE  C312 7719   1.678   5.382  14.720  0.2668  0.2156  0.1994
   60DOPE  H12X 7720   1.718   5.458  14.650 -0.3571  0.1300 -0.2647
   60DOPE  H12Y 7721   1.751   5.301  14.741 -1.0165 -1.4437 -1.3972
   60DOPE  C313 7722   1.649   5.457  14.850 -0.2273  0.2354 -1.4941
   60DOPE  H13X 7723   1.580   5.539  14.819  1.5147  1.9618 -1.0270
   60DOPE  H13Y 7724   1.602   5.377  14.911 -1.0892  2.0054  0.2903
   60DOPE  C314 7725   1.768   5.511  14.921 -0.0026 -0.4596 -0.8603
   60DOPE  H14X 7726   1.817   5.588  14.857 -1.6123  1.3448  0.0098
   60DOPE  H14Y 7727   1.836   5.424  14.928 -1.4770 -1.5703  0.3084
   60DOPE  C315 7728   1.731   5.555  15.062  0.0700 -0.9696 -0.1681
   60DOPE  H15X 7729   1.683   5.474  15.121  0.8731  0.0077  1.9288
   60DOPE  H15Y 7730   1.668   5.645  15.050  1.7379  0.2037 -0.5002
   60DOPE  C316 7731   1.854   5.605  15.139 -0.5923  0.1016 -0.0026
   60DOPE  H16X 7732   1.905   5.684  15.080 -2.8689  0.6854 -1.2904
   60DOPE  H16Y 7733   1.921   5.517  15.158 -1.7252 -0.9320 -0.6790
   60DOPE  C317 7734   1.806   5.667  15.264  0.0726  0.8324 -0.0747
   60DOPE  H17X 7735   1.737   5.752  15.249  0.8848  1.8218  1.5780
   60DOPE  H17Y 7736   1.745   5.591  15.317  0.7558 -0.3422 -0.9255
   60DOPE  C318 7737   1.912   5.726  15.352 -0.2647 -0.0618  0.7224
   60DOPE  H18X 7738   1.871   5.780  15.439 -3.6833 -0.3929 -0.5506
   60DOPE  H18Y 7739   1.989   5.649  15.378  0.1721 -1.0390 -2.8174
   60DOPE  H18Z 7740   1.965   5.803  15.292  1.4985  0.6509  3.0521
   6123SM     N 7741   3.016   2.910  17.273 -0.3841 -0.0205 -0.2822
   6123SM   C15 7742   2.866   2.905  17.250 -0.3921 -0.5401  0.5958
   6123SM  H15A 7743   2.809   2.850  17.323 -0.1761  1.6986  2.5887
   6123SM  H15B 7744   2.855   2.844  17.162  1.0235 -0.7733  0.5621
   6123SM  H15C 7745   2.823   3.002  17.231  1.3981 -0.1813 -2.0891
   6123SM   C14 7746   3.061   2.973  17.402  0.3955 -0.3993  0.2334
   6123SM  H14A 7747   3.027   3.075  17.411  0.6221 -0.1101 -1.6568
   6123SM  H14B 7748   3.169   2.972  17.407  0.3835 -2.2362  0.8712
   6123SM  H14C 7749   3.028   2.916  17.487 -0.1744 -1.8663 -0.9333
   6123SM   C13 7750   3.058   2.768  17.286 -0.0585  1.4313  0.5539
   6123SM  H13A 7751   3.019   2.707  17.206 -1.0861  2.0504  0.5713
   6123SM  H13B 7752   3.018   2.722  17.376 -3.1025 -0.9902 -1.7897
   6123SM  H13C 7753   3.163   2.748  17.297 -0.7414 -1.9789  2.5673
   6123SM   C12 7754   3.076   2.975  17.153  0.1258 -0.1992 -0.0465
   6123SM  H12A 7755   3.061   2.920  17.061  1.2182 -0.3247 -0.1689
   6123SM  H12B 7756   3.184   2.976  17.165  0.0391 -0.2861  0.7959
   6123SM   C11 7757   3.029   3.125  17.128  0.2199 -0.3129 -0.5417
   6123SM  H11A 7758   3.045   3.181  17.223 -0.4275 -0.4182 -0.3658
   6123SM  H11B 7759   2.922   3.139  17.102  0.4373  0.5643 -0.9999
   6123SM     P 7760   3.254   3.202  17.022 -0.0109 -0.1640 -0.0073
   6123SM   O13 7761   3.267   3.346  17.062  0.3380 -0.2732 -0.0588
   6123SM   O14 7762   3.316   3.103  17.113 -0.2404  0.4579  1.1816
   6123SM   O11 7763   3.300   3.190  16.876 -0.2704 -0.3016 -0.2841
   6123SM   O12 7764   3.101   3.181  17.020 -0.0433  0.0331  0.2439
   6123SM   C1S 7765   3.207   3.184  16.769 -0.2164 -0.4501  0.9172
   6123SM   H1S 7766   3.147   3.277  16.766 -1.9039 -1.4078  2.4782
   6123SM   H1T 7767   3.125   3.112  16.790 -1.7577  0.8901 -0.2946
   6123SM    NF 7768   3.223   3.198  16.514  0.6438  0.0704 -0.2947
   6123SM   HNF 7769   3.178   3.125  16.463  0.7344 -0.4984  0.4166
   6123SM   C2S 7770   3.291   3.167  16.636  0.1152  0.9023 -0.5159
   6123SM   H2S 7771   3.377   3.237  16.641  1.1178  0.0130 -3.5614
   6123SM   C3S 7772   3.357   3.028  16.638  0.3789  0.0757  0.4437
   6123SM   H3S 7773   3.274   2.954  16.641  1.5014 -1.3886 -1.7667
   6123SM    O3 7774   3.433   2.998  16.755  0.3962  0.6019 -0.1044
   6123SM   HO3 7775   3.410   3.065  16.820 -2.9547 -0.2199 -0.2623
   6123SM   C4S 7776   3.438   3.003  16.520  0.0027 -0.4982  0.3772
   6123SM   H4S 7777   3.373   2.959  16.444  0.2445  0.3578 -0.3466
   6123SM   C5S 7778   3.575   3.030  16.493  0.3362  1.1166 -0.0574
   6123SM   H5S 7779   3.634   3.083  16.569 -1.6109  1.8175  1.0418
   6123SM   C6S 7780   3.650   2.985  16.375 -0.0384 -0.0700  0.2190
   6123SM   H6S 7781   3.599   2.898  16.329 -0.9260 -0.0727  1.1567
   6123SM   H6T 7782   3.750   2.949  16.409  0.5757  1.9381  0.6753
   6123SM   C7S 7783   3.664   3.098  16.275  0.1193 -0.3696  0.2856
   6123SM   H7S 7784   3.746   3.078  16.202 -0.2639 -0.4024 -0.1381
   6123SM   H7T 7785   3.697   3.192  16.325  2.6902 -1.8869  1.7097
   6123SM   C8S 7786   3.526   3.140  16.224 -0.3260 -0.2378 -0.0743
   6123SM   H8S 7787   3.479   3.223  16.280  3.5768  2.5233 -0.4905
   6123SM   H8T 7788   3.464   3.048  16.239 -0.4818 -0.0950  0.1620
   6123SM   C9S 7789   3.515   3.200  16.082 -1.0881 -0.0960  0.4416
   6123SM   H9S 7790   3.575   3.293  16.077  0.7697 -1.2651 -0.2675
   6123SM   H9T 7791   3.410   3.230  16.064 -0.6147  0.5827 -1.3878
   6123SM  C10S 7792   3.573   3.106  15.974  0.6334  0.3327  1.0060
   6123SM  H10S 7793   3.683   3.093  15.983  0.9753  2.8187  1.0366
   6123SM  H10T 7794   3.560   3.141  15.869  0.4623  0.8736  1.2036
   6123SM  C11S 7795   3.505   2.959  15.979 -0.6877  0.9543  0.0369
   6123SM  H11S 7796   3.395   2.959  15.997 -0.9534  0.3871 -1.4187
   6123SM  H11T 7797   3.538   2.904  16.070 -0.6712  0.9210  0.0105
   6123SM  C12S 7798   3.520   2.882  15.849  0.3090 -0.2896  1.0350
   6123SM  H12S 7799   3.625   2.880  15.814  0.6698 -2.7520  2.0326
   6123SM  H12T 7800   3.459   2.932  15.771 -0.0210 -1.3435  0.5921
   6123SM  C13S 7801   3.475   2.733  15.854 -0.3074 -0.6474 -0.3571
   6123SM  H13S 7802   3.395   2.709  15.929 -0.3889 -2.1327 -0.8733
   6123SM  H13T 7803   3.560   2.670  15.888 -0.5140 -1.1129 -0.6946
   6123SM  C14S 7804   3.426   2.673  15.723  0.7931  0.3663  0.1168
   6123SM  H14S 7805   3.494   2.703  15.640  1.2170  0.0383  0.3395
   6123SM  H14T 7806   3.335   2.724  15.686  0.4635 -1.7251 -2.2689
   6123SM  C15S 7807   3.396   2.524  15.717  0.2800 -0.2584  0.2051
   6123SM  H15S 7808   3.493   2.469  15.717  0.5725 -0.1131 -3.9434
   6123SM  H15T 7809   3.341   2.500  15.623 -0.8079 -2.1788  1.2734
   6123SM  C16S 7810   3.304   2.470  15.830  0.8558 -0.5964  1.1030
   6123SM  H16S 7811   3.210   2.528  15.822  2.0351  1.1252 -1.8561
   6123SM  H16T 7812   3.333   2.477  15.937  1.8246  3.3921  0.7168
   6123SM  C17S 7813   3.282   2.316  15.799 -0.1547 -1.5346  0.2413
   6123SM  H17S 7814   3.378   2.271  15.832  0.0335 -0.6318  0.9608
   6123SM  H17T 7815   3.267   2.303  15.690 -1.6450 -0.2407  0.2529
   6123SM  C18S 7816   3.163   2.258  15.866  0.1046  0.7275 -0.4690
   6123SM  H18S 7817   3.163   2.295  15.971  1.9984  2.2371 -0.9511
   6123SM  H18T 7818   3.178   2.148  15.867 -0.3677  0.6460 -1.3431
   6123SM  H18U 7819   3.065   2.277  15.816 -1.8419 -2.0943  1.9185
   6123SM   C1F 7820   3.181   3.319  16.493  0.2418 -0.0438  0.2484
   6123SM    OF 7821   3.205   3.403  16.573 -0.0785 -0.5831  0.0074
   6123SM   C2F 7822   3.111   3.348  16.366  0.2107  0.4357  0.0947
   6123SM   H2F 7823   3.015   3.399  16.389 -0.3003 -0.9725  1.1786
   6123SM   H2G 7824   3.091   3.252  16.315  0.6120 -0.8089  2.1621
   6123SM   C3F 7825   3.198   3.450  16.274  0.3705  0.3755 -0.4632
   6123SM   H3F 7826   3.302   3.413  16.262 -0.4326 -1.8563 -0.9209
   6123SM   H3G 7827   3.188   3.537  16.343 -1.6161 -0.2343  0.0860
   6123SM   C4F 7828   3.135   3.474  16.133 -0.7776 -0.4877  0.0133
   6123SM   H4F 7829   3.025   3.468  16.138 -0.8676  0.6552 -0.1495
   6123SM   H4G 7830   3.172   3.402  16.057  0.0495  0.5876 -0.6354
   6123SM   C5F 7831   3.174   3.619  16.080 -0.1280 -0.4397  0.3005
   6123SM   H5F 7832   3.133   3.703  16.140  1.6263  0.7800 -0.1417
   6123SM   H5G 7833   3.122   3.608  15.982  0.4021 -0.2144 -0.0118
   6123SM   C6F 7834   3.320   3.644  16.068  0.2339  0.2870  0.0738
   6123SM   H6F 7835   3.376   3.552  16.040 -1.5241 -0.5347 -0.8353
   6123SM   H6G 7836   3.351   3.682  16.168  1.6843  2.2446 -1.0414
   6123SM   C7F 7837   3.354   3.750  15.965  0.3809  0.2447  0.3591
   6123SM   H7F 7838   3.270   3.817  15.936  2.5174  1.8609 -2.7090
   6123SM   H7G 7839   3.386   3.702  15.870  0.8821 -0.2330  0.7645
   6123SM   C8F 7840   3.472   3.836  16.014 -0.2419  0.3485 -0.1077
   6123SM   H8F 7841   3.558   3.768  16.036  0.4121  0.7428 -1.3682
   6123SM   H8G 7842   3.438   3.877  16.112 -1.4974  0.2615 -0.5000
   6123SM   C9F 7843   3.518   3.946  15.921 -0.5847 -0.4150  0.1871
   6123SM   H9F 7844   3.588   4.022  15.961 -0.0086 -0.7301 -0.2117
   6123SM   H9G 7845   3.428   4.008  15.900 -1.4445 -1.3564  0.9878
   6123SM  C10F 7846   3.568   3.893  15.785  0.0775  0.1192 -0.5856
   6123SM  H10F 7847   3.500   3.814  15.745  0.6095 -0.0503 -1.1808
   6123SM  H10G 7848   3.666   3.853  15.817 -0.8054  0.3364  2.7584
   6123SM  C11F 7849   3.576   4.003  15.682  0.4931 -0.4722  0.1595
   6123SM  H11F 7850   3.481   4.061  15.682  1.0044  0.4650 -1.9101
   6123SM  H11G 7851   3.582   3.959  15.580  1.2192  2.7374 -1.3013
   6123SM  C12F 7852   3.698   4.094  15.679  0.2891 -0.5438 -0.5012
   6123SM  H12F 7853   3.783   4.025  15.699 -1.1887 -2.5312 -0.8090
   6123SM  H12G 7854   3.692   4.172  15.758 -2.9534 -1.2962  0.1264
   6123SM  C13F 7855   3.717   4.154  15.542 -0.5248 -0.0533 -0.3456
   6123SM  H13F 7856   3.659   4.248  15.528  0.3004  0.4753 -0.3371
   6123SM  H13G 7857   3.690   4.080  15.464 -0.0926  0.1573 -0.6954
   6123SM  C14F 7858   3.864   4.191  15.516  0.1424  0.0012 -0.2299
   6123SM  H14F 7859   3.921   4.098  15.533 -0.9342 -0.4223  1.2891
   6123SM  H14G 7860   3.893   4.265  15.595 -1.9172 -0.4844  1.0433
   6123SM  C15F 7861   3.894   4.244  15.375 -0.6657 -0.3733  0.4874
   6123SM  H15F 7862   3.839   4.341  15.370  0.8182  0.4443 -1.4666
   6123SM  H15G 7863   3.851   4.178  15.297  0.9506  0.9698 -1.6427
   6123SM  C16F 7864   4.045   4.280  15.353 -0.3846  0.2176  0.2637
   6123SM  H16F 7865   4.105   4.275  15.446  0.5645 -2.6482 -0.4062
   6123SM  H16G 7866   4.057   4.380  15.306  1.7844 -1.7107 -3.8414
   6123SM  C17F 7867   4.109   4.175  15.255 -0.7263  0.3077  0.3029
   6123SM  H17F 7868   4.065   4.192  15.154  0.9596  0.3535 -0.4633
   6123SM  H17G 7869   4.088   4.070  15.285 -0.7773 -0.0012 -0.7682
   6123SM  C18F 7870   4.257   4.195  15.220 -0.5421 -0.3802 -0.0717
   6123SM  H18F 7871   4.272   4.303  15.196 -0.9791  0.5354  3.2465
   6123SM  H18G 7872   4.275   4.129  15.133 -1.5838  1.2121 -1.5633
   6123SM  C19F 7873   4.359   4.157  15.329 -0.1684 -0.6550 -0.3222
   6123SM  H19F 7874   4.350   4.231  15.411  2.6040 -0.4743 -0.0984
   6123SM  H19G 7875   4.465   4.165  15.298  0.3468 -0.5209  1.3659
   6123SM  C20F 7876   4.335   4.030  15.407  0.2266  0.4753  0.1641
   6123SM  H20F 7877   4.341   3.940  15.342  1.1332 -0.0484  0.9538
   6123SM  H20G 7878   4.237   4.028  15.459 -0.0040 -1.7607 -0.2493
   6123SM  C21F 7879   4.437   4.007  15.519 -0.4976 -0.1595 -0.4347
   6123SM  H21F 7880   4.418   4.086  15.595  0.4234 -0.2645 -0.0846
   6123SM  H21G 7881   4.543   4.019  15.487 -0.5143 -2.3915 -1.5186
   6123SM  C22F 7882   4.423   3.866  15.569 -0.4329  0.3881  0.3535
   6123SM  H22F 7883   4.455   3.796  15.489  5.2991  0.5839  2.0354
   6123SM  H22G 7884   4.320   3.845  15.606  0.2033 -0.7007  1.5668
   6123SM  C23F 7885   4.524   3.832  15.686 -1.1341 -0.1981  0.3792
   6123SM  H23F 7886   4.467   3.785  15.768 -2.4145 -2.9858 -1.9421
   6123SM  H23G 7887   4.589   3.920  15.708 -0.3563 -1.1645  2.1758
   6123SM  H23H 7888   4.596   3.755  15.651  0.0714  0.7804  0.6311
   6223SM     N 7889   3.666   2.862  17.113 -0.5607 -0.2705 -0.0836
   6223SM   C15 7890   3.615   2.979  17.030 -0.3098  0.0538 -0.6413
   6223SM  H15A 7891   3.569   2.951  16.936 -0.7568 -1.0751 -0.1088
   6223SM  H15B 7892   3.693   3.050  17.006  0.4484  0.7614  3.3121
   6223SM  H15C 7893   3.546   3.042  17.083 -0.0756  0.8638 -1.2758
   6223SM   C14 7894   3.794   2.827  17.045 -0.1791 -0.7216  0.3678
   6223SM  H14A 7895   3.842   2.736  17.080 -1.2697 -0.7634  1.8442
   6223SM  H14B 7896   3.867   2.902  17.071 -0.0688 -1.6517  2.9617
   6223SM  H14C 7897   3.774   2.807  16.940 -0.2309 -1.7008  0.5510
   6223SM   C13 7898   3.687   2.899  17.256 -0.4674  0.6685 -0.3222
   6223SM  H13A 7899   3.757   2.981  17.268  0.1693  0.0968 -0.0030
   6223SM  H13B 7900   3.724   2.816  17.315 -0.2236  1.0602  0.0920
   6223SM  H13C 7901   3.591   2.934  17.291 -1.7006 -0.6194 -2.2590
   6223SM   C12 7902   3.560   2.751  17.109  0.1004  0.4188  0.1262
   6223SM  H12A 7903   3.597   2.652  17.133 -1.0835 -0.6510 -2.1524
   6223SM  H12B 7904   3.520   2.743  17.009  1.9114 -1.5331 -0.5225
   6223SM   C11 7905   3.435   2.779  17.189 -0.2005  0.6947 -0.2411
   6223SM  H11A 7906   3.403   2.881  17.160 -0.3745  1.1444  1.4053
   6223SM  H11B 7907   3.443   2.778  17.300 -0.7474 -0.1591 -0.2010
   6223SM     P 7908   3.340   2.539  17.186 -0.5298  0.0526 -0.4770
   6223SM   O13 7909   3.449   2.517  17.280 -0.6884 -0.3077 -0.0653
   6223SM   O14 7910   3.207   2.494  17.231 -0.8296 -0.3019 -0.1070
   6223SM   O11 7911   3.382   2.462  17.055  0.2693  0.2498 -0.6320
   6223SM   O12 7912   3.333   2.691  17.141  0.0103  0.4210  0.1710
   6223SM   C1S 7913   3.330   2.500  16.930  0.2775  0.7449  0.1271
   6223SM   H1S 7914   3.378   2.595  16.897 -0.5028  0.9217 -0.5397
   6223SM   H1T 7915   3.220   2.511  16.940 -0.2627  0.4818 -3.7710
   6223SM    NF 7916   3.290   2.469  16.692 -0.0217  0.4137  0.0109
   6223SM   HNF 7917   3.202   2.432  16.664 -0.5147  1.6321 -0.1103
   6223SM   C2S 7918   3.353   2.399  16.804  0.0842 -0.2139 -0.3979
   6223SM   H2S 7919   3.462   2.386  16.785 -0.0177  1.0539 -2.1098
   6223SM   C3S 7920   3.298   2.255  16.837 -0.3139 -0.0861 -0.7540
   6223SM   H3S 7921   3.191   2.264  16.808 -0.6315 -0.6461  0.1855
   6223SM    O3 7922   3.300   2.199  16.968 -0.0321 -0.2495 -0.4509
   6223SM   HO3 7923   3.325   2.272  17.025 -0.7932 -1.8869  2.1560
   6223SM   C4S 7924   3.344   2.156  16.732  0.3340 -0.7658 -0.7496
   6223SM   H4S 7925   3.276   2.150  16.646 -0.6207  0.2953 -0.0945
   6223SM   C5S 7926   3.442   2.069  16.747 -0.1498 -1.3292  0.7667
   6223SM   H5S 7927   3.516   2.078  16.828  0.2752  1.2008  0.1926
   6223SM   C6S 7928   3.479   1.972  16.643  0.0420  0.1782 -0.6326
   6223SM   H6S 7929   3.387   1.947  16.586  1.4039  0.8786 -3.2611
   6223SM   H6T 7930   3.509   1.878  16.695 -2.2160  0.7220  1.9588
   6223SM   C7S 7931   3.583   2.021  16.542 -0.6567 -0.4176 -0.0398
   6223SM   H7S 7932   3.602   1.955  16.455 -2.2289  2.3853 -2.6998
   6223SM   H7T 7933   3.678   2.021  16.600 -0.2546 -2.0061 -0.6499
   6223SM   C8S 7934   3.565   2.163  16.491  0.6840 -0.1376 -0.5429
   6223SM   H8S 7935   3.570   2.243  16.569 -1.1640 -1.6107  1.2070
   6223SM   H8T 7936   3.459   2.162  16.459 -0.5902 -1.7361  3.1297
   6223SM   C9S 7937   3.657   2.194  16.370  0.1378 -0.1782  0.5084
   6223SM   H9S 7938   3.758   2.158  16.396  0.2334 -0.1373  0.2021
   6223SM   H9T 7939   3.647   2.303  16.353 -0.3401 -0.6449 -3.2600
   6223SM  C10S 7940   3.620   2.128  16.234 -0.1127  0.3701 -0.2549
   6223SM  H10S 7941   3.512   2.133  16.210 -0.0332 -1.9005 -1.4140
   6223SM  H10T 7942   3.668   2.028  16.241  0.6978  0.5438 -2.5658
   6223SM  C11S 7943   3.683   2.197  16.109 -0.2607  0.3613  0.3304
   6223SM  H11S 7944   3.792   2.183  16.096 -0.2733 -0.4679  1.0415
   6223SM  H11T 7945   3.662   2.306  16.116  0.3985  0.7217 -2.3049
   6223SM  C12S 7946   3.645   2.154  15.968  0.6355  0.3150 -0.0229
   6223SM  H12S 7947   3.551   2.208  15.943  1.7896  1.8650 -1.2313
   6223SM  H12T 7948   3.618   2.046  15.977  0.5147  0.3161 -0.3246
   6223SM  C13S 7949   3.753   2.166  15.857  0.4210 -0.5414 -0.1661
   6223SM  H13S 7950   3.838   2.101  15.885 -0.4397 -0.4489  3.0145
   6223SM  H13T 7951   3.795   2.269  15.859  2.2851 -1.2692  2.2846
   6223SM  C14S 7952   3.694   2.140  15.718 -0.1960 -0.6912  0.5416
   6223SM  H14S 7953   3.613   2.215  15.705 -0.1647 -0.3093  2.3317
   6223SM  H14T 7954   3.643   2.042  15.727 -0.5727 -0.3776  2.0726
   6223SM  C15S 7955   3.790   2.166  15.599  0.4012 -0.0257 -0.2295
   6223SM  H15S 7956   3.781   2.076  15.534 -0.4414  0.6713 -1.0991
   6223SM  H15T 7957   3.888   2.175  15.650  0.7555 -1.5855 -0.5536
   6223SM  C16S 7958   3.756   2.282  15.506 -1.0635 -0.3470 -0.4911
   6223SM  H16S 7959   3.658   2.269  15.457 -1.3729 -1.9266  0.4496
   6223SM  H16T 7960   3.840   2.273  15.434 -1.6853  0.5939 -1.3431
   6223SM  C17S 7961   3.746   2.415  15.579 -0.4355 -0.0175  0.4302
   6223SM  H17S 7962   3.840   2.426  15.637 -0.6288  0.4601  0.6568
   6223SM  H17T 7963   3.661   2.401  15.648 -0.7570  2.1559  0.5642
   6223SM  C18S 7964   3.722   2.536  15.484 -0.3669  0.6396 -0.6238
   6223SM  H18S 7965   3.817   2.563  15.433  1.7016 -0.5610  2.2905
   6223SM  H18T 7966   3.681   2.616  15.550 -0.5897  0.2320 -0.2639
   6223SM  H18U 7967   3.648   2.515  15.403  1.7542 -0.2314 -2.4389
   6223SM   C1F 7968   3.356   2.573  16.635  0.7280  0.1737 -0.0039
   6223SM    OF 7969   3.476   2.590  16.661 -0.4959 -0.1552 -0.3260
   6223SM   C2F 7970   3.271   2.660  16.543 -0.3883 -0.2448 -0.5189
   6223SM   H2F 7971   3.263   2.758  16.595  0.1487 -0.0762 -0.7521
   6223SM   H2G 7972   3.166   2.624  16.536 -0.9006 -0.1903  3.9686
   6223SM   C3F 7973   3.346   2.678  16.406  0.2449  0.7090  0.6178
   6223SM   H3F 7974   3.442   2.729  16.430  0.6756 -0.5686  1.7076
   6223SM   H3G 7975   3.286   2.741  16.338 -0.5131  0.1627  0.7694
   6223SM   C4F 7976   3.381   2.549  16.325  0.1320 -0.3505 -0.2150
   6223SM   H4F 7977   3.461   2.489  16.375 -0.3517 -2.4265 -1.8103
   6223SM   H4G 7978   3.420   2.573  16.224 -0.0114 -2.4784 -0.8103
   6223SM   C5F 7979   3.264   2.453  16.306 -0.5091 -0.4713  0.3512
   6223SM   H5F 7980   3.247   2.399  16.401  3.0488  0.1218  1.4693
   6223SM   H5G 7981   3.294   2.376  16.231 -1.3393 -0.3954 -0.0710
   6223SM   C6F 7982   3.136   2.522  16.240  0.2220  0.1020  0.2089
   6223SM   H6F 7983   3.166   2.562  16.142 -1.4626  0.9437 -0.0023
   6223SM   H6G 7984   3.109   2.615  16.293 -0.4377  0.7139 -1.1526
   6223SM   C7F 7985   3.013   2.430  16.235 -0.7401 -0.5070 -0.0234
   6223SM   H7F 7986   2.978   2.399  16.336  0.8627 -2.0925  0.0970
   6223SM   H7G 7987   3.041   2.337  16.181 -2.3947 -0.4940 -0.9807
   6223SM   C8F 7988   2.911   2.502  16.161  0.1671 -0.9005  0.3707
   6223SM   H8F 7989   2.898   2.607  16.195  0.1995 -0.4913 -0.8308
   6223SM   H8G 7990   2.808   2.463  16.176 -0.6724  0.6394 -1.1143
   6223SM   C9F 7991   2.936   2.501  16.012 -0.1646  0.0090  0.9021
   6223SM   H9F 7992   2.902   2.410  15.959 -1.6148  0.0227  1.7628
   6223SM   H9G 7993   3.045   2.509  15.991 -0.6152  1.1933 -1.2272
   6223SM  C10F 7994   2.871   2.612  15.933  0.1156  0.1023  0.1846
   6223SM  H10F 7995   2.910   2.709  15.971 -0.9511  0.4452  0.4441
   6223SM  H10G 7996   2.761   2.598  15.939 -0.2354  2.5675  0.7393
   6223SM  C11F 7997   2.908   2.602  15.784 -0.2442  0.0931  0.2561
   6223SM  H11F 7998   2.849   2.520  15.739 -3.9150  1.7109  1.6836
   6223SM  H11G 7999   3.018   2.590  15.769  1.1121  3.1637  5.2564
   6223SM  C12F 8000   2.877   2.737  15.713 -0.6371 -0.5334 -0.0534
   6223SM  H12F 8001   2.906   2.823  15.777  1.3732  1.4168 -3.2950
   6223SM  H12G 8002   2.766   2.730  15.717 -0.8081  0.9152 -1.2680
   6223SM  C13F 8003   2.926   2.737  15.571  0.4596 -0.4254 -0.0727
   6223SM  H13F 8004   2.896   2.828  15.513  1.8093 -0.2377 -0.5289
   6223SM  H13G 8005   2.879   2.653  15.516  0.5012 -1.1348  0.9555
   6223SM  C14F 8006   3.075   2.729  15.556  0.1517  0.3467  0.0868
   6223SM  H14F 8007   3.115   2.633  15.595  1.7593  1.2225  0.6921
   6223SM  H14G 8008   3.129   2.812  15.606 -0.8266 -0.1382  2.0343
   6223SM  C15F 8009   3.113   2.731  15.405 -0.6838  0.2057 -0.3265
   6223SM  H15F 8010   3.097   2.836  15.374 -0.7742  0.4179  0.4056
   6223SM  H15G 8011   3.050   2.680  15.329 -0.0177  1.1214 -1.5212
   6223SM  C16F 8012   3.262   2.693  15.385 -0.2653  0.5767 -0.4076
   6223SM  H16F 8013   3.276   2.584  15.403  0.9096  1.0088  1.6573
   6223SM  H16G 8014   3.334   2.751  15.447  0.2492 -2.4476  2.0817
   6223SM  C17F 8015   3.292   2.721  15.239 -0.7562  0.0617  0.0459
   6223SM  H17F 8016   3.274   2.827  15.211  0.8615  0.0224 -1.3495
   6223SM  H17G 8017   3.226   2.672  15.164 -0.3575 -2.0130  0.9787
   6223SM  C18F 8018   3.430   2.673  15.196 -0.1415 -0.0248 -0.1006
   6223SM  H18F 8019   3.445   2.700  15.089 -0.7093  3.4887  0.5618
   6223SM  H18G 8020   3.442   2.565  15.219  0.6587  0.0879  0.0117
   6223SM  C19F 8021   3.538   2.754  15.266 -0.4063  0.5281  0.0435
   6223SM  H19F 8022   3.548   2.725  15.373 -0.4350 -0.4423 -0.2118
   6223SM  H19G 8023   3.514   2.862  15.278  2.1222  1.2529 -0.8788
   6223SM  C20F 8024   3.681   2.759  15.216 -0.1066 -0.3183 -0.0612
   6223SM  H20F 8025   3.725   2.659  15.198 -1.1808 -0.7151 -0.5594
   6223SM  H20G 8026   3.745   2.818  15.286  1.4630  0.1605 -1.8159
   6223SM  C21F 8027   3.679   2.842  15.086 -1.0588  0.4535  0.7755
   6223SM  H21F 8028   3.640   2.944  15.107  0.1194  0.6576  2.0932
   6223SM  H21G 8029   3.610   2.783  15.022 -0.5675  0.1986  0.4778
   6223SM  C22F 8030   3.810   2.855  15.003  0.1364  0.1445 -0.2585
   6223SM  H22F 8031   3.857   2.755  14.997  2.2950  1.0501  0.6779
   6223SM  H22G 8032   3.870   2.924  15.067 -1.2741 -1.2857  2.7626
   6223SM  C23F 8033   3.803   2.918  14.866 -0.3082 -0.5748 -0.4179
   6223SM  H23F 8034   3.731   3.003  14.861  1.1585  0.6701 -1.0892
   6223SM  H23G 8035   3.782   2.844  14.786  0.1567 -1.7970  0.5642
   6223SM  H23H 8036   3.901   2.958  14.833  0.1313  0.5738  2.0727
   6323SM     N 8037   5.382   4.184  17.145  0.5041 -0.2971 -0.1986
   6323SM   C15 8038   5.434   4.052  17.173 -1.1410  0.9737  0.3077
   6323SM  H15A 8039   5.429   3.992  17.084 -0.0653  1.9410 -0.4431
   6323SM  H15B 8040   5.372   3.996  17.241  0.2540  0.5242  1.2722
   6323SM  H15C 8041   5.539   4.048  17.200  0.0503  1.0744 -3.6008
   6323SM   C14 8042   5.347   4.254  17.277 -0.8499 -0.1668  0.0555
   6323SM  H14A 8043   5.263   4.207  17.327 -0.4815 -1.0298 -0.1067
   6323SM  H14B 8044   5.307   4.352  17.258 -0.9612 -0.4231 -1.1129
   6323SM  H14C 8045   5.430   4.259  17.346 -0.7655  0.3031 -0.0799
   6323SM   C13 8046   5.484   4.266  17.083 -0.5777 -0.6171 -0.0907
   6323SM  H13A 8047   5.436   4.359  17.055 -1.1088 -0.9138 -0.1889
   6323SM  H13B 8048   5.525   4.229  16.990  2.5365  1.3477  0.3592
   6323SM  H13C 8049   5.563   4.303  17.147 -1.2045  1.8348 -0.6355
   6323SM   C12 8050   5.259   4.167  17.062  0.3859  0.0870  0.2381
   6323SM  H12A 8051   5.218   4.266  17.044 -0.9282 -0.6126 -0.7659
   6323SM  H12B 8052   5.174   4.124  17.113  0.8347 -0.9252  0.1462
   6323SM   C11 8053   5.264   4.091  16.930  0.1195  0.5707 -0.3509
   6323SM  H11A 8054   5.360   4.117  16.880  0.7220  1.5636  1.2218
   6323SM  H11B 8055   5.172   4.116  16.874 -1.4516  0.1743  1.9159
   6323SM     P 8056   5.151   3.859  16.985 -0.5024 -0.2200  0.2649
   6323SM   O13 8057   5.201   3.719  17.005  0.0079 -0.2237 -0.1133
   6323SM   O14 8058   5.081   3.909  17.105 -0.0268 -0.5433  0.0967
   6323SM   O11 8059   5.063   3.867  16.851  0.0680 -0.0535 -0.3028
   6323SM   O12 8060   5.277   3.951  16.965 -0.2300  0.6074 -0.1696
   6323SM   C1S 8061   5.132   3.822  16.736 -0.2993  0.6627 -0.1385
   6323SM   H1S 8062   5.132   3.711  16.734 -1.0681  0.6623 -0.9868
   6323SM   H1T 8063   5.239   3.850  16.724 -0.9360  2.5596 -2.0361
   6323SM    NF 8064   5.135   3.828  16.487  0.5947 -0.1475  1.1916
   6323SM   HNF 8065   5.202   3.892  16.450  0.7483  1.4843  4.0015
   6323SM   C2S 8066   5.062   3.867  16.607 -0.5407 -0.2503 -0.0574
   6323SM   H2S 8067   4.973   3.801  16.608  1.3814 -3.1468 -2.4779
   6323SM   C3S 8068   5.026   4.019  16.607  0.4499 -0.1007 -0.3073
   6323SM   H3S 8069   5.122   4.074  16.610  0.8085 -0.6612 -1.1870
   6323SM    O3 8070   4.931   4.047  16.712 -0.5831  0.1394 -0.0616
   6323SM   HO3 8071   4.940   3.973  16.771  0.0592  1.4837  1.5980
   6323SM   C4S 8072   4.961   4.063  16.478 -0.3121 -0.2125  0.6243
   6323SM   H4S 8073   4.859   4.023  16.465 -0.6629  1.2503 -1.8057
   6323SM   C5S 8074   5.004   4.148  16.380  0.4225 -1.0338  0.6748
   6323SM   H5S 8075   5.099   4.201  16.395 -0.1577  0.4195 -0.5589
   6323SM   C6S 8076   4.930   4.189  16.259 -0.3385  0.2448  0.1813
   6323SM   H6S 8077   5.006   4.212  16.182 -0.0102  1.0004  0.7269
   6323SM   H6T 8078   4.869   4.278  16.283  0.5576  0.7022  0.8164
   6323SM   C7S 8079   4.856   4.072  16.190 -0.3233  0.5856  0.1103
   6323SM   H7S 8080   4.819   4.109  16.092  0.7691  0.0944 -0.5098
   6323SM   H7T 8081   4.764   4.036  16.240 -0.3552 -0.6528 -0.8028
   6323SM   C8S 8082   4.951   3.951  16.148  0.1591  0.1416 -0.4103
   6323SM   H8S 8083   4.958   3.891  16.242  1.3793 -1.2563 -1.3641
   6323SM   H8T 8084   5.052   3.989  16.123  0.0051  0.7875 -0.0611
   6323SM   C9S 8085   4.882   3.860  16.040 -0.4776  0.0599 -0.5543
   6323SM   H9S 8086   4.921   3.908  15.947 -1.0236  1.2466 -0.1824
   6323SM   H9T 8087   4.772   3.858  16.045 -0.4306  0.3966  1.6930
   6323SM  C10S 8088   4.939   3.714  16.052  0.2514  0.0201  0.4779
   6323SM  H10S 8089   4.923   3.666  16.151  1.4689 -1.4044  0.0305
   6323SM  H10T 8090   5.043   3.725  16.015  0.1957  1.0388  0.6145
   6323SM  C11S 8091   4.884   3.620  15.940 -0.0592  0.3284 -0.3554
   6323SM  H11S 8092   4.773   3.623  15.938 -0.1005 -0.0526  0.7173
   6323SM  H11T 8093   4.925   3.521  15.969 -1.0015 -0.1318 -0.5488
   6323SM  C12S 8094   4.943   3.636  15.798  0.5904 -0.0432 -0.5490
   6323SM  H12S 8095   5.047   3.598  15.801  1.4417  1.9972  3.5633
   6323SM  H12T 8096   4.949   3.743  15.768 -3.3302  0.4775  0.0062
   6323SM  C13S 8097   4.864   3.567  15.688 -0.0853  0.2488  0.9681
   6323SM  H13S 8098   4.766   3.620  15.689 -0.3353 -0.0258 -1.5371
   6323SM  H13T 8099   4.831   3.465  15.714 -0.4228  0.7706  2.7123
   6323SM  C14S 8100   4.932   3.584  15.547  0.3776  0.1626 -0.0920
   6323SM  H14S 8101   5.014   3.510  15.548 -0.0490 -0.3456 -1.2603
   6323SM  H14T 8102   4.975   3.685  15.530  0.7693 -0.0812 -0.5560
   6323SM  C15S 8103   4.829   3.548  15.429 -0.1298  0.1396 -1.1424
   6323SM  H15S 8104   4.764   3.461  15.452 -1.2792  1.0157 -0.9553
   6323SM  H15T 8105   4.883   3.533  15.333  1.3709  0.8695 -0.4560
   6323SM  C16S 8106   4.725   3.657  15.405 -0.0322  0.0965  0.4571
   6323SM  H16S 8107   4.658   3.676  15.492 -0.7972  0.7735 -0.2574
   6323SM  H16T 8108   4.664   3.625  15.318 -2.1587 -0.0647  1.9244
   6323SM  C17S 8109   4.792   3.791  15.369 -0.7216  0.5234  0.0761
   6323SM  H17S 8110   4.887   3.769  15.316  0.1181  1.4623  1.1624
   6323SM  H17T 8111   4.820   3.835  15.466 -0.3813  0.6564 -0.0794
   6323SM  C18S 8112   4.715   3.889  15.277  0.9544 -0.0580  0.9864
   6323SM  H18S 8113   4.766   3.987  15.269  1.1398 -0.0786  1.7880
   6323SM  H18T 8114   4.609   3.894  15.309  0.6178  0.5864 -0.1791
   6323SM  H18U 8115   4.704   3.856  15.171 -2.6045  1.2674  0.7965
   6323SM   C1F 8116   5.151   3.694  16.455 -0.7551 -0.1151 -0.2986
   6323SM    OF 8117   5.101   3.607  16.530  0.1286  0.1013  0.1032
   6323SM   C2F 8118   5.232   3.657  16.336  0.0680 -0.8069 -0.4115
   6323SM   H2F 8119   5.317   3.728  16.330  0.0342 -0.8404 -1.4192
   6323SM   H2G 8120   5.166   3.660  16.247  1.0491 -1.7959 -1.1859
   6323SM   C3F 8121   5.317   3.521  16.347 -0.1323  0.5253  0.1135
   6323SM   H3F 8122   5.378   3.518  16.440 -0.0117  0.6656  0.0415
   6323SM   H3G 8123   5.378   3.506  16.256 -2.1674 -0.8940 -1.0868
   6323SM   C4F 8124   5.227   3.390  16.344 -0.8152  0.1886 -0.0057
   6323SM   H4F 8125   5.175   3.384  16.442  0.0801 -1.3737  0.3944
   6323SM   H4G 8126   5.292   3.301  16.342  0.3725  1.0428 -0.8723
   6323SM   C5F 8127   5.143   3.361  16.223 -0.0062 -0.3976  0.4842
   6323SM   H5F 8128   5.193   3.404  16.134  0.2099 -2.1082 -0.2754
   6323SM   H5G 8129   5.052   3.422  16.240  0.1652 -0.3383  1.2215
   6323SM   C6F 8130   5.097   3.213  16.205  0.2277 -0.5668 -0.5956
   6323SM   H6F 8131   5.048   3.189  16.302 -1.1822 -0.8957 -1.3693
   6323SM   H6G 8132   5.192   3.156  16.194  1.2669  0.7430  1.1589
   6323SM   C7F 8133   5.006   3.185  16.080  0.3423  0.0020  0.4446
   6323SM   H7F 8134   5.024   3.077  16.057  2.2874 -0.0011  1.7695
   6323SM   H7G 8135   5.041   3.240  15.990  1.2776 -1.3259 -0.0518
   6323SM   C8F 8136   4.860   3.219  16.115 -0.0389  0.5866 -1.0275
   6323SM   H8F 8137   4.835   3.326  16.127 -1.0476  0.1449  1.7330
   6323SM   H8G 8138   4.841   3.177  16.216 -0.8834  1.4246 -0.8220
   6323SM   C9F 8139   4.761   3.157  16.017 -0.8696  0.2457  0.1974
   6323SM   H9F 8140   4.654   3.169  16.045 -1.3127  0.6055 -1.5390
   6323SM   H9G 8141   4.782   3.048  16.020  1.9030  0.7284  1.6417
   6323SM  C10F 8142   4.778   3.212  15.874 -1.0598 -0.5239  0.1120
   6323SM  H10F 8143   4.884   3.196  15.847 -0.5385 -0.1894  1.8262
   6323SM  H10G 8144   4.763   3.322  15.866 -1.0525 -0.4528  1.0045
   6323SM  C11F 8145   4.687   3.133  15.773 -0.7236  0.5266 -0.2496
   6323SM  H11F 8146   4.577   3.127  15.789 -0.8305 -2.7874 -1.5079
   6323SM  H11G 8147   4.720   3.027  15.781 -0.6219  0.6907  2.4089
   6323SM  C12F 8148   4.704   3.178  15.625 -0.1177  0.3224  0.1500
   6323SM  H12F 8149   4.807   3.153  15.591 -0.3655  0.3011 -0.6173
   6323SM  H12G 8150   4.703   3.289  15.626  1.5323  0.4351 -2.1370
   6323SM  C13F 8151   4.598   3.123  15.522  0.3885 -0.8296  0.3444
   6323SM  H13F 8152   4.492   3.124  15.556  0.2415  0.8456 -0.0891
   6323SM  H13G 8153   4.609   3.013  15.509  2.1437 -0.7316  0.8266
   6323SM  C14F 8154   4.603   3.194  15.388  0.2402  0.9023  0.6865
   6323SM  H14F 8155   4.693   3.160  15.333  0.6604  1.3446  1.0898
   6323SM  H14G 8156   4.591   3.303  15.406 -1.4569  0.8543  0.0626
   6323SM  C15F 8157   4.484   3.155  15.304 -0.1251 -0.0862 -0.0099
   6323SM  H15F 8158   4.390   3.170  15.361 -0.1903  0.6777 -0.3090
   6323SM  H15G 8159   4.484   3.049  15.270 -0.6937 -0.7427  1.8746
   6323SM  C16F 8160   4.476   3.245  15.180 -0.5311  0.2373  0.7248
   6323SM  H16F 8161   4.579   3.247  15.139 -0.0657 -0.7424  1.7983
   6323SM  H16G 8162   4.460   3.350  15.210 -0.6729  0.0233  1.4361
   6323SM  C17F 8163   4.368   3.197  15.086 -0.1377  0.5717  0.9218
   6323SM  H17F 8164   4.267   3.221  15.125 -0.1480  0.5885  0.8848
   6323SM  H17G 8165   4.379   3.088  15.065 -2.1128  0.3801  0.6811
   6323SM  C18F 8166   4.383   3.261  14.944  0.1843  0.1442  0.4547
   6323SM  H18F 8167   4.487   3.256  14.905  0.5942 -0.5296  1.5628
   6323SM  H18G 8168   4.360   3.369  14.937 -0.1367 -0.0307 -1.9420
   6323SM  C19F 8169   4.289   3.189  14.844 -0.5938 -0.7639  0.0014
   6323SM  H19F 8170   4.299   3.079  14.852  0.5959 -0.6502  0.4242
   6323SM  H19G 8171   4.325   3.216  14.742  0.7584 -1.2455  0.3254
   6323SM  C20F 8172   4.140   3.244  14.843  1.2158 -1.0067  0.1120
   6323SM  H20F 8173   4.136   3.353  14.820 -0.9877 -1.3365 -1.4096
   6323SM  H20G 8174   4.100   3.229  14.946 -1.4827  0.3094 -0.6665
   6323SM  C21F 8175   4.048   3.169  14.753  0.2207  0.3598  0.2721
   6323SM  H21F 8176   3.943   3.203  14.767  0.3811  0.8853  0.1866
   6323SM  H21G 8177   4.059   3.060  14.770 -2.3314 -0.2854 -1.5295
   6323SM  C22F 8178   4.072   3.184  14.600 -0.3112 -0.2075 -0.1295
   6323SM  H22F 8179   4.169   3.130  14.599 -1.5610 -2.6909  1.3984
   6323SM  H22G 8180   4.079   3.292  14.573 -0.2007 -0.4247 -0.9967
   6323SM  C23F 8181   3.970   3.102  14.519 -0.6924  0.1304  0.4575
   6323SM  H23F 8182   3.871   3.152  14.525 -0.1469  1.3140 -0.0482
   6323SM  H23G 8183   3.960   2.998  14.557  2.3171  0.9739  4.1148
   6323SM  H23H 8184   3.981   3.107  14.409  1.0295 -2.4112  0.4320
   6423SM     N 8185   7.150   2.920  16.595 -0.4326 -0.2364  0.0511
   6423SM   C15 8186   7.028   2.865  16.528  0.4482 -0.8217 -0.1419
   6423SM  H15A 8187   6.948   2.854  16.600  2.7763 -1.4319  2.5099
   6423SM  H15B 8188   7.043   2.766  16.488  0.8804 -0.5250 -0.7110
   6423SM  H15C 8189   6.999   2.937  16.454 -1.1084 -0.0019  1.1931
   6423SM   C14 8190   7.265   2.933  16.493  0.6336  0.2583  0.4960
   6423SM  H14A 8191   7.361   2.953  16.538  0.6909  0.0579  0.4620
   6423SM  H14B 8192   7.235   3.005  16.417  1.0276 -0.4979 -0.3925
   6423SM  H14C 8193   7.284   2.839  16.444  2.2646  1.6437 -1.6980
   6423SM   C13 8194   7.122   3.063  16.644  0.9998 -0.7160 -0.3467
   6423SM  H13A 8195   7.046   3.062  16.720 -0.0596  1.6260 -1.2754
   6423SM  H13B 8196   7.089   3.125  16.562 -0.4245 -0.5971  0.3067
   6423SM  H13C 8197   7.211   3.096  16.696  0.3115 -0.9371  0.9876
   6423SM   C12 8198   7.196   2.837  16.714  0.7826 -0.0593 -0.5724
   6423SM  H12A 8199   7.300   2.853  16.739  0.4750 -0.7199  1.2454
   6423SM  H12B 8200   7.182   2.734  16.684 -2.1358 -0.5889  2.0781
   6423SM   C11 8201   7.125   2.833  16.850  0.1661  0.7561  0.5567
   6423SM  H11A 8202   7.093   2.934  16.883  0.0498  1.1635 -0.7489
   6423SM  H11B 8203   7.201   2.804  16.926  0.6518 -0.5992 -0.3971
   6423SM     P 8204   7.025   2.582  16.861  0.6080  0.4301  0.0375
   6423SM   O13 8205   7.119   2.539  16.753  0.7017 -0.1488 -0.0525
   6423SM   O14 8206   7.052   2.523  16.996 -0.1288 -0.2947  0.4386
   6423SM   O11 8207   6.881   2.543  16.820  0.1932 -0.5681 -0.4423
   6423SM   O12 8208   7.013   2.746  16.858  0.3383  0.7255 -0.0774
   6423SM   C1S 8209   6.810   2.601  16.713 -0.3265  0.3681  0.2022
   6423SM   H1S 8210   6.866   2.680  16.658  0.6716 -1.1819 -1.1010
   6423SM   H1T 8211   6.719   2.640  16.764 -0.5025 -0.0195  0.1839
   6423SM    NF 8212   6.723   2.563  16.490 -0.1509  0.4282 -0.1288
   6423SM   HNF 8213   6.628   2.583  16.470 -0.2627 -2.3814 -3.3498
   6423SM   C2S 8214   6.762   2.489  16.611  0.5062  0.0709 -0.3046
   6423SM   H2S 8215   6.838   2.411  16.591 -2.5547 -3.0230 -0.8149
   6423SM   C3S 8216   6.646   2.412  16.688  0.8292  0.1375 -0.2173
   6423SM   H3S 8217   6.565   2.480  16.722  1.2997 -0.0778  1.4213
   6423SM    O3 8218   6.693   2.360  16.808  0.3070  0.4191 -0.7842
   6423SM   HO3 8219   6.772   2.410  16.830  1.2018 -1.0297 -0.6070
   6423SM   C4S 8220   6.582   2.313  16.595  0.0174 -0.5478 -0.6655
   6423SM   H4S 8221   6.499   2.348  16.532 -0.3139  0.9236  0.5286
   6423SM   C5S 8222   6.626   2.191  16.579 -0.1582  0.0067 -0.2759
   6423SM   H5S 8223   6.719   2.165  16.632  1.2824  2.9085 -1.1635
   6423SM   C6S 8224   6.568   2.076  16.499 -0.7455  0.4955  0.0948
   6423SM   H6S 8225   6.569   1.981  16.557 -1.9169 -0.8053 -1.8915
   6423SM   H6T 8226   6.635   2.057  16.413  1.0869  0.1945  1.5362
   6423SM   C7S 8227   6.425   2.089  16.460 -1.0099  0.1372  0.5074
   6423SM   H7S 8228   6.419   2.179  16.396  3.7255 -0.5654 -1.2846
   6423SM   H7T 8229   6.365   2.104  16.553  1.1789 -2.5223  2.5120
   6423SM   C8S 8230   6.357   1.973  16.386 -0.5625 -0.1118  0.6806
   6423SM   H8S 8231   6.251   1.996  16.363 -0.8221  0.1704  2.0540
   6423SM   H8T 8232   6.348   1.877  16.441  0.7538 -0.2015  0.7661
   6423SM   C9S 8233   6.441   1.916  16.268  0.2533 -0.2513 -0.8425
   6423SM   H9S 8234   6.385   1.827  16.233  0.8038 -0.6593 -0.6962
   6423SM   H9T 8235   6.535   1.883  16.317  1.0900  1.8159 -0.9589
   6423SM  C10S 8236   6.470   2.016  16.157 -0.2963  0.6000  0.9250
   6423SM  H10S 8237   6.512   2.109  16.199 -1.1062  1.8280 -0.8530
   6423SM  H10T 8238   6.369   2.041  16.118  0.8760 -0.0403 -2.9666
   6423SM  C11S 8239   6.559   1.961  16.041 -0.7993  0.2516 -0.3419
   6423SM  H11S 8240   6.666   1.946  16.065 -0.5284 -0.3217 -1.8151
   6423SM  H11T 8241   6.565   2.046  15.969  0.9078 -0.9999 -1.7818
   6423SM  C12S 8242   6.509   1.837  15.968 -0.3647 -0.0134 -0.0756
   6423SM  H12S 8243   6.399   1.830  15.970 -0.2888 -1.4216 -0.1700
   6423SM  H12T 8244   6.536   1.741  16.017  0.7675  0.1236 -0.3923
   6423SM  C13S 8245   6.553   1.843  15.828  0.1369  0.7453  0.0303
   6423SM  H13S 8246   6.534   1.744  15.779  2.2834  0.8639 -1.1232
   6423SM  H13T 8247   6.662   1.859  15.827  0.1861  0.4537 -1.6940
   6423SM  C14S 8248   6.477   1.934  15.739 -0.6703  0.3455  0.4818
   6423SM  H14S 8249   6.480   2.035  15.785  1.2988  0.1158  0.9486
   6423SM  H14T 8250   6.372   1.904  15.723 -0.5496 -0.3071  0.8576
   6423SM  C15S 8251   6.552   1.939  15.601  0.1956 -0.1605 -0.5060
   6423SM  H15S 8252   6.559   1.836  15.560  1.5380 -0.6180  0.7799
   6423SM  H15T 8253   6.660   1.958  15.620  0.4555 -0.0154 -1.9840
   6423SM  C16S 8254   6.488   2.044  15.505  0.6687 -0.0425  0.2840
   6423SM  H16S 8255   6.557   2.043  15.419  0.9228 -1.1448  0.4810
   6423SM  H16T 8256   6.478   2.146  15.547 -2.8217 -0.4064  0.6647
   6423SM  C17S 8257   6.346   2.001  15.451 -0.0930  0.1832 -0.1991
   6423SM  H17S 8258   6.277   1.998  15.539  0.0561 -1.5251 -0.1024
   6423SM  H17T 8259   6.346   1.895  15.417 -0.5501 -0.3436  1.3409
   6423SM  C18S 8260   6.291   2.100  15.345  0.2588  0.1398 -0.7795
   6423SM  H18S 8261   6.356   2.090  15.256  0.5027 -3.3698 -0.3424
   6423SM  H18T 8262   6.293   2.207  15.377 -0.9342  0.1111 -0.5772
   6423SM  H18U 8263   6.189   2.065  15.320  0.0424 -0.0175  0.2566
   6423SM   C1F 8264   6.807   2.586  16.390  1.1875 -0.2856  0.2221
   6423SM    OF 8265   6.921   2.557  16.410 -0.2061  0.0081  0.0352
   6423SM   C2F 8266   6.764   2.660  16.268 -0.6546  0.2755 -0.1583
   6423SM   H2F 8267   6.809   2.761  16.275  1.8018 -0.7056 -0.7440
   6423SM   H2G 8268   6.654   2.671  16.257 -0.3972  1.6605 -1.6276
   6423SM   C3F 8269   6.819   2.585  16.140  0.4168 -0.2851  0.2779
   6423SM   H3F 8270   6.780   2.481  16.139  1.4430 -0.6897  0.6079
   6423SM   H3G 8271   6.929   2.574  16.152  0.5466  0.8195  0.2258
   6423SM   C4F 8272   6.797   2.665  16.012  0.2246 -0.3361  0.0981
   6423SM   H4F 8273   6.828   2.768  16.037 -0.2281  0.0623 -0.9418
   6423SM   H4G 8274   6.687   2.672  15.999  0.0975  0.5049  1.4712
   6423SM   C5F 8275   6.872   2.601  15.892  0.5713 -0.6978  0.2849
   6423SM   H5F 8276   6.834   2.498  15.871  0.5309 -0.7615  0.6595
   6423SM   H5G 8277   6.977   2.576  15.917 -0.1409 -1.6393  2.5926
   6423SM   C6F 8278   6.854   2.677  15.761 -0.1823 -0.5754 -0.7652
   6423SM   H6F 8279   6.748   2.702  15.739  0.4243  1.0203 -2.0268
   6423SM   H6G 8280   6.896   2.613  15.681 -0.7380 -0.2291 -1.3429
   6423SM   C7F 8281   6.931   2.813  15.768 -0.1090 -0.5889 -0.0889
   6423SM   H7F 8282   7.040   2.794  15.780  0.3811  1.7828 -0.3588
   6423SM   H7G 8283   6.903   2.882  15.850  0.9851  0.5241 -0.6302
   6423SM   C8F 8284   6.946   2.886  15.636 -0.8818  0.2153 -0.0109
   6423SM   H8F 8285   6.847   2.904  15.590 -0.9183 -0.9352 -0.4372
   6423SM   H8G 8286   6.992   2.827  15.553 -1.3251  0.4170 -0.4019
   6423SM   C9F 8287   7.030   3.022  15.658  0.5010  0.3375 -0.6938
   6423SM   H9F 8288   7.132   2.990  15.690  0.2477  1.0178  0.9163
   6423SM   H9G 8289   6.970   3.076  15.734 -0.9920 -0.0535 -1.5526
   6423SM  C10F 8290   7.038   3.105  15.527 -0.1648  0.3202 -0.5643
   6423SM  H10F 8291   7.078   3.035  15.451 -0.9213  0.3345 -0.9909
   6423SM  H10G 8292   7.110   3.189  15.539  0.9955 -0.6598 -0.5451
   6423SM  C11F 8293   6.906   3.167  15.479 -1.1351  0.5812  0.1958
   6423SM  H11F 8294   6.913   3.278  15.482  1.4068  0.5300 -1.1641
   6423SM  H11G 8295   6.824   3.145  15.550 -0.5518  1.8294  1.2977
   6423SM  C12F 8296   6.853   3.114  15.346  1.0103 -0.0115 -0.9622
   6423SM  H12F 8297   6.882   3.007  15.342  1.4028 -0.0178  1.2216
   6423SM  H12G 8298   6.907   3.159  15.259 -1.0475  0.2379 -2.1698
   6423SM  C13F 8299   6.705   3.141  15.315 -0.0319  0.5840  0.6108
   6423SM  H13F 8300   6.640   3.125  15.404 -0.2192  1.1208  0.5742
   6423SM  H13G 8301   6.672   3.085  15.224  2.2200  0.7035 -0.3382
   6423SM  C14F 8302   6.692   3.292  15.280  0.0346  0.0067  0.8816
   6423SM  H14F 8303   6.758   3.314  15.194  0.7152 -3.0250  0.5005
   6423SM  H14G 8304   6.711   3.362  15.364 -0.4956  2.7777 -1.1647
   6423SM  C15F 8305   6.543   3.322  15.238  0.0592  0.8647  0.6735
   6423SM  H15F 8306   6.475   3.299  15.323  0.3016  1.2447  0.9776
   6423SM  H15G 8307   6.529   3.250  15.154 -0.9785  0.2610  1.3376
   6423SM  C16F 8308   6.528   3.473  15.192 -0.2824 -0.3346 -0.4776
   6423SM  H16F 8309   6.588   3.533  15.264  1.0879 -1.3864 -0.7071
   6423SM  H16G 8310   6.423   3.507  15.205 -0.0257  0.1906  0.2655
   6423SM  C17F 8311   6.567   3.489  15.050 -0.2556 -0.2524 -0.0335
   6423SM  H17F 8312   6.494   3.422  14.999  0.0493 -0.7408  0.1609
   6423SM  H17G 8313   6.669   3.447  15.041 -0.3745 -0.5917  0.1991
   6423SM  C18F 8314   6.561   3.635  14.999  0.2257 -0.2857 -0.1373
   6423SM  H18F 8315   6.597   3.638  14.894 -1.5992 -1.9271 -0.8703
   6423SM  H18G 8316   6.633   3.697  15.057  1.2699 -0.8203 -0.8347
   6423SM  C19F 8317   6.413   3.695  14.998  0.7333 -0.1795  0.3400
   6423SM  H19F 8318   6.339   3.618  14.968  1.1442 -0.2185 -0.6273
   6423SM  H19G 8319   6.412   3.773  14.919  1.2302 -1.2858 -0.7913
   6423SM  C20F 8320   6.357   3.768  15.128 -0.3662 -0.3838  0.2656
   6423SM  H20F 8321   6.446   3.814  15.177  0.1782 -0.1180 -0.9332
   6423SM  H20G 8322   6.311   3.703  15.207 -0.7080 -0.5053 -0.0318
   6423SM  C21F 8323   6.276   3.896  15.088 -0.0237  0.1884 -0.9308
   6423SM  H21F 8324   6.169   3.874  15.065  0.0412 -1.0523 -0.1554
   6423SM  H21G 8325   6.311   3.931  14.988  3.3987 -1.2784 -0.3815
   6423SM  C22F 8326   6.292   4.010  15.186  0.5466 -0.4356 -0.0840
   6423SM  H22F 8327   6.229   4.097  15.157  0.5726 -0.5397 -0.4587
   6423SM  H22G 8328   6.391   4.058  15.173  0.1327  0.2706 -0.7384
   6423SM  C23F 8329   6.272   3.981  15.334 -0.1964  0.9176  0.1361
   6423SM  H23F 8330   6.322   3.888  15.370  1.7291  1.7988 -0.1335
   6423SM  H23G 8331   6.163   3.982  15.356 -0.3609  1.4879 -0.6582
   6423SM  H23H 8332   6.319   4.064  15.391  0.0068  0.2556  0.9658
   6523SM     N 8333   5.849   3.808  17.103  0.0288  0.6107 -0.1210
   6523SM   C15 8334   5.719   3.779  17.169  0.4375  0.0039 -0.2207
   6523SM  H15A 8335   5.677   3.867  17.216 -1.8191 -2.1896  2.1465
   6523SM  H15B 8336   5.740   3.712  17.251  0.4081  1.2114  0.8017
   6523SM  H15C 8337   5.653   3.729  17.100 -0.0162  0.8949 -0.4471
   6523SM   C14 8338   5.844   3.949  17.057  0.2147 -0.3517 -0.4643
   6523SM  H14A 8339   5.837   4.004  17.150 -0.2761 -1.4101  0.1440
   6523SM  H14B 8340   5.759   3.971  16.994  0.9718  0.7274 -1.1413
   6523SM  H14C 8341   5.938   3.971  17.008  1.5262 -1.3189  1.4680
   6523SM   C13 8342   5.959   3.797  17.203 -0.4598  0.2128 -0.3564
   6523SM  H13A 8343   5.959   3.875  17.277  1.3225  0.2661 -0.3708
   6523SM  H13B 8344   6.056   3.812  17.157 -0.6762 -1.2051 -1.3667
   6523SM  H13C 8345   5.952   3.709  17.265  2.3226  0.3151  0.2229
   6523SM   C12 8346   5.870   3.708  16.989  0.6410 -0.6002 -0.1128
   6523SM  H12A 8347   5.941   3.751  16.921  1.1011  0.9801  1.3146
   6523SM  H12B 8348   5.781   3.696  16.928  0.2656 -2.0096  0.6479
   6523SM   C11 8349   5.917   3.564  17.021  0.0496  1.0549  0.2405
   6523SM  H11A 8350   6.024   3.569  17.050 -0.2356  0.2185  1.4884
   6523SM  H11B 8351   5.908   3.498  16.931  1.0982  0.9355  0.2141
   6523SM     P 8352   5.700   3.436  17.096 -0.0667  0.3350 -0.4276
   6523SM   O13 8353   5.603   3.437  17.206 -0.5389 -0.2319 -0.0841
   6523SM   O14 8354   5.653   3.489  16.968  0.2066 -0.4353  0.3811
   6523SM   O11 8355   5.756   3.283  17.074 -0.3153 -0.0027 -0.1555
   6523SM   O12 8356   5.842   3.504  17.131 -0.3134  0.0323  0.0969
   6523SM   C1S 8357   5.729   3.216  16.953  0.4545  0.0992  0.2801
   6523SM   H1S 8358   5.637   3.253  16.903  1.3884 -0.3738 -1.9037
   6523SM   H1T 8359   5.723   3.108  16.979  2.1646  0.1707  1.1825
   6523SM    NF 8360   5.808   3.145  16.738 -0.5153  0.0227 -0.5625
   6523SM   HNF 8361   5.828   3.048  16.729 -0.1187  0.2369 -2.3136
   6523SM   C2S 8362   5.852   3.217  16.855 -0.1336  0.0874  0.2105
   6523SM   H2S 8363   5.866   3.322  16.820 -1.6409  0.1624 -0.2268
   6523SM   C3S 8364   5.985   3.165  16.914 -0.0808 -0.3817 -0.2976
   6523SM   H3S 8365   5.971   3.057  16.936 -0.3076 -0.3454 -0.2577
   6523SM    O3 8366   6.009   3.232  17.036  0.0292 -0.5105 -0.0519
   6523SM   HO3 8367   5.924   3.267  17.062  0.2048 -1.1563  1.5342
   6523SM   C4S 8368   6.106   3.190  16.827 -0.5783  0.0339  0.8071
   6523SM   H4S 8369   6.142   3.291  16.803 -1.0750  0.4049  1.5856
   6523SM   C5S 8370   6.158   3.094  16.748 -0.0848 -0.0354 -0.2682
   6523SM   H5S 8371   6.115   2.993  16.752  0.5308 -0.2749  0.6736
   6523SM   C6S 8372   6.252   3.109  16.633  0.1551 -0.2095 -0.4468
   6523SM   H6S 8373   6.334   3.039  16.662 -0.1366  0.3267  1.9420
   6523SM   H6T 8374   6.298   3.211  16.630 -0.6790  0.1716 -0.4917
   6523SM   C7S 8375   6.190   3.078  16.491  0.0105 -0.0360 -0.5487
   6523SM   H7S 8376   6.159   2.973  16.476 -3.3574  0.6200  0.9764
   6523SM   H7T 8377   6.264   3.106  16.413  1.6860 -0.6618  0.7447
   6523SM   C8S 8378   6.070   3.174  16.475  0.3508  0.5183 -0.3735
   6523SM   H8S 8379   6.103   3.274  16.513 -2.0720  1.3558 -0.2824
   6523SM   H8T 8380   5.978   3.157  16.535  0.8950 -1.1139  0.0397
   6523SM   C9S 8381   6.034   3.194  16.328 -0.8500  0.7740 -0.8961
   6523SM   H9S 8382   6.121   3.241  16.278  1.0087  0.0288  1.4631
   6523SM   H9T 8383   5.964   3.280  16.324  0.8041  2.3973  1.9386
   6523SM  C10S 8384   5.992   3.067  16.252 -0.0027  0.2496  0.2071
   6523SM  H10S 8385   5.922   3.006  16.312 -0.0678  0.2625  0.1442
   6523SM  H10T 8386   6.085   3.007  16.241 -1.9627 -3.3075  1.4960
   6523SM  C11S 8387   5.924   3.108  16.116 -0.4588  0.3508 -0.5501
   6523SM  H11S 8388   6.004   3.139  16.045  1.7861 -0.7334  1.3556
   6523SM  H11T 8389   5.851   3.190  16.132 -0.1450  0.8864 -1.7855
   6523SM  C12S 8390   5.859   2.984  16.052  1.0586 -0.0253  0.1699
   6523SM  H12S 8391   5.774   2.947  16.113  2.0880 -0.7264  1.2135
   6523SM  H12T 8392   5.930   2.900  16.037  0.3525 -0.5302 -0.4194
   6523SM  C13S 8393   5.810   3.011  15.906  0.0398 -0.1240 -0.3832
   6523SM  H13S 8394   5.894   3.052  15.846 -0.9169  0.2260 -1.5226
   6523SM  H13T 8395   5.740   3.098  15.905  0.7760  0.4950 -2.1381
   6523SM  C14S 8396   5.741   2.902  15.829 -0.0500  0.1764 -0.4934
   6523SM  H14S 8397   5.665   2.866  15.901  2.6913 -0.9847  2.0126
   6523SM  H14T 8398   5.804   2.816  15.797  0.3837 -0.1935  1.2694
   6523SM  C15S 8399   5.664   2.955  15.704 -0.3265  0.4310 -0.0208
   6523SM  H15S 8400   5.735   3.001  15.632  0.1954 -0.8113 -0.3416
   6523SM  H15T 8401   5.605   3.041  15.741 -0.3501  0.0462  0.8461
   6523SM  C16S 8402   5.578   2.852  15.637  0.9080 -0.2997 -0.0805
   6523SM  H16S 8403   5.483   2.837  15.692  0.2029  2.5898 -0.3673
   6523SM  H16T 8404   5.627   2.753  15.625 -1.1745 -1.3927  0.0326
   6523SM  C17S 8405   5.529   2.900  15.498 -0.3662 -0.6193 -0.4048
   6523SM  H17S 8406   5.617   2.954  15.458 -0.0095 -1.1856 -0.4046
   6523SM  H17T 8407   5.440   2.966  15.504 -0.5668 -0.9104 -0.0949
   6523SM  C18S 8408   5.482   2.786  15.407 -0.8545 -0.3019 -0.3740
   6523SM  H18S 8409   5.567   2.717  15.387  1.2375  1.5419  1.4796
   6523SM  H18T 8410   5.454   2.824  15.307 -0.9976  0.4860 -0.0406
   6523SM  H18U 8411   5.391   2.739  15.448 -1.8045  0.9250 -1.0143
   6523SM   C1F 8412   5.736   3.199  16.639 -0.0722 -0.0113  0.2458
   6523SM    OF 8413   5.713   3.321  16.638 -0.2038 -0.0165  0.2695
   6523SM   C2F 8414   5.693   3.105  16.539  0.9536 -0.1907  0.2827
   6523SM   H2F 8415   5.603   3.060  16.587  1.4195 -1.9101 -0.4026
   6523SM   H2G 8416   5.765   3.023  16.519 -0.2051 -0.5962 -2.6915
   6523SM   C3F 8417   5.666   3.194  16.413  0.3462 -0.7689 -0.1530
   6523SM   H3F 8418   5.754   3.244  16.368  0.4587 -1.6002 -0.8807
   6523SM   H3G 8419   5.602   3.282  16.436  0.5285 -0.6589 -0.0699
   6523SM   C4F 8420   5.595   3.118  16.302 -0.4505 -0.3816  0.0656
   6523SM   H4F 8421   5.505   3.074  16.350 -0.2706 -0.1205  0.6510
   6523SM   H4G 8422   5.654   3.031  16.264 -1.1031 -1.9593  2.4227
   6523SM   C5F 8423   5.569   3.203  16.177  0.3935 -0.8038 -0.9577
   6523SM   H5F 8424   5.657   3.247  16.127  0.6429  0.7149  0.7373
   6523SM   H5G 8425   5.503   3.287  16.208  2.0523 -0.5328  2.2213
   6523SM   C6F 8426   5.492   3.120  16.068  0.4690  0.9484  0.0753
   6523SM   H6F 8427   5.414   3.062  16.122  1.4802 -0.7126 -0.1775
   6523SM   H6G 8428   5.564   3.050  16.020  0.1664  0.9237 -0.3414
   6523SM   C7F 8429   5.435   3.205  15.958  0.0356  0.4771 -0.0013
   6523SM   H7F 8430   5.517   3.228  15.887  0.7214 -0.2404  0.5360
   6523SM   H7G 8431   5.394   3.301  15.998 -0.5959  0.2007  0.0191
   6523SM   C8F 8432   5.335   3.124  15.878  1.0876  0.2423  0.0132
   6523SM   H8F 8433   5.249   3.093  15.942  0.0184  1.3714 -0.8325
   6523SM   H8G 8434   5.381   3.028  15.844 -2.4277 -1.1091 -1.4187
   6523SM   C9F 8435   5.269   3.201  15.765 -0.0685 -0.3176 -0.6348
   6523SM   H9F 8436   5.352   3.233  15.698  0.0261 -2.5289 -1.6726
   6523SM   H9G 8437   5.218   3.293  15.800  1.5705  0.7062 -0.8334
   6523SM  C10F 8438   5.178   3.123  15.672  0.9352  0.5224  0.0396
   6523SM  H10F 8439   5.090   3.092  15.732  1.1911 -0.7869 -0.2273
   6523SM  H10G 8440   5.232   3.033  15.635  2.1396  1.0654  0.4129
   6523SM  C11F 8441   5.114   3.206  15.561 -0.0837 -0.3705 -0.5536
   6523SM  H11F 8442   5.069   3.298  15.602 -0.4799 -0.7351 -0.1570
   6523SM  H11G 8443   5.036   3.148  15.505 -1.3663 -0.5905  1.3721
   6523SM  C12F 8444   5.213   3.226  15.447 -0.0840 -0.1276 -0.3602
   6523SM  H12F 8445   5.277   3.136  15.440  1.5580  0.9721  0.0402
   6523SM  H12G 8446   5.276   3.305  15.492 -2.1527  0.9361  0.8458
   6523SM  C13F 8447   5.148   3.255  15.313  0.2705 -0.2935 -0.2100
   6523SM  H13F 8448   5.082   3.345  15.321 -2.1599 -2.0019  0.0344
   6523SM  H13G 8449   5.068   3.179  15.302 -0.4665  0.1222  1.7545
   6523SM  C14F 8450   5.239   3.269  15.188 -0.0350  0.1427  0.0249
   6523SM  H14F 8451   5.291   3.367  15.192  2.4145 -1.0822  0.1890
   6523SM  H14G 8452   5.183   3.260  15.093 -0.3270 -2.9594  0.3759
   6523SM  C15F 8453   5.348   3.162  15.182 -0.4743 -0.0437  0.1530
   6523SM  H15F 8454   5.301   3.061  15.179 -0.7618  0.0516  1.1836
   6523SM  H15G 8455   5.420   3.170  15.266 -0.7179  1.7664  0.2420
   6523SM  C16F 8456   5.425   3.185  15.048 -0.4767 -0.2082 -0.2283
   6523SM  H16F 8457   5.477   3.282  15.060  0.4200 -0.6553 -0.3385
   6523SM  H16G 8458   5.352   3.195  14.965 -1.4330 -2.3400  0.2850
   6523SM  C17F 8459   5.529   3.077  15.026 -0.5319 -0.4396 -0.1494
   6523SM  H17F 8460   5.475   2.980  15.025 -0.2951 -0.5794 -1.6104
   6523SM  H17G 8461   5.604   3.073  15.107  0.9917  1.6806 -1.3425
   6523SM  C18F 8462   5.611   3.093  14.899 -0.6935 -0.0712 -0.3689
   6523SM  H18F 8463   5.545   3.073  14.812 -0.4500  0.1283 -0.6016
   6523SM  H18G 8464   5.698   3.026  14.907 -0.5980  0.1323  0.3508
   6523SM  C19F 8465   5.661   3.239  14.872 -0.1504  0.2124  0.2302
   6523SM  H19F 8466   5.745   3.260  14.943  0.0123 -0.5878  0.2961
   6523SM  H19G 8467   5.584   3.316  14.890 -1.7309 -0.9369 -1.3157
   6523SM  C20F 8468   5.688   3.259  14.723  0.1160 -0.1999 -0.4073
   6523SM  H20F 8469   5.589   3.239  14.676 -0.7733  0.6493  0.9994
   6523SM  H20G 8470   5.757   3.179  14.690 -1.1852 -0.9243 -1.4696
   6523SM  C21F 8471   5.742   3.393  14.675 -0.5683 -0.0530 -0.0437
   6523SM  H21F 8472   5.833   3.412  14.736 -1.5304  1.6199  0.9409
   6523SM  H21G 8473   5.676   3.481  14.693 -1.0144 -0.2198 -0.7999
   6523SM  C22F 8474   5.791   3.397  14.530  0.3902 -0.0558  0.3262
   6523SM  H22F 8475   5.886   3.340  14.520  0.4880  0.4810 -2.6268
   6523SM  H22G 8476   5.818   3.498  14.492 -1.2243  0.5199  0.6637
   6523SM  C23F 8477   5.693   3.331  14.433  0.0826  0.0782 -0.4054
   6523SM  H23F 8478   5.658   3.232  14.468 -2.1913  1.4554  1.4716
   6523SM  H23G 8479   5.725   3.326  14.326 -1.3526  0.9289 -0.9106
   6523SM  H23H 8480   5.606   3.400  14.426  0.6950  0.8172 -0.9815
   6623SM     N 8481   4.847   1.353  17.426 -0.3060 -0.1119  0.4355
   6623SM   C15 8482   4.723   1.335  17.507 -0.7107  0.3549 -0.3283
   6623SM  H15A 8483   4.727   1.393  17.598 -2.1560  0.0994 -0.0798
   6623SM  H15B 8484   4.719   1.233  17.541  1.8037  1.3711  3.7388
   6623SM  H15C 8485   4.637   1.368  17.451 -0.9722 -0.1779 -0.2437
   6623SM   C14 8486   4.956   1.296  17.505 -0.2753  0.2147  0.3654
   6623SM  H14A 8487   4.989   1.367  17.579 -0.0238 -1.4605  1.9527
   6623SM  H14B 8488   5.042   1.260  17.451 -0.5163 -0.9080  0.6875
   6623SM  H14C 8489   4.919   1.206  17.554  0.4673 -0.5403 -0.4323
   6623SM   C13 8490   4.830   1.294  17.294  0.2710  0.8393  1.2136
   6623SM  H13A 8491   4.911   1.325  17.230 -1.0585  0.4962 -0.7092
   6623SM  H13B 8492   4.732   1.316  17.256 -0.2378 -2.4500  0.3011
   6623SM  H13C 8493   4.839   1.187  17.309 -0.0562  0.7957  1.0920
   6623SM   C12 8494   4.870   1.502  17.395 -0.3113 -1.1090 -0.1055
   6623SM  H12A 8495   4.785   1.545  17.344 -0.9484 -1.8146  0.3506
   6623SM  H12B 8496   4.952   1.511  17.325 -1.3141  1.4400 -1.0762
   6623SM   C11 8497   4.921   1.600  17.514 -0.7398  0.5820 -0.3402
   6623SM  H11A 8498   4.881   1.568  17.613 -0.2294  0.7533 -0.0745
   6623SM  H11B 8499   4.871   1.696  17.492 -0.5329  0.8006  0.1344
   6623SM     P 8500   5.161   1.668  17.424  0.4721  0.2332  0.1521
   6623SM   O13 8501   5.154   1.816  17.453  0.1496 -0.1777 -0.2091
   6623SM   O14 8502   5.289   1.597  17.440  0.1669 -0.7291  0.2897
   6623SM   O11 8503   5.098   1.644  17.286  0.7374  0.0621 -0.1802
   6623SM   O12 8504   5.062   1.596  17.528  0.1669 -0.2884  0.3287
   6623SM   C1S 8505   5.152   1.557  17.188  0.3676  0.2012  0.4346
   6623SM   H1S 8506   5.146   1.451  17.221  1.9548  0.3057  1.1006
   6623SM   H1T 8507   5.259   1.580  17.170  0.7906 -0.6555  1.7256
   6623SM    NF 8508   5.118   1.461  16.960 -0.1595  0.4333  0.2799
   6623SM   HNF 8509   5.158   1.471  16.869  1.5725 -1.0961  0.8228
   6623SM   C2S 8510   5.088   1.575  17.047  0.2965 -0.1670  0.4418
   6623SM   H2S 8511   4.978   1.571  17.065  0.4321 -1.9203  1.0629
   6623SM   C3S 8512   5.122   1.715  16.983  0.4679  0.7144  0.1392
   6623SM   H3S 8513   5.224   1.714  16.939  0.0508  0.0939 -0.8442
   6623SM    O3 8514   5.117   1.819  17.082 -0.5480 -0.1090  0.0050
   6623SM   HO3 8515   5.097   1.769  17.162  0.0650 -0.1860  0.1100
   6623SM   C4S 8516   5.026   1.734  16.865  0.2235 -0.5735  0.2963
   6623SM   H4S 8517   5.067   1.702  16.769  0.6310 -0.7269  0.5187
   6623SM   C5S 8518   4.924   1.822  16.855  0.2286  0.3524 -0.2250
   6623SM   H5S 8519   4.891   1.882  16.941 -1.5456 -0.6700 -0.1370
   6623SM   C6S 8520   4.864   1.865  16.725 -0.2771 -0.0514  0.3733
   6623SM   H6S 8521   4.894   1.806  16.636 -2.1544  1.1884 -1.1713
   6623SM   H6T 8522   4.904   1.966  16.703  1.8682 -1.5821 -3.8095
   6623SM   C7S 8523   4.706   1.862  16.720 -0.6899 -0.4692  0.6967
   6623SM   H7S 8524   4.660   1.926  16.799 -2.1831  1.1956 -1.4140
   6623SM   H7T 8525   4.671   1.758  16.738  1.2611 -1.3225 -0.1299
   6623SM   C8S 8526   4.641   1.930  16.595  0.7824 -0.1755  0.7157
   6623SM   H8S 8527   4.691   2.029  16.583 -0.3183  0.7919  3.2325
   6623SM   H8T 8528   4.531   1.943  16.610  0.5674 -1.9147  0.8481
   6623SM   C9S 8529   4.655   1.857  16.463 -0.1683  0.5109 -0.4008
   6623SM   H9S 8530   4.589   1.768  16.462  0.3075  0.1089  1.0128
   6623SM   H9T 8531   4.760   1.825  16.448  0.4122  2.2038 -0.1839
   6623SM  C10S 8532   4.595   1.948  16.349 -0.2359 -0.1779  0.3098
   6623SM  H10S 8533   4.640   2.049  16.359  0.3746 -0.2446 -1.3641
   6623SM  H10T 8534   4.485   1.948  16.366 -0.5004  0.2170 -1.2469
   6623SM  C11S 8535   4.606   1.880  16.213 -0.6665 -0.3834  0.3468
   6623SM  H11S 8536   4.587   1.772  16.226  2.4826 -1.0531  0.1282
   6623SM  H11T 8537   4.711   1.883  16.177 -0.4684 -1.8411  0.7341
   6623SM  C12S 8538   4.508   1.942  16.112 -0.5610 -0.0492 -0.8967
   6623SM  H12S 8539   4.499   2.052  16.127 -0.1301 -0.0477 -0.6377
   6623SM  H12T 8540   4.410   1.901  16.144 -1.4493  0.8373 -2.3969
   6623SM  C13S 8541   4.540   1.913  15.964  0.2879 -0.4784  0.0960
   6623SM  H13S 8542   4.541   1.802  15.965 -0.7135 -0.5042 -0.1815
   6623SM  H13T 8543   4.640   1.958  15.951 -0.7807  3.3081  3.2364
   6623SM  C14S 8544   4.431   1.969  15.875  0.0773  0.1788  0.7983
   6623SM  H14S 8545   4.426   2.078  15.895 -0.2142  0.4380 -0.5569
   6623SM  H14T 8546   4.332   1.924  15.899 -0.4696 -1.6477 -3.7617
   6623SM  C15S 8547   4.469   1.955  15.725  0.1966  0.3119 -0.1601
   6623SM  H15S 8548   4.458   1.848  15.695  0.0076  0.5376 -0.9180
   6623SM  H15T 8549   4.576   1.982  15.711  0.4510 -0.1941  0.6664
   6623SM  C16S 8550   4.387   2.037  15.624 -1.0275  0.2477  0.6972
   6623SM  H16S 8551   4.407   2.145  15.640 -0.6731  0.6226 -1.9820
   6623SM  H16T 8552   4.277   2.024  15.625 -1.2324  1.8333  1.2109
   6623SM  C17S 8553   4.438   2.022  15.477 -0.0793 -0.1226 -0.2039
   6623SM  H17S 8554   4.371   2.076  15.407  1.2423 -1.0731 -2.3046
   6623SM  H17T 8555   4.423   1.913  15.459  0.1808 -0.7376  2.8396
   6623SM  C18S 8556   4.573   2.085  15.442  0.1327 -0.0014 -0.3810
   6623SM  H18S 8557   4.658   2.068  15.512  1.8845  0.2348 -2.3585
   6623SM  H18T 8558   4.555   2.194  15.437  1.1601  0.3367  2.0342
   6623SM  H18U 8559   4.606   2.049  15.342  0.2601  1.4903 -0.8884
   6623SM   C1F 8560   5.096   1.330  16.993 -0.4182 -0.4005 -0.3377
   6623SM    OF 8561   5.060   1.294  17.104 -0.3186  0.2176  0.4094
   6623SM   C2F 8562   5.114   1.229  16.880 -0.3442  0.2443  0.1120
   6623SM   H2F 8563   5.221   1.207  16.859 -0.3113  0.0303  0.5041
   6623SM   H2G 8564   5.073   1.284  16.793 -0.2220  1.6111  0.8865
   6623SM   C3F 8565   5.059   1.089  16.911  0.1764  0.3809 -0.0742
   6623SM   H3F 8566   4.958   1.095  16.957  0.1879 -1.9628  0.3903
   6623SM   H3G 8567   5.111   1.042  16.998  2.8984 -0.0985 -1.8579
   6623SM   C4F 8568   5.051   0.997  16.787 -0.4750 -0.3079  0.5358
   6623SM   H4F 8569   5.000   0.902  16.812  1.6925 -1.4925  0.6613
   6623SM   H4G 8570   5.153   0.959  16.763  0.2504  1.8640 -0.1174
   6623SM   C5F 8571   4.993   1.071  16.664  1.2857 -0.1198  0.4302
   6623SM   H5F 8572   5.058   1.158  16.640  0.2809  1.0462  1.7975
   6623SM   H5G 8573   4.885   1.093  16.678  0.9412 -0.5172 -1.3665
   6623SM   C6F 8574   5.003   0.985  16.539  0.2015  0.6180  0.1394
   6623SM   H6F 8575   4.922   0.910  16.532  1.6749 -0.9311 -1.2940
   6623SM   H6G 8576   5.100   0.931  16.537 -1.1598 -2.1162  1.9191
   6623SM   C7F 8577   4.986   1.062  16.401 -0.2411  0.5315  0.3474
   6623SM   H7F 8578   5.055   1.149  16.388  1.6173 -0.8206  0.7711
   6623SM   H7G 8579   4.878   1.087  16.400 -1.3572 -3.4464  2.2193
   6623SM   C8F 8580   5.025   0.972  16.288  0.5813  0.4432 -0.1277
   6623SM   H8F 8581   4.989   0.869  16.308  1.4369  0.5608  2.3966
   6623SM   H8G 8582   5.135   0.956  16.288  0.5674  0.0153 -2.5393
   6623SM   C9F 8583   4.985   1.021  16.149 -0.7420 -0.2506 -0.1506
   6623SM   H9F 8584   5.006   1.129  16.133 -0.8679 -0.0497  0.9931
   6623SM   H9G 8585   4.877   1.000  16.128 -1.2016 -0.5262  2.2779
   6623SM  C10F 8586   5.064   0.953  16.037 -0.2648  0.6482  0.5067
   6623SM  H10F 8587   5.050   0.844  16.049  1.8766  0.2818  0.1388
   6623SM  H10G 8588   5.174   0.972  16.036 -0.0048 -0.4556  2.3441
   6623SM  C11F 8589   5.008   0.979  15.899  0.1136 -0.1904  0.1185
   6623SM  H11F 8590   5.016   1.088  15.878 -2.0698 -0.2997 -1.8158
   6623SM  H11G 8591   4.902   0.946  15.896  0.6185 -1.8268 -1.5886
   6623SM  C12F 8592   5.076   0.901  15.784 -0.3945 -0.2718  0.6163
   6623SM  H12F 8593   5.063   0.793  15.807  3.9824 -0.6936  2.0929
   6623SM  H12G 8594   5.186   0.912  15.794 -0.5010  0.8908  0.6600
   6623SM  C13F 8595   5.036   0.944  15.640 -0.2543 -0.0380  0.4640
   6623SM  H13F 8596   5.063   1.050  15.626 -1.0047  0.4012  2.0536
   6623SM  H13G 8597   4.929   0.924  15.619 -0.6631 -0.6024  2.7215
   6623SM  C14F 8598   5.113   0.863  15.537 -0.2717  0.1173 -0.0861
   6623SM  H14F 8599   5.087   0.755  15.548 -0.0241  0.0910  0.2835
   6623SM  H14G 8600   5.223   0.865  15.553  0.1597 -0.8462 -2.4323
   6623SM  C15F 8601   5.087   0.900  15.390  0.5012 -0.2778 -0.1106
   6623SM  H15F 8602   5.146   0.990  15.365  0.5530 -0.3145 -0.1204
   6623SM  H15G 8603   4.976   0.905  15.382  0.5377 -0.8603 -1.1802
   6623SM  C16F 8604   5.134   0.790  15.293  0.3354 -0.5922 -0.3402
   6623SM  H16F 8605   5.099   0.685  15.301 -1.7030 -0.1526 -2.4366
   6623SM  H16G 8606   5.238   0.794  15.333  1.0140  0.2420 -2.0974
   6623SM  C17F 8607   5.121   0.836  15.145 -0.3198  0.2281  0.7531
   6623SM  H17F 8608   5.169   0.755  15.085 -0.8827  2.5387 -3.2143
   6623SM  H17G 8609   5.183   0.928  15.133 -1.3895  0.8493 -0.2664
   6623SM  C18F 8610   4.973   0.850  15.107  0.2264  0.3703  0.7350
   6623SM  H18F 8611   4.933   0.928  15.175 -0.6111 -1.8768  2.9569
   6623SM  H18G 8612   4.915   0.761  15.138  0.6936 -0.1209  0.2182
   6623SM  C19F 8613   4.952   0.887  14.955  0.5483 -0.0746 -0.5206
   6623SM  H19F 8614   4.980   0.806  14.884 -2.0599 -0.0290 -1.7133
   6623SM  H19G 8615   5.026   0.970  14.953  2.0688 -1.2321  2.2539
   6623SM  C20F 8616   4.815   0.941  14.928 -0.0450  0.7449 -0.0826
   6623SM  H20F 8617   4.789   1.020  15.001  0.9045 -1.0593  2.3750
   6623SM  H20G 8618   4.740   0.860  14.943 -0.2724  0.7057 -1.3302
   6623SM  C21F 8619   4.801   0.991  14.780  0.5900  0.9313 -0.7154
   6623SM  H21F 8620   4.782   0.904  14.713 -2.1715  0.1174  0.9401
   6623SM  H21G 8621   4.884   1.055  14.745  2.3175 -1.7422 -1.8157
   6623SM  C22F 8622   4.670   1.068  14.773  0.6981 -0.2880  0.1970
   6623SM  H22F 8623   4.690   1.158  14.835  0.0173  1.7000 -2.3033
   6623SM  H22G 8624   4.579   1.017  14.811  1.5264 -1.1804  1.0402
   6623SM  C23F 8625   4.639   1.112  14.630 -0.1495  0.0581  1.1629
   6623SM  H23F 8626   4.706   1.190  14.589 -0.0502 -0.9716 -0.7767
   6623SM  H23G 8627   4.531   1.128  14.610 -0.0490  0.7130  1.1502
   6623SM  H23H 8628   4.662   1.025  14.565  0.1182 -1.4194  3.1215
   6723SM     N 8629   4.903   5.576  17.077 -0.5711  0.0075  0.5210
   6723SM   C15 8630   4.834   5.661  17.178 -0.1775  0.1091  0.5012
   6723SM  H15A 8631   4.810   5.606  17.267  0.3769  2.5712  2.2930
   6723SM  H15B 8632   4.746   5.704  17.134  0.0820 -0.5087 -0.6478
   6723SM  H15C 8633   4.899   5.741  17.212 -1.5998  1.5464 -0.0190
   6723SM   C14 8634   4.952   5.671  16.968 -0.2958 -0.3747  0.4406
   6723SM  H14A 8635   5.005   5.612  16.894 -1.2972 -2.2670  1.1622
   6723SM  H14B 8636   5.027   5.742  16.999 -0.3224 -0.4109  0.5862
   6723SM  H14C 8637   4.863   5.714  16.924 -0.3750  0.5458  1.4604
   6723SM   C13 8638   5.015   5.499  17.136 -0.0281 -0.2340  0.0240
   6723SM  H13A 8639   4.977   5.444  17.221 -1.8086 -0.1023 -0.6305
   6723SM  H13B 8640   5.093   5.565  17.171 -0.6153  0.2663  0.4048
   6723SM  H13C 8641   5.068   5.427  17.076 -1.1523 -1.8491  0.8769
   6723SM   C12 8642   4.805   5.470  17.024  0.1880 -0.3306  0.0962
   6723SM  H12A 8643   4.737   5.518  16.956  0.7099 -2.5156 -2.1511
   6723SM  H12B 8644   4.750   5.425  17.105  1.5970 -0.7406  0.8524
   6723SM   C11 8645   4.861   5.354  16.937  0.1029 -0.5496 -0.4422
   6723SM  H11A 8646   4.922   5.393  16.853  0.6542 -1.3534 -0.4298
   6723SM  H11B 8647   4.770   5.310  16.892 -0.8187  0.0754  0.7654
   6723SM     P 8648   4.860   5.134  17.082 -0.4891  0.0813  0.0754
   6723SM   O13 8649   4.966   5.038  17.134  0.3172 -0.1079 -0.0022
   6723SM   O14 8650   4.769   5.183  17.185 -0.3040 -0.0351 -0.2297
   6723SM   O11 8651   4.783   5.068  16.964 -0.3728 -0.2738  0.0918
   6723SM   O12 8652   4.926   5.254  17.010 -0.2304 -0.0738 -0.2407
   6723SM   C1S 8653   4.846   4.987  16.864  0.7671 -0.5786 -0.2691
   6723SM   H1S 8654   4.830   4.880  16.890 -1.9987 -0.0528  0.4922
   6723SM   H1T 8655   4.957   4.998  16.862  0.7007  0.1182 -0.1906
   6723SM    NF 8656   4.865   5.112  16.648 -0.2597 -0.2592 -0.1272
   6723SM   HNF 8657   4.817   5.198  16.636 -3.1064 -1.6147  0.6079
   6723SM   C2S 8658   4.788   5.008  16.713  0.1503  0.2328  0.1647
   6723SM   H2S 8659   4.791   4.910  16.660 -5.8954 -0.0339 -0.3983
   6723SM   C3S 8660   4.632   5.025  16.703  0.3548 -0.1374 -0.6140
   6723SM   H3S 8661   4.603   5.118  16.757 -1.8036 -0.8467 -0.4783
   6723SM    O3 8662   4.554   4.929  16.772  0.5147 -0.4887  0.4087
   6723SM   HO3 8663   4.611   4.879  16.831  0.5912 -0.5416  0.2908
   6723SM   C4S 8664   4.584   5.030  16.560  0.7038  0.1281 -0.6761
   6723SM   H4S 8665   4.589   4.935  16.504 -0.0698 -0.7085  0.6031
   6723SM   C5S 8666   4.551   5.141  16.492  0.7999 -1.1072  0.2719
   6723SM   H5S 8667   4.565   5.239  16.539  0.0050 -0.0714 -1.5419
   6723SM   C6S 8668   4.479   5.152  16.362  0.2609  0.2447 -0.5820
   6723SM   H6S 8669   4.538   5.209  16.288 -0.7362  1.6318 -0.3550
   6723SM   H6T 8670   4.383   5.208  16.365 -1.7100 -2.9125 -0.5274
   6723SM   C7S 8671   4.461   5.016  16.290  0.3183 -0.0612  0.0949
   6723SM   H7S 8672   4.400   4.952  16.357  1.9917 -1.1136  0.6655
   6723SM   H7T 8673   4.561   4.970  16.278  0.5388  0.6624 -0.9771
   6723SM   C8S 8674   4.407   5.048  16.148 -0.3341  0.0176 -0.0288
   6723SM   H8S 8675   4.479   5.118  16.100 -0.3057 -0.6164 -0.9290
   6723SM   H8T 8676   4.308   5.096  16.161 -0.9902 -1.1195 -0.6571
   6723SM   C9S 8677   4.407   4.920  16.068 -0.3808  0.1443  0.2664
   6723SM   H9S 8678   4.317   4.866  16.106 -0.6401  0.7473  0.5341
   6723SM   H9T 8679   4.493   4.858  16.099  0.6336  1.8214  0.9680
   6723SM  C10S 8680   4.418   4.950  15.914  0.2862 -0.3004 -0.1484
   6723SM  H10S 8681   4.524   4.977  15.897  0.4306 -0.5126  0.3758
   6723SM  H10T 8682   4.344   5.028  15.887  0.7156  0.7388  1.5130
   6723SM  C11S 8683   4.403   4.821  15.832  0.1504  0.1551 -0.1819
   6723SM  H11S 8684   4.314   4.774  15.879 -0.4034 -0.0454 -1.3964
   6723SM  H11T 8685   4.491   4.754  15.844 -1.6251 -1.9225  2.6103
   6723SM  C12S 8686   4.373   4.852  15.682  0.7918  0.5939 -0.4224
   6723SM  H12S 8687   4.291   4.927  15.692 -0.3356 -0.6587  0.0215
   6723SM  H12T 8688   4.314   4.777  15.626 -2.2591  1.2450  1.6157
   6723SM  C13S 8689   4.493   4.896  15.601  0.0337 -0.1872 -0.5890
   6723SM  H13S 8690   4.582   4.830  15.597 -0.1192 -0.4141 -0.2661
   6723SM  H13T 8691   4.526   4.989  15.652 -0.4721 -0.7780  0.8527
   6723SM  C14S 8692   4.456   4.917  15.458  0.4078 -0.3312  0.3174
   6723SM  H14S 8693   4.360   4.974  15.463 -0.3622 -1.6298  1.1139
   6723SM  H14T 8694   4.414   4.826  15.409  1.9861 -0.2306 -1.3181
   6723SM  C15S 8695   4.573   4.953  15.358  0.8206  0.5426  0.1533
   6723SM  H15S 8696   4.645   4.868  15.362  0.4729  0.0603 -2.3898
   6723SM  H15T 8697   4.635   5.034  15.405  2.8725 -1.8277  1.8004
   6723SM  C16S 8698   4.526   4.984  15.213  0.1588 -0.7646 -0.0348
   6723SM  H16S 8699   4.456   4.903  15.183  1.0871 -1.5873 -0.0303
   6723SM  H16T 8700   4.607   4.974  15.137  0.2473  0.4648 -0.1266
   6723SM  C17S 8701   4.450   5.113  15.202 -0.5811 -0.5156  0.2257
   6723SM  H17S 8702   4.520   5.192  15.168 -1.3665  0.2640  0.3916
   6723SM  H17T 8703   4.419   5.144  15.304  1.3338 -2.0192  1.3286
   6723SM  C18S 8704   4.331   5.130  15.115 -0.0936  0.6704 -0.6338
   6723SM  H18S 8705   4.356   5.144  15.008 -0.3041  1.5530 -0.5793
   6723SM  H18T 8706   4.275   5.220  15.149 -3.8028 -1.4791 -0.4432
   6723SM  H18U 8707   4.260   5.045  15.128 -0.9323  1.7624  3.4744
   6723SM   C1F 8708   4.990   5.108  16.612 -0.3941  0.5347 -0.1315
   6723SM    OF 8709   5.056   5.009  16.634 -0.4363  0.2802 -0.0766
   6723SM   C2F 8710   5.044   5.240  16.558 -0.3771  0.9697  0.5439
   6723SM   H2F 8711   5.125   5.271  16.628 -0.5572 -0.1225  1.2580
   6723SM   H2G 8712   4.965   5.317  16.547  0.1231  1.1541 -2.7919
   6723SM   C3F 8713   5.100   5.213  16.412 -0.8521  0.0961 -0.0649
   6723SM   H3F 8714   5.183   5.140  16.407 -0.5476  0.4281  0.0691
   6723SM   H3G 8715   5.138   5.312  16.378  0.3029 -0.6177 -0.9082
   6723SM   C4F 8716   5.003   5.166  16.304  0.4717 -0.2981  0.2282
   6723SM   H4F 8717   4.937   5.086  16.342 -1.8971  0.6632 -1.6722
   6723SM   H4G 8718   5.062   5.114  16.226 -1.1628 -0.0549 -1.2265
   6723SM   C5F 8719   4.920   5.284  16.248 -0.3201  0.6598 -1.0164
   6723SM   H5F 8720   4.988   5.356  16.197 -0.1589  1.3078  0.0740
   6723SM   H5G 8721   4.858   5.333  16.326  0.5694  0.0622  0.0878
   6723SM   C6F 8722   4.823   5.257  16.128  0.0148 -0.6975  0.3845
   6723SM   H6F 8723   4.749   5.181  16.160 -0.9585 -0.0059 -0.1983
   6723SM   H6G 8724   4.885   5.211  16.048 -1.8298 -3.9602  0.6611
   6723SM   C7F 8725   4.746   5.387  16.089 -0.9326  0.0807  0.3749
   6723SM   H7F 8726   4.813   5.463  16.045 -0.6550  0.7229  1.8356
   6723SM   H7G 8727   4.691   5.442  16.168  0.0511 -0.4435  1.4478
   6723SM   C8F 8728   4.650   5.361  15.972 -0.1097 -0.6258 -0.8512
   6723SM   H8F 8729   4.599   5.458  15.956 -0.3483 -0.6674 -0.3771
   6723SM   H8G 8730   4.591   5.274  16.009 -0.1970  0.0197  0.6197
   6723SM   C9F 8731   4.723   5.322  15.844  0.1806  0.5629  0.2204
   6723SM   H9F 8732   4.789   5.236  15.870  0.0179 -0.1555 -1.5364
   6723SM   H9G 8733   4.781   5.401  15.793 -0.3009 -0.2347 -1.6617
   6723SM  C10F 8734   4.627   5.274  15.734 -0.0653 -0.0157 -1.0990
   6723SM  H10F 8735   4.537   5.339  15.744  2.4254  3.5355  0.6633
   6723SM  H10G 8736   4.609   5.170  15.767  3.2034 -0.6980 -1.1836
   6723SM  C11F 8737   4.683   5.286  15.595  0.4234 -0.1108  0.0158
   6723SM  H11F 8738   4.612   5.238  15.524 -1.4419  0.4252  1.4264
   6723SM  H11G 8739   4.769   5.217  15.598  0.2158 -0.4661 -1.3994
   6723SM  C12F 8740   4.706   5.422  15.531 -0.1086  0.5294 -0.2629
   6723SM  H12F 8741   4.801   5.468  15.566 -0.2207  0.2948  0.3747
   6723SM  H12G 8742   4.629   5.496  15.561  0.3997  0.3760  1.5342
   6723SM  C13F 8743   4.706   5.421  15.377 -0.4823 -0.2969 -0.3783
   6723SM  H13F 8744   4.611   5.380  15.337 -0.6095 -0.0537 -0.3317
   6723SM  H13G 8745   4.798   5.369  15.343 -1.1006 -1.1334 -0.7808
   6723SM  C14F 8746   4.714   5.564  15.320  0.6128  0.0966  0.1060
   6723SM  H14F 8747   4.813   5.608  15.343  0.0937  0.2732  2.2609
   6723SM  H14G 8748   4.640   5.632  15.366 -0.9429 -2.3747  1.5198
   6723SM  C15F 8749   4.692   5.563  15.168  0.6475  0.6916 -0.3477
   6723SM  H15F 8750   4.605   5.499  15.143 -0.8748  1.6894  2.0468
   6723SM  H15G 8751   4.780   5.518  15.117  0.1988  0.9267 -1.3493
   6723SM  C16F 8752   4.658   5.700  15.105 -0.8416 -0.7191  0.4003
   6723SM  H16F 8753   4.717   5.782  15.152 -2.5868  1.9630 -1.7283
   6723SM  H16G 8754   4.556   5.738  15.129 -0.5671 -0.7263  1.6733
   6723SM  C17F 8755   4.680   5.699  14.955  0.4985 -0.3865  0.2049
   6723SM  H17F 8756   4.643   5.596  14.933  0.6942 -0.7558  1.5274
   6723SM  H17G 8757   4.786   5.706  14.924  0.4422 -1.6064 -0.3371
   6723SM  C18F 8758   4.575   5.780  14.878  0.4398  0.1438  0.6860
   6723SM  H18F 8759   4.599   5.888  14.895 -1.0616  0.2900  2.1630
   6723SM  H18G 8760   4.472   5.774  14.921 -1.1738 -0.5393 -2.9198
   6723SM  C19F 8761   4.567   5.736  14.734  0.5503 -0.4465  0.4920
   6723SM  H19F 8762   4.539   5.628  14.732 -2.5511  0.2658 -1.2871
   6723SM  H19G 8763   4.665   5.749  14.683 -0.6962  3.1679 -1.3466
   6723SM  C20F 8764   4.460   5.811  14.654  0.6093 -0.0933  0.7492
   6723SM  H20F 8765   4.468   5.920  14.675 -0.6367  0.6767 -2.3319
   6723SM  H20G 8766   4.359   5.785  14.691  0.4285 -0.4358  0.0244
   6723SM  C21F 8767   4.468   5.799  14.498  0.1346 -0.3975  0.2241
   6723SM  H21F 8768   4.370   5.816  14.449  0.2664 -0.5837 -0.1087
   6723SM  H21G 8769   4.519   5.705  14.469 -1.4064 -1.4205  0.7005
   6723SM  C22F 8770   4.566   5.914  14.441 -0.0839 -0.0444 -1.0044
   6723SM  H22F 8771   4.664   5.915  14.493 -0.3104  1.5264 -0.5409
   6723SM  H22G 8772   4.515   6.010  14.466 -1.6715 -0.9486 -0.6277
   6723SM  C23F 8773   4.590   5.902  14.288  0.4964  0.2903 -0.3679
   6723SM  H23F 8774   4.655   5.815  14.270 -0.6517 -0.4992 -0.8284
   6723SM  H23G 8775   4.628   6.003  14.263 -1.6821  1.2215 -0.1773
   6723SM  H23H 8776   4.489   5.896  14.241 -0.5375  0.4580  1.6867
   6823SM     N 8777   4.067   7.391  17.195 -0.4896  0.3982  0.1212
   6823SM   C15 8778   3.979   7.268  17.170 -0.3164  0.7539  0.0938
   6823SM  H15A 8779   3.879   7.286  17.134 -0.4414 -0.3287 -0.1224
   6823SM  H15B 8780   3.989   7.204  17.256  1.7425  0.4731 -0.3115
   6823SM  H15C 8781   4.022   7.214  17.087 -1.1313 -0.4015  0.3993
   6823SM   C14 8782   4.184   7.342  17.281  0.0683  0.8234 -0.2575
   6823SM  H14A 8783   4.150   7.302  17.375 -0.6185 -1.1193 -1.2784
   6823SM  H14B 8784   4.254   7.423  17.295  0.1062  0.5737  1.1671
   6823SM  H14C 8785   4.233   7.254  17.243 -2.4663 -1.9115  2.2863
   6823SM   C13 8786   4.110   7.440  17.066 -0.2888  0.0969  0.4157
   6823SM  H13A 8787   4.183   7.520  17.067 -0.4949  0.3773 -1.8051
   6823SM  H13B 8788   4.031   7.474  17.001 -0.7701 -1.9747 -0.1458
   6823SM  H13C 8789   4.155   7.359  17.010  3.5213  2.0041  0.4096
   6823SM   C12 8790   3.976   7.494  17.254  0.2913  0.2274  0.1565
   6823SM  H12A 8791   3.912   7.454  17.332  0.6409 -2.7353 -0.9561
   6823SM  H12B 8792   3.897   7.510  17.182 -0.6257  0.0796  1.1035
   6823SM   C11 8793   4.045   7.623  17.305  0.6233 -0.3296 -0.3558
   6823SM  H11A 8794   4.138   7.595  17.358  0.9266  1.9485  0.4615
   6823SM  H11B 8795   3.974   7.674  17.374  0.6401  0.8381 -1.1559
   6823SM     P 8796   4.168   7.832  17.225 -0.0404  0.0194  0.0282
   6823SM   O13 8797   4.132   7.895  17.359 -0.1224 -0.1145 -0.0545
   6823SM   O14 8798   4.307   7.780  17.221 -0.1302  0.1266  0.1914
   6823SM   O11 8799   4.141   7.931  17.104  0.3038  0.2562 -0.2111
   6823SM   O12 8800   4.072   7.708  17.197  0.0477 -0.5831  0.1487
   6823SM   C1S 8801   4.141   7.886  16.971 -0.7870  0.4026  0.2893
   6823SM   H1S 8802   4.048   7.828  16.954 -0.6847  0.4259 -0.3868
   6823SM   H1T 8803   4.231   7.823  16.954 -0.1616  0.8696  1.6972
   6823SM    NF 8804   4.121   7.954  16.739 -0.1732 -0.0717 -0.0708
   6823SM   HNF 8805   4.204   7.927  16.691  0.2829  0.6237  0.3121
   6823SM   C2S 8806   4.157   8.003  16.870 -0.0124  0.0779 -0.3695
   6823SM   H2S 8807   4.078   8.074  16.901  0.2314  0.1615  0.0710
   6823SM   C3S 8808   4.295   8.077  16.882  0.3866  0.2970 -0.4019
   6823SM   H3S 8809   4.379   8.011  16.852  0.5694  0.0965  0.4930
   6823SM    O3 8810   4.309   8.130  17.016 -0.2194  0.0960  0.5167
   6823SM   HO3 8811   4.242   8.085  17.068  0.7121 -1.0195  0.7807
   6823SM   C4S 8812   4.307   8.199  16.789  0.8147 -1.5911 -0.0686
   6823SM   H4S 8813   4.238   8.282  16.811  3.9050  0.8666  1.1777
   6823SM   C5S 8814   4.403   8.211  16.693 -0.5311 -1.1620 -0.8760
   6823SM   H5S 8815   4.478   8.132  16.677  0.5322 -0.2308 -0.5779
   6823SM   C6S 8816   4.417   8.340  16.615 -0.5280  0.3717  0.4577
   6823SM   H6S 8817   4.344   8.422  16.634  0.4267  1.8618 -1.8120
   6823SM   H6T 8818   4.418   8.315  16.507  1.0920 -0.9001  0.7213
   6823SM   C7S 8819   4.561   8.389  16.649 -0.4405 -0.8276 -0.1400
   6823SM   H7S 8820   4.638   8.321  16.608 -0.0354 -0.1618 -0.5058
   6823SM   H7T 8821   4.579   8.396  16.758  0.2805  0.6612 -0.3286
   6823SM   C8S 8822   4.583   8.536  16.605  0.1482 -0.6780 -0.5390
   6823SM   H8S 8823   4.689   8.556  16.634 -0.5815  1.8505  0.6867
   6823SM   H8T 8824   4.529   8.613  16.664 -0.0906  1.8108 -3.7259
   6823SM   C9S 8825   4.573   8.562  16.456  0.3104  0.7350  0.1665
   6823SM   H9S 8826   4.606   8.467  16.409 -1.3510 -1.2185  2.6199
   6823SM   H9T 8827   4.655   8.631  16.426 -0.9495  1.2398 -2.3716
   6823SM  C10S 8828   4.433   8.610  16.412 -0.0286  0.3600  0.4170
   6823SM  H10S 8829   4.401   8.707  16.455 -0.6636 -0.2069  1.2539
   6823SM  H10T 8830   4.365   8.529  16.449  0.1645  0.2428  0.5176
   6823SM  C11S 8831   4.428   8.626  16.260  0.1061  0.2861 -0.6565
   6823SM  H11S 8832   4.340   8.687  16.230  0.0700  0.5962  0.0714
   6823SM  H11T 8833   4.428   8.525  16.214 -0.4465 -1.2400  2.4142
   6823SM  C12S 8834   4.543   8.716  16.200  0.4589  0.2874  0.1011
   6823SM  H12S 8835   4.629   8.646  16.196 -0.4950 -0.9493  0.6600
   6823SM  H12T 8836   4.568   8.808  16.258  0.5955  0.4342 -0.1906
   6823SM  C13S 8837   4.508   8.754  16.051 -0.1404  0.5854 -0.5711
   6823SM  H13S 8838   4.438   8.840  16.049 -1.8257 -0.6817 -3.6133
   6823SM  H13T 8839   4.456   8.669  16.002  0.7491  0.2759 -0.9886
   6823SM  C14S 8840   4.630   8.790  15.964  0.8974  0.0798 -1.2616
   6823SM  H14S 8841   4.695   8.700  15.957  1.5350  0.2176  1.7808
   6823SM  H14T 8842   4.687   8.876  16.005  1.3879 -1.8208  2.4086
   6823SM  C15S 8843   4.588   8.819  15.820  0.3238 -0.1310  0.2204
   6823SM  H15S 8844   4.499   8.885  15.833 -0.0912 -0.9505  1.9354
   6823SM  H15T 8845   4.546   8.732  15.765 -3.7020  2.2709 -0.9636
   6823SM  C16S 8846   4.694   8.878  15.726 -0.3132 -1.3126  0.4136
   6823SM  H16S 8847   4.789   8.823  15.744  0.7009  0.6709  1.4001
   6823SM  H16T 8848   4.709   8.985  15.749 -0.8699 -0.6914 -1.8805
   6823SM  C17S 8849   4.654   8.864  15.579 -0.2449  0.2317  0.5595
   6823SM  H17S 8850   4.556   8.916  15.565  1.4776  3.1977 -1.5365
   6823SM  H17T 8851   4.632   8.757  15.557 -2.2989  0.7078  0.0618
   6823SM  C18S 8852   4.758   8.921  15.483 -0.6717 -0.8515 -0.3355
   6823SM  H18S 8853   4.771   9.030  15.504 -0.0981 -0.8474 -0.6729
   6823SM  H18T 8854   4.729   8.911  15.376 -0.4580 -2.3552 -0.2709
   6823SM  H18U 8855   4.855   8.867  15.494 -0.0007  0.0928 -1.3143
   6823SM   C1F 8856   3.993   7.915  16.712 -0.0828 -0.1618  0.2521
   6823SM    OF 8857   3.897   7.955  16.782  0.0217  0.2233 -0.2524
   6823SM   C2F 8858   3.974   7.840  16.592 -1.1856  0.5447  0.0416
   6823SM   H2F 8859   3.943   7.736  16.617 -0.6387  0.1001 -1.0467
   6823SM   H2G 8860   4.062   7.843  16.525 -1.2918  1.9052 -0.0736
   6823SM   C3F 8861   3.878   7.917  16.505  0.3630  0.3801  0.2525
   6823SM   H3F 8862   3.918   8.013  16.469 -0.2245 -0.1890 -2.0633
   6823SM   H3G 8863   3.787   7.939  16.565  1.5276  2.0787  1.4647
   6823SM   C4F 8864   3.835   7.845  16.379  0.0766  0.0115  0.2694
   6823SM   H4F 8865   3.918   7.826  16.309 -2.0962 -2.1290 -1.9219
   6823SM   H4G 8866   3.767   7.917  16.328 -1.8122 -0.7873  1.5191
   6823SM   C5F 8867   3.753   7.716  16.415 -0.2719 -0.7084 -0.3386
   6823SM   H5F 8868   3.680   7.755  16.488 -0.0945  1.2760 -1.1764
   6823SM   H5G 8869   3.819   7.648  16.473 -0.3636  0.2750  0.9719
   6823SM   C6F 8870   3.686   7.652  16.300 -0.1831  0.5672  0.9956
   6823SM   H6F 8871   3.622   7.726  16.248 -1.2849  0.5743  2.3046
   6823SM   H6G 8872   3.613   7.571  16.323 -0.3891  0.6261  0.5701
   6823SM   C7F 8873   3.785   7.588  16.197  0.5189 -0.2265 -0.4673
   6823SM   H7F 8874   3.846   7.514  16.252 -0.1702 -0.3314  0.1811
   6823SM   H7G 8875   3.850   7.670  16.158  0.5659  0.3144  0.6991
   6823SM   C8F 8876   3.706   7.523  16.081 -0.3805 -0.6571 -0.1955
   6823SM   H8F 8877   3.617   7.588  16.073 -2.0280 -2.5539  1.4941
   6823SM   H8G 8878   3.667   7.422  16.107 -1.3713  0.4361  3.0496
   6823SM   C9F 8879   3.776   7.517  15.943 -0.1939 -0.1924 -0.1083
   6823SM   H9F 8880   3.869   7.458  15.956 -0.0690  0.2756  1.3498
   6823SM   H9G 8881   3.803   7.622  15.921  2.4194 -0.7419  0.1266
   6823SM  C10F 8882   3.683   7.477  15.828  0.4469 -0.7485 -0.9251
   6823SM  H10F 8883   3.589   7.535  15.838 -0.1211 -1.6736 -0.7315
   6823SM  H10G 8884   3.660   7.368  15.833 -1.0152 -0.4221  0.2865
   6823SM  C11F 8885   3.743   7.519  15.692 -0.5803  0.7821  0.6309
   6823SM  H11F 8886   3.820   7.598  15.702 -0.7233  1.2973 -1.7876
   6823SM  H11G 8887   3.663   7.555  15.624 -0.8103  2.0077  1.5144
   6823SM  C12F 8888   3.821   7.400  15.627 -0.7590  0.8151 -0.7623
   6823SM  H12F 8889   3.752   7.314  15.629 -1.1158  1.0817 -1.2853
   6823SM  H12G 8890   3.910   7.378  15.690 -1.2781  0.3019 -0.2063
   6823SM  C13F 8891   3.888   7.407  15.487  0.2237  0.4458  0.2837
   6823SM  H13F 8892   3.981   7.346  15.481  0.5113  0.9950 -1.0671
   6823SM  H13G 8893   3.919   7.510  15.462 -0.6550  0.2803 -1.6597
   6823SM  C14F 8894   3.794   7.355  15.374  0.3614 -0.1279 -0.3786
   6823SM  H14F 8895   3.703   7.418  15.373 -0.1172 -0.8223 -0.7648
   6823SM  H14G 8896   3.755   7.256  15.406  2.1102 -0.7403  0.0243
   6823SM  C15F 8897   3.862   7.337  15.238 -0.3692  0.6168 -0.1395
   6823SM  H15F 8898   3.938   7.258  15.257  1.1898  2.1133  0.1438
   6823SM  H15G 8899   3.918   7.427  15.204  1.5671  0.2603  1.8678
   6823SM  C16F 8900   3.768   7.285  15.128  0.2288 -0.3494  0.2629
   6823SM  H16F 8901   3.703   7.374  15.116  1.3832  0.4653 -0.1771
   6823SM  H16G 8902   3.712   7.198  15.169 -1.0286 -0.0380 -0.7559
   6823SM  C17F 8903   3.833   7.249  15.006  0.2435 -0.0206  0.1133
   6823SM  H17F 8904   3.767   7.187  14.942  2.3680 -1.8684 -0.4190
   6823SM  H17G 8905   3.926   7.193  15.029 -0.6341 -1.5621  0.0454
   6823SM  C18F 8906   3.866   7.372  14.925 -0.7222 -0.8941 -0.1279
   6823SM  H18F 8907   3.954   7.423  14.970 -1.5017  0.4348 -0.0705
   6823SM  H18G 8908   3.787   7.449  14.923 -0.4126 -0.3556  3.0767
   6823SM  C19F 8909   3.893   7.335  14.778 -0.2174 -0.0556  0.0202
   6823SM  H19F 8910   3.810   7.284  14.723 -2.7606  2.5775  1.1364
   6823SM  H19G 8911   3.987   7.277  14.789 -1.5328 -2.0220  1.5184
   6823SM  C20F 8912   3.916   7.455  14.691 -0.2736 -0.0072  0.6781
   6823SM  H20F 8913   3.990   7.529  14.727 -0.6063  0.8271 -0.3202
   6823SM  H20G 8914   3.815   7.501  14.691 -0.9143 -1.3321  1.6811
   6823SM  C21F 8915   3.963   7.413  14.551  0.2067  0.1795 -0.7209
   6823SM  H21F 8916   3.881   7.352  14.509  1.4834 -2.5714  0.5542
   6823SM  H21G 8917   4.058   7.356  14.559  0.8524  0.9487 -2.4256
   6823SM  C22F 8918   3.984   7.528  14.465 -0.5426 -1.0159  0.4019
   6823SM  H22F 8919   4.048   7.594  14.528 -1.3072 -0.5423  0.6962
   6823SM  H22G 8920   3.893   7.586  14.439 -0.8104 -1.7488 -0.3252
   6823SM  C23F 8921   4.065   7.487  14.340  0.4144  0.3515  0.5707
   6823SM  H23F 8922   4.007   7.403  14.297  1.0124  0.5199 -0.5980
   6823SM  H23G 8923   4.166   7.452  14.371  1.0218  0.2550 -1.4141
   6823SM  H23H 8924   4.069   7.562  14.258  0.7841 -0.6897 -0.3972
   6923SM     N 8925   5.994   0.981  16.849 -0.5348  0.6557  0.1266
   6923SM   C15 8926   5.931   0.851  16.801 -0.1293 -0.5616  1.4768
   6923SM  H15A 8927   5.997   0.768  16.822  1.4212  0.3944  0.5398
   6923SM  H15B 8928   5.909   0.855  16.696 -1.7149 -0.3856  1.8022
   6923SM  H15C 8929   5.836   0.834  16.848 -2.0776  1.7222 -1.2735
   6923SM   C14 8930   6.018   0.965  16.997 -0.2168 -0.0528  0.0769
   6923SM  H14A 8931   5.928   0.953  17.055  0.2854 -0.1681  0.8628
   6923SM  H14B 8932   6.061   1.055  17.038 -0.4518  0.5347 -0.9442
   6923SM  H14C 8933   6.079   0.877  17.015  0.2545  0.2053 -0.2636
   6923SM   C13 8934   6.120   1.006  16.779  0.0801  0.1213 -0.2498
   6923SM  H13A 8935   6.177   0.915  16.768  0.2995  0.5230 -3.1822
   6923SM  H13B 8936   6.170   1.086  16.831 -1.6497  1.1096 -0.0202
   6923SM  H13C 8937   6.109   1.030  16.674 -0.9582  0.6541 -0.0324
   6923SM   C12 8938   5.902   1.093  16.824  1.2715 -0.3587  0.2234
   6923SM  H12A 8939   5.875   1.092  16.719  0.0833 -1.3925  0.5255
   6923SM  H12B 8940   5.945   1.191  16.840  0.0932  0.3443 -0.7808
   6923SM   C11 8941   5.772   1.098  16.905  0.5564 -0.3602  0.3983
   6923SM  H11A 8942   5.717   1.188  16.869  0.7615 -0.6951 -0.8002
   6923SM  H11B 8943   5.790   1.109  17.014 -0.9768 -3.4571  1.0709
   6923SM     P 8944   5.552   0.973  16.938  0.0654 -0.2604  0.1894
   6923SM   O13 8945   5.532   0.852  17.018  0.3998 -0.6696  0.6387
   6923SM   O14 8946   5.514   1.096  17.013  0.1105 -0.6976  0.2662
   6923SM   O11 8947   5.459   0.973  16.806  0.1987 -0.1130  0.1781
   6923SM   O12 8948   5.700   0.984  16.892  0.1391 -0.0021  0.6808
   6923SM   C1S 8949   5.515   0.926  16.683  0.4730  0.1976  0.1436
   6923SM   H1S 8950   5.511   0.815  16.684  0.2373  0.2033  0.0632
   6923SM   H1T 8951   5.619   0.961  16.667  0.2148  0.2643 -1.6032
   6923SM    NF 8952   5.492   0.931  16.444  0.3056  0.7413  0.5637
   6923SM   HNF 8953   5.551   0.983  16.384 -0.8961  1.3152 -0.1595
   6923SM   C2S 8954   5.439   0.990  16.567 -0.6277 -0.0877  0.4579
   6923SM   H2S 8955   5.331   0.966  16.576 -0.4293 -1.4022 -0.5253
   6923SM   C3S 8956   5.457   1.147  16.565  0.0851  0.5312  0.2140
   6923SM   H3S 8957   5.566   1.168  16.577 -0.0713  0.6513  1.5350
   6923SM    O3 8958   5.401   1.208  16.680  0.3543 -0.1268  0.1702
   6923SM   HO3 8959   5.412   1.129  16.733  1.3562 -1.9054 -2.4703
   6923SM   C4S 8960   5.402   1.213  16.439 -0.4793  0.1396  0.3116
   6923SM   H4S 8961   5.481   1.221  16.362 -2.3114  0.6950 -1.6004
   6923SM   C5S 8962   5.281   1.271  16.425 -0.2056  0.4420 -0.5381
   6923SM   H5S 8963   5.205   1.258  16.503  1.8124 -0.7884  1.3446
   6923SM   C6S 8964   5.240   1.338  16.300  0.0127 -0.2363  0.7726
   6923SM   H6S 8965   5.275   1.443  16.301  1.7471 -0.7767  0.8004
   6923SM   H6T 8966   5.130   1.354  16.296  0.2477  1.4428  0.3014
   6923SM   C7S 8967   5.296   1.274  16.177 -0.6975 -0.0046 -0.1793
   6923SM   H7S 8968   5.273   1.166  16.170 -1.8412  0.1833  0.5021
   6923SM   H7T 8969   5.406   1.287  16.179 -0.7814  0.6855  0.1794
   6923SM   C8S 8970   5.249   1.334  16.042  0.2146  0.0041 -0.1713
   6923SM   H8S 8971   5.307   1.428  16.033 -1.8105  1.3423 -0.0405
   6923SM   H8T 8972   5.139   1.354  16.047 -0.0500 -1.2043 -0.9039
   6923SM   C9S 8973   5.295   1.268  15.914 -0.1196  0.3640 -0.3313
   6923SM   H9S 8974   5.232   1.177  15.906  3.0965 -2.1293  0.4953
   6923SM   H9T 8975   5.401   1.235  15.921  0.3648  1.7009 -1.0157
   6923SM  C10S 8976   5.268   1.355  15.792  0.4638 -0.5791  0.6143
   6923SM  H10S 8977   5.314   1.454  15.811  1.8839 -1.1679  0.3471
   6923SM  H10T 8978   5.158   1.372  15.792  0.8135  2.2824 -0.9844
   6923SM  C11S 8979   5.312   1.301  15.662 -0.4283 -0.3236 -0.1354
   6923SM  H11S 8980   5.274   1.200  15.636  0.5491  0.1404 -4.0751
   6923SM  H11T 8981   5.422   1.286  15.668  0.0006  0.9632 -2.9957
   6923SM  C12S 8982   5.279   1.395  15.540 -0.3499 -0.2649  1.0144
   6923SM  H12S 8983   5.340   1.352  15.457 -1.2203  0.1351  0.1521
   6923SM  H12T 8984   5.309   1.500  15.558  1.7071 -0.3872 -1.1487
   6923SM  C13S 8985   5.135   1.381  15.489  0.4932  0.2069  0.1265
   6923SM  H13S 8986   5.056   1.427  15.552 -2.1317 -0.9715 -2.0754
   6923SM  H13T 8987   5.116   1.271  15.483 -0.4909  0.4454 -1.9607
   6923SM  C14S 8988   5.109   1.439  15.349 -0.1974 -0.6830  0.3867
   6923SM  H14S 8989   5.161   1.537  15.356  0.7578 -1.2881  2.9022
   6923SM  H14T 8990   5.001   1.449  15.324  0.2287  0.6786 -1.0749
   6923SM  C15S 8991   5.149   1.347  15.231  0.1210 -0.2014  0.3467
   6923SM  H15S 8992   5.090   1.254  15.238  1.2154 -0.8560  1.3245
   6923SM  H15T 8993   5.257   1.324  15.243  0.0481 -2.4070 -2.3567
   6923SM  C16S 8994   5.118   1.428  15.097  0.4178 -0.1489 -0.5636
   6923SM  H16S 8995   5.209   1.418  15.033  0.7017  0.6057 -0.2891
   6923SM  H16T 8996   5.125   1.536  15.121  1.6070 -0.0843 -1.0904
   6923SM  C17S 8997   4.987   1.399  15.028 -0.0961  0.5887 -0.0969
   6923SM  H17S 8998   4.999   1.466  14.940 -0.6635  0.5757 -0.1869
   6923SM  H17T 8999   4.897   1.436  15.081  0.4361  1.5942  0.1271
   6923SM  C18S 9000   4.966   1.249  14.980 -0.1089 -0.6999 -1.0584
   6923SM  H18S 9001   4.934   1.193  15.071 -0.6427  2.0416  0.5496
   6923SM  H18T 9002   5.060   1.212  14.935 -0.6312 -2.6254 -0.6790
   6923SM  H18U 9003   4.879   1.238  14.912  0.7238 -0.5099 -2.1612
   6923SM   C1F 9004   5.472   0.806  16.413  0.2139 -0.5767 -0.2835
   6923SM    OF 9005   5.395   0.741  16.483 -0.1128 -0.3300 -0.3589
   6923SM   C2F 9006   5.555   0.747  16.305 -0.3232  0.3980 -0.4870
   6923SM   H2F 9007   5.580   0.646  16.343  0.8693  0.4954 -0.9578
   6923SM   H2G 9008   5.655   0.794  16.293 -0.6446  0.6355 -2.5573
   6923SM   C3F 9009   5.475   0.730  16.173  0.0511  0.0899  0.5473
   6923SM   H3F 9010   5.380   0.675  16.191 -0.6377  0.0028 -2.6507
   6923SM   H3G 9011   5.523   0.656  16.105 -1.6267  0.0217 -0.6152
   6923SM   C4F 9012   5.466   0.861  16.095 -0.0926  0.5305  0.3455
   6923SM   H4F 9013   5.557   0.925  16.102 -0.5910  1.2472  0.4765
   6923SM   H4G 9014   5.384   0.921  16.141 -0.9823  1.0444 -1.7899
   6923SM   C5F 9015   5.432   0.841  15.948  0.5254  0.0082  0.2678
   6923SM   H5F 9016   5.415   0.945  15.913  0.2430  0.0696  0.5837
   6923SM   H5G 9017   5.343   0.780  15.921  1.4343 -2.2299  2.0455
   6923SM   C6F 9018   5.557   0.788  15.863 -0.0913 -0.1907 -0.7514
   6923SM   H6F 9019   5.592   0.684  15.885  4.6297  1.2011 -0.5721
   6923SM   H6G 9020   5.636   0.861  15.887 -1.2730  0.6833  0.6928
   6923SM   C7F 9021   5.538   0.784  15.705  0.0967  0.8658 -0.1818
   6923SM   H7F 9022   5.458   0.708  15.690 -0.1333  1.1875 -0.6117
   6923SM   H7G 9023   5.637   0.757  15.663  0.7693  1.3015  1.0927
   6923SM   C8F 9024   5.503   0.920  15.639 -0.5165  0.0467 -0.5436
   6923SM   H8F 9025   5.560   1.002  15.688 -0.9833  0.3494 -0.4974
   6923SM   H8G 9026   5.394   0.939  15.648 -0.2416  2.7671 -1.8415
   6923SM   C9F 9027   5.531   0.929  15.492  0.7274  0.1151  0.1007
   6923SM   H9F 9028   5.465   0.861  15.435  3.4437 -0.8195 -2.1814
   6923SM   H9G 9029   5.632   0.887  15.470  0.0358 -0.5812 -1.9792
   6923SM  C10F 9030   5.505   1.067  15.429  0.9003 -0.1878 -0.3037
   6923SM  H10F 9031   5.576   1.141  15.472  0.3669  0.2457 -0.1660
   6923SM  H10G 9032   5.400   1.097  15.445  1.3221  0.7579  0.8730
   6923SM  C11F 9033   5.517   1.069  15.280 -0.8707 -0.0569  0.3987
   6923SM  H11F 9034   5.424   1.028  15.234 -2.8721  2.5894  1.8114
   6923SM  H11G 9035   5.603   1.002  15.255 -0.2856 -0.0523  2.2538
   6923SM  C12F 9036   5.538   1.213  15.239 -0.2232  0.0454  0.9326
   6923SM  H12F 9037   5.642   1.242  15.264 -0.0615 -0.1267  0.4708
   6923SM  H12G 9038   5.460   1.271  15.294  0.0619 -1.0004  2.5310
   6923SM  C13F 9039   5.509   1.229  15.093 -0.3263  0.4353  0.4467
   6923SM  H13F 9040   5.532   1.336  15.072 -0.0528  0.7244  2.0749
   6923SM  H13G 9041   5.401   1.219  15.070 -0.1573 -0.2115 -0.1088
   6923SM  C14F 9042   5.593   1.133  15.003  0.4048 -0.3551 -0.0760
   6923SM  H14F 9043   5.571   1.030  15.036 -0.8250 -0.0139  0.2348
   6923SM  H14G 9044   5.700   1.155  15.021 -0.2041  1.4018  1.8571
   6923SM  C15F 9045   5.566   1.147  14.854 -0.2672  0.2762 -0.1750
   6923SM  H15F 9046   5.575   1.252  14.820  1.6293  0.2538  0.1166
   6923SM  H15G 9047   5.468   1.106  14.824  1.2337 -1.6181 -3.0163
   6923SM  C16F 9048   5.657   1.056  14.765 -0.4026 -0.1907  0.3261
   6923SM  H16F 9049   5.630   0.950  14.779  0.6729 -0.4505  0.5216
   6923SM  H16G 9050   5.767   1.067  14.777 -0.5653 -0.1800  1.9522
   6923SM  C17F 9051   5.628   1.097  14.623 -0.0791 -0.1461  0.0974
   6923SM  H17F 9052   5.673   1.196  14.600 -2.0385  0.8683  0.3958
   6923SM  H17G 9053   5.517   1.098  14.610  0.1111  0.3664 -1.7422
   6923SM  C18F 9054   5.677   0.993  14.528 -0.1234  0.7283  0.5203
   6923SM  H18F 9055   5.614   0.986  14.436  0.9827 -1.1457 -0.1574
   6923SM  H18G 9056   5.667   0.891  14.570 -0.2319  0.4881 -0.0698
   6923SM  C19F 9057   5.822   1.009  14.478  0.3484 -0.8555 -0.0897
   6923SM  H19F 9058   5.901   0.953  14.534  2.6481 -0.0026 -2.2918
   6923SM  H19G 9059   5.843   1.118  14.479 -1.4251 -0.4800  1.3094
   6923SM  C20F 9060   5.847   0.969  14.336 -0.0836 -0.9081  0.0483
   6923SM  H20F 9061   5.952   0.995  14.314 -0.1356 -0.7516 -0.0166
   6923SM  H20G 9062   5.775   1.031  14.277  0.6121 -0.0471  0.0906
   6923SM  C21F 9063   5.843   0.821  14.289 -0.3356 -0.1392 -0.2621
   6923SM  H21F 9064   5.755   0.771  14.337 -1.1311  1.6697  0.2638
   6923SM  H21G 9065   5.935   0.779  14.334  1.2101  0.8422 -2.3338
   6923SM  C22F 9066   5.859   0.793  14.137  0.6890 -0.5443 -0.6125
   6923SM  H22F 9067   5.897   0.690  14.119 -0.5206 -1.3039  0.8458
   6923SM  H22G 9068   5.946   0.853  14.104  0.4859 -0.1230 -0.3990
   6923SM  C23F 9069   5.730   0.806  14.057  0.1952 -0.2236  0.1679
   6923SM  H23F 9070   5.640   0.779  14.117 -0.2551 -1.8101 -1.1467
   6923SM  H23G 9071   5.740   0.742  13.967  0.9234 -1.2001  0.9186
   6923SM  H23H 9072   5.712   0.912  14.032 -1.2759 -0.5059 -0.0675
   7023SM     N 9073   5.576   0.054  17.270  0.5155 -0.3919 -0.0598
   7023SM   C15 9074   5.463  -0.029  17.315  0.8413  0.1218 -0.1728
   7023SM  H15A 9075   5.500  -0.120  17.360  0.8370  0.1127 -0.1868
   7023SM  H15B 9076   5.399  -0.071  17.239 -1.5568  1.2846  1.0808
   7023SM  H15C 9077   5.393   0.024  17.378 -0.4006 -1.2705 -0.3221
   7023SM   C14 9078   5.525   0.179  17.196  0.3628 -0.3482 -0.5053
   7023SM  H14A 9079   5.480   0.144  17.104 -0.1577 -0.5111 -0.1941
   7023SM  H14B 9080   5.607   0.246  17.176  0.3490  0.7743  2.7541
   7023SM  H14C 9081   5.459   0.237  17.259  1.1838  1.0981 -0.9329
   7023SM   C13 9082   5.664   0.108  17.381  0.2870 -0.5109  0.3519
   7023SM  H13A 9083   5.746   0.164  17.339  0.4832 -2.2094 -1.6773
   7023SM  H13B 9084   5.699   0.023  17.436 -2.6339 -1.5665  0.7859
   7023SM  H13C 9085   5.613   0.164  17.458  0.1159  0.1001 -0.1929
   7023SM   C12 9086   5.668  -0.019  17.175  0.7768  0.2745  0.1747
   7023SM  H12A 9087   5.680  -0.119  17.214  1.9747  0.4783  0.3564
   7023SM  H12B 9088   5.761   0.035  17.181  0.3508  0.9330  0.9835
   7023SM   C11 9089   5.636  -0.028  17.020  0.8989 -0.1036 -0.8871
   7023SM  H11A 9090   5.529  -0.050  17.003 -0.1430  2.5131  1.5325
   7023SM  H11B 9091   5.696  -0.112  16.980  0.2738  0.1946 -2.5243
   7023SM     P 9092   5.807   0.113  16.877  0.4862  0.5026  0.5445
   7023SM   O13 9093   5.809   0.254  16.825 -0.0900 -0.1321 -0.4931
   7023SM   O14 9094   5.923   0.071  16.959  0.4018  0.3420 -0.0594
   7023SM   O11 9095   5.787   0.014  16.754  0.4963 -0.3841  1.1368
   7023SM   O12 9096   5.679   0.093  16.958  0.8363 -0.4383 -0.4941
   7023SM   C1S 9097   5.674   0.020  16.665  0.4266  0.4423 -0.1847
   7023SM   H1S 9098   5.614   0.113  16.681 -1.9440 -1.0481 -0.0089
   7023SM   H1T 9099   5.602  -0.058  16.697  0.6059  0.6318  0.7213
   7023SM    NF 9100   5.599   0.027  16.423  0.6470 -0.0313  0.3598
   7023SM   HNF 9101   5.560  -0.034  16.355 -0.5222 -1.0194  1.8477
   7023SM   C2S 9102   5.708  -0.003  16.514  0.3929  0.0477 -0.1734
   7023SM   H2S 9103   5.794   0.065  16.501 -0.2291  0.8391 -0.2057
   7023SM   C3S 9104   5.764  -0.147  16.496  0.2863 -0.6727  0.0287
   7023SM   H3S 9105   5.683  -0.221  16.510 -2.0209  1.4482 -1.3094
   7023SM    O3 9106   5.865  -0.180  16.594  0.3477  0.0377  0.0807
   7023SM   HO3 9107   5.861  -0.111  16.659  3.0684 -1.0153  1.5510
   7023SM   C4S 9108   5.823  -0.169  16.361  0.2840 -0.0783 -0.0011
   7023SM   H4S 9109   5.910  -0.105  16.343  0.5369  0.0618  1.5564
   7023SM   C5S 9110   5.771  -0.246  16.265 -0.1102 -0.1409 -0.6720
   7023SM   H5S 9111   5.676  -0.300  16.278 -0.7417  0.8827 -0.8835
   7023SM   C6S 9112   5.838  -0.258  16.134 -0.4371 -0.6061 -0.3755
   7023SM   H6S 9113   5.888  -0.354  16.113  0.3820 -0.6989  1.7306
   7023SM   H6T 9114   5.924  -0.187  16.131 -0.2681 -0.7359  0.9766
   7023SM   C7S 9115   5.751  -0.204  16.017 -0.3615 -0.7533 -0.6143
   7023SM   H7S 9116   5.656  -0.262  16.013 -0.4956 -0.4813 -1.5866
   7023SM   H7T 9117   5.812  -0.223  15.926 -0.1652  1.3437 -0.9636
   7023SM   C8S 9118   5.723  -0.053  16.010 -0.2474  0.4465 -0.2316
   7023SM   H8S 9119   5.817   0.004  16.027  0.5141 -1.2179  1.5163
   7023SM   H8T 9120   5.653  -0.012  16.086  1.0684  0.7318  0.8616
   7023SM   C9S 9121   5.676  -0.007  15.869 -0.7244 -0.1424 -0.3639
   7023SM   H9S 9122   5.584  -0.066  15.845  1.0409 -3.0525 -0.4482
   7023SM   H9T 9123   5.764  -0.032  15.805 -0.5785  0.9021 -0.5833
   7023SM  C10S 9124   5.663   0.146  15.866  0.3699 -0.6978  0.4053
   7023SM  H10S 9125   5.758   0.197  15.894  0.7226 -2.1869  2.1134
   7023SM  H10T 9126   5.585   0.161  15.944 -1.6720 -0.8464 -1.5135
   7023SM  C11S 9127   5.608   0.217  15.740 -0.5091  0.0930  0.8886
   7023SM  H11S 9128   5.591   0.325  15.760  1.5909  1.0067 -1.7529
   7023SM  H11T 9129   5.512   0.167  15.712  0.1102  0.8161 -3.0695
   7023SM  C12S 9130   5.693   0.194  15.613  0.0980  0.7314 -0.0432
   7023SM  H12S 9131   5.672   0.096  15.564  0.2583  1.2538 -1.1920
   7023SM  H12T 9132   5.801   0.201  15.638 -0.4935  0.8654  2.7614
   7023SM  C13S 9133   5.661   0.293  15.497  0.3069 -0.4999 -0.1022
   7023SM  H13S 9134   5.676   0.396  15.536  2.7848 -0.9690  0.3693
   7023SM  H13T 9135   5.553   0.276  15.478  0.2938 -1.1911  0.5264
   7023SM  C14S 9136   5.731   0.270  15.364 -0.7421  0.7495 -0.1552
   7023SM  H14S 9137   5.670   0.300  15.276 -0.1417  0.4104 -0.6920
   7023SM  H14T 9138   5.751   0.162  15.352 -0.1168  1.0079 -1.5103
   7023SM  C15S 9139   5.866   0.339  15.350 -0.2671 -0.3838 -0.2652
   7023SM  H15S 9140   5.917   0.303  15.442  1.5647 -1.0409 -1.5017
   7023SM  H15T 9141   5.861   0.449  15.364 -0.3800 -0.3554 -0.5146
   7023SM  C16S 9142   5.943   0.299  15.225  0.1043  0.0991  0.7052
   7023SM  H16S 9143   5.931   0.189  15.213 -0.2947  0.0024  1.8629
   7023SM  H16T 9144   6.053   0.315  15.233  0.4758 -0.3879 -2.2629
   7023SM  C17S 9145   5.903   0.360  15.087  0.2885 -0.3117  0.8993
   7023SM  H17S 9146   5.796   0.335  15.075  0.9451 -2.8004 -0.4403
   7023SM  H17T 9147   5.954   0.327  14.994 -1.7650  0.4449 -0.5456
   7023SM  C18S 9148   5.911   0.514  15.085  0.0617  0.5589 -0.0351
   7023SM  H18S 9149   6.013   0.542  15.052  0.5807 -2.2982 -1.1740
   7023SM  H18T 9150   5.871   0.550  15.183  0.8980 -0.7957  0.8419
   7023SM  H18U 9151   5.839   0.553  15.011 -0.4648 -1.2693 -0.5497
   7023SM   C1F 9152   5.565   0.153  16.404 -0.0651 -0.3788 -0.3154
   7023SM    OF 9153   5.607   0.247  16.475 -0.1183 -0.4793 -0.5516
   7023SM   C2F 9154   5.476   0.176  16.279 -0.5334 -0.4264 -0.3583
   7023SM   H2F 9155   5.441   0.080  16.234 -2.2275 -1.4708  2.8220
   7023SM   H2G 9156   5.543   0.226  16.206 -2.4345  0.7393 -1.3702
   7023SM   C3F 9157   5.353   0.255  16.310 -0.0475  0.2872 -0.3035
   7023SM   H3F 9158   5.389   0.360  16.317  1.1991 -0.2009  1.1270
   7023SM   H3G 9159   5.300   0.235  16.405 -1.0503  2.8783 -0.2355
   7023SM   C4F 9160   5.230   0.236  16.215 -0.2711 -0.6850  0.2390
   7023SM   H4F 9161   5.140   0.285  16.259  0.0132 -0.6646  0.8099
   7023SM   H4G 9162   5.205   0.130  16.193 -0.4543 -0.8333  1.1140
   7023SM   C5F 9163   5.263   0.304  16.076  0.2854 -0.0008  0.3810
   7023SM   H5F 9164   5.342   0.246  16.024 -1.4264 -1.5488 -0.6319
   7023SM   H5G 9165   5.301   0.406  16.098  2.5536 -0.6138 -0.3735
   7023SM   C6F 9166   5.137   0.306  15.998 -0.1399  0.2364  0.1499
   7023SM   H6F 9167   5.045   0.319  16.059 -0.2727  0.5576 -0.1163
   7023SM   H6G 9168   5.130   0.204  15.953  1.9009  0.5952 -1.1553
   7023SM   C7F 9169   5.124   0.391  15.876 -0.2141 -0.7390  0.4065
   7023SM   H7F 9170   5.114   0.493  15.921 -0.1171 -0.1810 -0.7858
   7023SM   H7G 9171   5.026   0.371  15.828 -0.8379 -0.2002  1.4240
   7023SM   C8F 9172   5.232   0.388  15.775  0.1192  0.3528  0.3574
   7023SM   H8F 9173   5.262   0.284  15.749  0.2037  0.2850  0.7136
   7023SM   H8G 9174   5.325   0.433  15.815 -0.9542  1.4106  1.7649
   7023SM   C9F 9175   5.200   0.468  15.646  0.5758 -0.1491 -0.5167
   7023SM   H9F 9176   5.184   0.576  15.668  1.0827 -0.1608 -0.0467
   7023SM   H9G 9177   5.112   0.429  15.590 -0.3595  2.4808 -1.0157
   7023SM  C10F 9178   5.321   0.454  15.557  0.4088 -0.4718 -0.2602
   7023SM  H10F 9179   5.353   0.348  15.547  1.2005 -0.0565 -2.9989
   7023SM  H10G 9180   5.401   0.508  15.613 -0.5517  1.4514 -0.6397
   7023SM  C11F 9181   5.310   0.519  15.423  0.1422  0.8443  0.5658
   7023SM  H11F 9182   5.314   0.630  15.432 -0.0908  1.0765 -1.4898
   7023SM  H11G 9183   5.211   0.498  15.376  0.5141  0.7763 -0.2177
   7023SM  C12F 9184   5.413   0.473  15.327 -0.7695  0.7259  0.6632
   7023SM  H12F 9185   5.397   0.368  15.297  0.2974  1.4508 -2.8232
   7023SM  H12G 9186   5.512   0.471  15.379 -1.1398 -0.8891  1.3628
   7023SM  C13F 9187   5.415   0.557  15.200 -0.4261 -0.0301  0.8371
   7023SM  H13F 9188   5.387   0.659  15.235  1.3405  1.2209 -1.1305
   7023SM  H13G 9189   5.327   0.526  15.140 -1.4927  1.5180  1.5318
   7023SM  C14F 9190   5.544   0.571  15.107  0.6119 -0.0089 -0.6882
   7023SM  H14F 9191   5.567   0.467  15.077 -3.1783 -1.0194 -0.6499
   7023SM  H14G 9192   5.626   0.611  15.171  0.8821 -1.7874  0.1105
   7023SM  C15F 9193   5.517   0.670  14.992 -0.5421  0.9513 -0.0637
   7023SM  H15F 9194   5.615   0.671  14.939 -1.9291  1.7613 -2.7811
   7023SM  H15G 9195   5.506   0.777  15.016  0.6885  1.2865 -0.8796
   7023SM  C16F 9196   5.411   0.636  14.884 -0.1051 -0.2731  0.4783
   7023SM  H16F 9197   5.313   0.612  14.931 -0.8430  0.9118 -0.3699
   7023SM  H16G 9198   5.452   0.546  14.833  1.0851 -0.1212  1.1424
   7023SM  C17F 9199   5.388   0.754  14.790 -0.5147  0.4332  0.3411
   7023SM  H17F 9200   5.483   0.775  14.737  0.8643 -2.1791  1.5559
   7023SM  H17G 9201   5.371   0.842  14.856  2.6150  1.0041  0.5372
   7023SM  C18F 9202   5.269   0.739  14.696  0.0942 -0.0789  0.1216
   7023SM  H18F 9203   5.234   0.841  14.668 -0.0182  0.4784  2.1050
   7023SM  H18G 9204   5.190   0.693  14.760 -0.4043 -0.5897 -0.8428
   7023SM  C19F 9205   5.295   0.645  14.577 -0.1648 -0.3403  0.5693
   7023SM  H19F 9206   5.195   0.620  14.535 -0.1070  1.1940 -0.5505
   7023SM  H19G 9207   5.337   0.552  14.622 -0.6933 -0.7159  0.3036
   7023SM  C20F 9208   5.405   0.693  14.484  0.4037 -0.2335 -0.1979
   7023SM  H20F 9209   5.493   0.689  14.552 -1.5425  0.8043  2.5770
   7023SM  H20G 9210   5.381   0.796  14.448 -1.7013  0.1055  1.8859
   7023SM  C21F 9211   5.423   0.617  14.360 -0.5686  0.9675 -0.1747
   7023SM  H21F 9212   5.512   0.660  14.309 -0.4481 -0.3832 -1.1856
   7023SM  H21G 9213   5.336   0.625  14.291 -0.2227 -3.5703 -1.4638
   7023SM  C22F 9214   5.435   0.464  14.390  0.5035 -0.4303  0.4392
   7023SM  H22F 9215   5.343   0.435  14.445  0.7513  0.8598  1.5733
   7023SM  H22G 9216   5.525   0.451  14.454 -0.3306  0.5280  1.8469
   7023SM  C23F 9217   5.448   0.381  14.264 -0.1304 -0.2514  0.0488
   7023SM  H23F 9218   5.495   0.284  14.290 -2.0333 -1.7545 -1.7477
   7023SM  H23G 9219   5.527   0.417  14.194  0.2365 -0.8212  0.1651
   7023SM  H23H 9220   5.352   0.355  14.215 -0.0075 -1.4137  0.4062
   7123SM     N 9221   5.629   5.408  17.604 -0.1820 -0.1506  0.1611
   7123SM   C15 9222   5.519   5.324  17.554  0.1909  0.3108 -0.2288
   7123SM  H15A 9223   5.551   5.246  17.486  1.5804 -1.0353  1.8324
   7123SM  H15B 9224   5.460   5.385  17.488  1.0231  0.6711 -0.6460
   7123SM  H15C 9225   5.459   5.292  17.638 -0.0011 -2.9365 -1.4403
   7123SM   C14 9226   5.576   5.537  17.663  0.4421  0.2627  0.5895
   7123SM  H14A 9227   5.528   5.595  17.585 -0.1375 -1.8998 -0.7511
   7123SM  H14B 9228   5.659   5.602  17.688 -0.1629  2.9679 -3.5611
   7123SM  H14C 9229   5.507   5.514  17.742 -0.2965  0.4934  0.0170
   7123SM   C13 9230   5.692   5.326  17.713 -0.2247 -0.7861 -0.0429
   7123SM  H13A 9231   5.768   5.268  17.662  0.4912  1.8007 -2.1927
   7123SM  H13B 9232   5.628   5.261  17.769 -1.1715 -0.3345 -0.5821
   7123SM  H13C 9233   5.739   5.395  17.782 -2.0505  0.1806  0.3022
   7123SM   C12 9234   5.731   5.443  17.493 -0.0451 -0.2494  0.1508
   7123SM  H12A 9235   5.757   5.347  17.450 -0.7745 -1.6767  2.6881
   7123SM  H12B 9236   5.823   5.476  17.538  0.6625 -2.3910  0.4143
   7123SM   C11 9237   5.686   5.543  17.386 -0.5104  0.2104  0.5846
   7123SM  H11A 9238   5.767   5.573  17.316  0.4850 -0.7384  1.2956
   7123SM  H11B 9239   5.656   5.640  17.430  0.5699  0.1844  1.4213
   7123SM     P 9240   5.616   5.365  17.207 -0.3158 -0.4615 -0.1165
   7123SM   O13 9241   5.692   5.265  17.282  0.2419 -0.3693  0.2044
   7123SM   O14 9242   5.488   5.334  17.131  0.1949 -0.3780 -0.7019
   7123SM   O11 9243   5.729   5.427  17.112  0.9474  0.1298  0.3490
   7123SM   O12 9244   5.577   5.487  17.305  0.1765 -0.1787  0.5446
   7123SM   C1S 9245   5.691   5.442  16.973  0.3880  0.0242 -0.2690
   7123SM   H1S 9246   5.601   5.507  16.969  2.2989  2.7813 -2.6751
   7123SM   H1T 9247   5.666   5.347  16.922 -0.3661  0.8879 -1.5638
   7123SM    NF 9248   5.742   5.528  16.738 -0.3003 -0.4649 -0.0929
   7123SM   HNF 9249   5.798   5.472  16.678  0.0335 -1.3026  0.9930
   7123SM   C2S 9250   5.790   5.522  16.877 -0.5616 -0.4748  0.0736
   7123SM   H2S 9251   5.785   5.628  16.908  0.0851 -0.6278  0.7377
   7123SM   C3S 9252   5.936   5.475  16.893 -0.0254  0.8507  0.0510
   7123SM   H3S 9253   5.946   5.373  16.849 -2.5531 -0.8373  3.0071
   7123SM    O3 9254   5.976   5.447  17.028 -0.6352  0.5808 -0.2606
   7123SM   HO3 9255   5.899   5.477  17.077 -1.4955  1.4178 -2.0597
   7123SM   C4S 9256   6.029   5.573  16.816 -0.4873  0.5535 -0.2946
   7123SM   H4S 9257   6.069   5.530  16.723 -1.9137 -1.5179 -0.0259
   7123SM   C5S 9258   6.059   5.698  16.859 -0.2091 -0.3595  1.1816
   7123SM   H5S 9259   6.017   5.732  16.954 -0.5679  0.4954  0.7286
   7123SM   C6S 9260   6.125   5.797  16.761  0.1574  0.1730  0.2313
   7123SM   H6S 9261   6.226   5.822  16.802 -0.7437  0.3476  2.4738
   7123SM   H6T 9262   6.076   5.895  16.776 -0.0612 -0.0719  1.2073
   7123SM   C7S 9263   6.130   5.781  16.610  0.0459  0.5238  0.9772
   7123SM   H7S 9264   6.185   5.690  16.579 -3.4618 -1.4109  0.0137
   7123SM   H7T 9265   6.187   5.862  16.560  0.5463 -0.6123 -0.3377
   7123SM   C8S 9266   5.988   5.761  16.541 -0.8643  0.1350  0.0660
   7123SM   H8S 9267   5.928   5.852  16.563  0.5155  0.8067  1.2481
   7123SM   H8T 9268   5.945   5.666  16.580  1.9333 -1.5399 -0.6056
   7123SM   C9S 9269   6.003   5.735  16.391  0.0955 -0.0027 -0.1609
   7123SM   H9S 9270   6.067   5.647  16.369  2.6303  1.3540  1.3314
   7123SM   H9T 9271   6.063   5.820  16.354  1.6669 -0.3130  1.5289
   7123SM  C10S 9272   5.873   5.725  16.307 -0.3732 -0.7306  0.0137
   7123SM  H10S 9273   5.808   5.811  16.335 -1.6647 -2.0087  1.0822
   7123SM  H10T 9274   5.827   5.629  16.338 -2.1755  0.0300 -0.2194
   7123SM  C11S 9275   5.899   5.710  16.159  0.0266  0.0048  0.3645
   7123SM  H11S 9276   5.929   5.603  16.148  1.3479  0.2825  1.0270
   7123SM  H11T 9277   5.992   5.762  16.128 -0.2125  1.2485  1.6431
   7123SM  C12S 9278   5.771   5.742  16.075  0.5988  0.2682  0.5431
   7123SM  H12S 9279   5.743   5.846  16.049 -1.3409  0.0304  1.4485
   7123SM  H12T 9280   5.684   5.701  16.131 -0.8792  1.5303 -0.7291
   7123SM  C13S 9281   5.785   5.661  15.941  0.5972 -0.1797 -0.2651
   7123SM  H13S 9282   5.823   5.560  15.967  3.2440  0.5683 -0.9059
   7123SM  H13T 9283   5.869   5.702  15.880  0.3334  3.7337  1.7044
   7123SM  C14S 9284   5.656   5.636  15.863 -0.5259  0.1790  0.4843
   7123SM  H14S 9285   5.605   5.732  15.839  1.0833  1.0096  0.2399
   7123SM  H14T 9286   5.585   5.579  15.926  0.1583 -3.9559 -2.0916
   7123SM  C15S 9287   5.680   5.545  15.744  0.2238 -0.2479 -0.0162
   7123SM  H15S 9288   5.677   5.443  15.788 -0.9931 -0.6176 -0.8969
   7123SM  H15T 9289   5.782   5.551  15.700  0.1231 -0.2767 -0.2588
   7123SM  C16S 9290   5.570   5.579  15.648  0.9670 -0.3287  1.1604
   7123SM  H16S 9291   5.591   5.677  15.601  0.5069 -0.7690  0.0042
   7123SM  H16T 9292   5.467   5.592  15.690 -0.3199  3.2207 -2.4591
   7123SM  C17S 9293   5.555   5.479  15.536  0.0394  0.3747 -0.0243
   7123SM  H17S 9294   5.540   5.378  15.578  2.0130  0.0682  0.0665
   7123SM  H17T 9295   5.655   5.478  15.487  0.0658  0.4131  0.0293
   7123SM  C18S 9296   5.455   5.526  15.433 -0.0713  0.7602 -0.1744
   7123SM  H18S 9297   5.357   5.502  15.478  0.0501  1.7513  0.6639
   7123SM  H18T 9298   5.484   5.473  15.340  0.1809 -0.3789  0.5311
   7123SM  H18U 9299   5.466   5.634  15.408 -0.7669  0.4978 -1.7635
   7123SM   C1F 9300   5.620   5.572  16.705 -0.2555  0.7850 -0.1789
   7123SM    OF 9301   5.582   5.676  16.763  0.3289  0.0559  0.3033
   7123SM   C2F 9302   5.557   5.514  16.589 -0.4920  0.2406 -0.1396
   7123SM   H2F 9303   5.515   5.415  16.618 -1.7727  1.3494  2.1136
   7123SM   H2G 9304   5.635   5.499  16.512  0.1271  0.0651  0.5159
   7123SM   C3F 9305   5.440   5.602  16.547 -0.0861 -0.0312  0.2866
   7123SM   H3F 9306   5.470   5.707  16.528  0.2683  0.2261  2.0202
   7123SM   H3G 9307   5.367   5.617  16.630  1.4308  1.5656  1.3966
   7123SM   C4F 9308   5.361   5.563  16.418  0.4787  0.8484 -0.3487
   7123SM   H4F 9309   5.303   5.649  16.378 -1.2571 -0.0821  0.0678
   7123SM   H4G 9310   5.282   5.490  16.446  0.6129  1.2410  1.1468
   7123SM   C5F 9311   5.444   5.491  16.311 -0.0972  0.6331 -0.1857
   7123SM   H5F 9312   5.455   5.383  16.332  0.4206  0.9136  1.1099
   7123SM   H5G 9313   5.547   5.532  16.303  0.5719 -1.1015 -0.8993
   7123SM   C6F 9314   5.388   5.506  16.170  0.5470  0.2836 -0.2197
   7123SM   H6F 9315   5.448   5.453  16.093  0.9293  0.5682 -0.1242
   7123SM   H6G 9316   5.384   5.615  16.148 -1.3275  0.7770  2.1232
   7123SM   C7F 9317   5.236   5.466  16.162  0.2671  0.3627  0.3240
   7123SM   H7F 9318   5.173   5.528  16.229  0.3063  1.6563 -0.7858
   7123SM   H7G 9319   5.211   5.362  16.192 -3.9997  1.7896  2.4440
   7123SM   C8F 9320   5.180   5.495  16.025  0.8023  0.3133  0.7386
   7123SM   H8F 9321   5.196   5.599  15.990  1.3682 -0.0101  0.0089
   7123SM   H8G 9322   5.070   5.479  16.029  0.7854  0.6557  2.5126
   7123SM   C9F 9323   5.231   5.398  15.916 -0.1732  0.0282  0.4196
   7123SM   H9F 9324   5.241   5.291  15.946 -0.4578  0.5557  2.5047
   7123SM   H9G 9325   5.333   5.439  15.898 -0.4214  1.3786  1.9157
   7123SM  C10F 9326   5.144   5.411  15.788  0.5324  0.0591 -0.1254
   7123SM  H10F 9327   5.161   5.515  15.753  1.3899 -0.1177 -0.2545
   7123SM  H10G 9328   5.036   5.394  15.808  0.6819 -0.0671  0.5855
   7123SM  C11F 9329   5.189   5.325  15.668 -0.4883 -0.5318 -0.9685
   7123SM  H11F 9330   5.175   5.218  15.698 -0.3617 -1.0076 -2.5040
   7123SM  H11G 9331   5.297   5.338  15.647 -0.8165 -0.8545 -3.2115
   7123SM  C12F 9332   5.103   5.357  15.544 -0.4750  0.4804  0.1560
   7123SM  H12F 9333   5.124   5.461  15.511 -2.9912  0.5179 -1.6154
   7123SM  H12G 9334   4.997   5.357  15.576 -1.5584  1.8147 -3.0182
   7123SM  C13F 9335   5.152   5.272  15.432  0.8023 -0.2401  0.6792
   7123SM  H13F 9336   5.167   5.167  15.464  0.6943  0.0066  1.5625
   7123SM  H13G 9337   5.255   5.302  15.401  0.8438 -2.3088 -1.5388
   7123SM  C14F 9338   5.053   5.269  15.312  0.2062  0.3573  0.5676
   7123SM  H14F 9339   5.036   5.373  15.279 -1.1188  0.3627  1.1945
   7123SM  H14G 9340   4.958   5.224  15.347 -0.1539 -2.1195 -3.0336
   7123SM  C15F 9341   5.088   5.185  15.187  0.1547 -0.0760 -0.5268
   7123SM  H15F 9342   5.064   5.080  15.217 -2.4376  0.9183  1.3448
   7123SM  H15G 9343   5.194   5.191  15.155 -0.1318  0.8359 -1.3627
   7123SM  C16F 9344   4.993   5.213  15.065 -0.1841  0.3107  0.0109
   7123SM  H16F 9345   5.041   5.158  14.981 -1.2301 -0.6144  0.0023
   7123SM  H16G 9346   5.004   5.320  15.038  2.0934  0.0863 -0.1516
   7123SM  C17F 9347   4.847   5.171  15.088  0.4799 -0.3246 -0.7997
   7123SM  H17F 9348   4.784   5.243  15.145  0.0066 -0.4355 -1.1734
   7123SM  H17G 9349   4.846   5.081  15.153  3.6941 -0.2962 -0.5511
   7123SM  C18F 9350   4.764   5.140  14.965 -0.1052 -0.4243 -0.7213
   7123SM  H18F 9351   4.656   5.112  14.967 -0.3191  0.1172 -2.5625
   7123SM  H18G 9352   4.820   5.052  14.926 -0.8652 -0.4685 -1.7718
   7123SM  C19F 9353   4.770   5.255  14.858 -0.9181  0.3540 -0.2645
   7123SM  H19F 9354   4.877   5.265  14.833 -0.6985 -1.3305 -0.1291
   7123SM  H19G 9355   4.726   5.344  14.907 -0.5906 -1.0402  2.7657
   7123SM  C20F 9356   4.700   5.224  14.727 -0.3436  0.1647  0.3570
   7123SM  H20F 9357   4.590   5.223  14.744 -0.7387  3.6659 -1.1119
   7123SM  H20G 9358   4.747   5.131  14.690  1.2945 -0.3475  3.3561
   7123SM  C21F 9359   4.729   5.336  14.623  0.7077  0.0398 -0.8138
   7123SM  H21F 9360   4.839   5.355  14.625  0.6582  0.5373  2.1779
   7123SM  H21G 9361   4.672   5.427  14.649 -1.1901 -1.2152 -0.3356
   7123SM  C22F 9362   4.693   5.280  14.480  0.2773  0.6973 -0.4362
   7123SM  H22F 9363   4.584   5.260  14.477  0.5174 -1.0573  0.9011
   7123SM  H22G 9364   4.745   5.181  14.479  1.3678  1.0587  3.4989
   7123SM  C23F 9365   4.740   5.367  14.357 -0.1172  0.1558 -0.8567
   7123SM  H23F 9366   4.849   5.392  14.365 -0.5091  1.3688  2.4413
   7123SM  H23G 9367   4.687   5.462  14.379 -1.0931 -0.6148  0.2410
   7123SM  H23H 9368   4.720   5.328  14.256  1.2982 -0.7361 -0.8216
   7223SM     N 9369   7.317   2.196  16.747 -0.4199 -0.2360  0.5774
   7223SM   C15 9370   7.399   2.181  16.870 -0.2578  0.6113 -0.7717
   7223SM  H15A 9371   7.349   2.119  16.943 -1.2381 -0.8019 -2.5624
   7223SM  H15B 9372   7.411   2.278  16.917 -1.4413  0.8271 -0.8670
   7223SM  H15C 9373   7.490   2.126  16.852  1.3070  2.1693  1.7453
   7223SM   C14 9374   7.189   2.264  16.784  0.1457  0.8094 -0.0070
   7223SM  H14A 9375   7.134   2.282  16.692  0.7012 -0.2713 -0.5645
   7223SM  H14B 9376   7.204   2.362  16.826  0.7000  0.7973 -0.1668
   7223SM  H14C 9377   7.138   2.204  16.858  1.3871 -0.5314 -0.1848
   7223SM   C13 9378   7.381   2.295  16.655 -0.4105 -0.2905 -0.6445
   7223SM  H13A 9379   7.465   2.243  16.611 -0.1113  0.3010 -0.7904
   7223SM  H13B 9380   7.424   2.373  16.716 -1.8520  1.0394 -1.2547
   7223SM  H13C 9381   7.313   2.352  16.593 -1.1979 -0.3139  0.1871
   7223SM   C12 9382   7.295   2.064  16.677  0.5449  0.1613  0.3345
   7223SM  H12A 9383   7.387   2.018  16.644  0.4178 -1.7627  2.3753
   7223SM  H12B 9384   7.223   2.082  16.599  0.3177  1.4666  0.8135
   7223SM   C11 9385   7.237   1.951  16.775  0.0222  0.5119  0.5992
   7223SM  H11A 9386   7.200   1.872  16.706  2.1264  0.4152 -0.4976
   7223SM  H11B 9387   7.146   1.991  16.824  0.6651  3.1060 -0.1442
   7223SM     P 9388   7.410   1.774  16.850  0.2468  0.4702  0.2605
   7223SM   O13 9389   7.539   1.777  16.926  0.4373  0.1318 -0.0648
   7223SM   O14 9390   7.318   1.659  16.873  0.1903 -0.3095 -0.2740
   7223SM   O11 9391   7.438   1.777  16.687  0.4650  0.2938 -0.1760
   7223SM   O12 9392   7.329   1.902  16.871  0.5901  0.3725  0.1712
   7223SM   C1S 9393   7.552   1.712  16.632  0.5705 -0.4519 -0.1925
   7223SM   H1S 9394   7.600   1.646  16.708  1.0448  0.9791  0.7915
   7223SM   H1T 9395   7.624   1.796  16.622 -2.9594  2.7125 -1.2506
   7223SM    NF 9396   7.595   1.531  16.456 -0.1546  0.2413 -0.1312
   7223SM   HNF 9397   7.659   1.557  16.384 -0.1378 -0.0673 -0.2320
   7223SM   C2S 9398   7.514   1.648  16.494 -0.3200 -0.3668 -0.4125
   7223SM   H2S 9399   7.409   1.611  16.505 -0.8809  0.9325 -1.1826
   7223SM   C3S 9400   7.489   1.757  16.383  0.2358 -0.5912  1.0526
   7223SM   H3S 9401   7.585   1.809  16.362  0.3779 -0.6793  1.4561
   7223SM    O3 9402   7.404   1.862  16.427  0.4075  0.1492  0.0882
   7223SM   HO3 9403   7.394   1.840  16.520  0.9694  0.7507  0.2960
   7223SM   C4S 9404   7.437   1.699  16.254  0.1156  0.0867  0.0303
   7223SM   H4S 9405   7.507   1.693  16.169  2.1503 -0.5294  1.6559
   7223SM   C5S 9406   7.304   1.662  16.239  0.0420  0.2583 -0.4769
   7223SM   H5S 9407   7.235   1.680  16.323  1.1076  0.5848  0.3462
   7223SM   C6S 9408   7.242   1.614  16.113 -0.4965 -0.3853 -0.1736
   7223SM   H6S 9409   7.177   1.693  16.070  0.6158  0.3189 -0.6321
   7223SM   H6T 9410   7.188   1.518  16.128  0.6485 -0.8460  1.3629
   7223SM   C7S 9411   7.345   1.592  15.995  0.1015 -0.0756 -0.0224
   7223SM   H7S 9412   7.411   1.506  16.017 -1.0714 -0.9017  0.3761
   7223SM   H7T 9413   7.403   1.684  15.978  1.1828 -0.9148 -0.9747
   7223SM   C8S 9414   7.270   1.567  15.867 -0.4438  0.0258 -0.8842
   7223SM   H8S 9415   7.202   1.652  15.843  0.5337  1.3454  0.8068
   7223SM   H8T 9416   7.201   1.484  15.893 -2.0019  1.1448 -1.3212
   7223SM   C9S 9417   7.352   1.539  15.741  0.1010 -0.3257 -0.4118
   7223SM   H9S 9418   7.412   1.446  15.749  0.2174 -0.1138  2.4526
   7223SM   H9T 9419   7.421   1.626  15.730 -0.7007  0.2909 -0.6778
   7223SM  C10S 9420   7.261   1.527  15.614 -0.1251 -0.8339  0.4223
   7223SM  H10S 9421   7.178   1.600  15.622 -0.5501 -1.2203 -0.3647
   7223SM  H10T 9422   7.211   1.428  15.607 -0.6703 -0.5083 -0.3752
   7223SM  C11S 9423   7.343   1.565  15.487 -0.1843 -0.1037 -0.7056
   7223SM  H11S 9424   7.435   1.503  15.484  2.1946  3.1358 -0.2732
   7223SM  H11T 9425   7.389   1.664  15.510  2.1590 -1.2164 -0.3087
   7223SM  C12S 9426   7.265   1.566  15.355  1.0248  0.3714  0.1447
   7223SM  H12S 9427   7.318   1.640  15.291  0.0535 -0.1707 -1.3359
   7223SM  H12T 9428   7.163   1.599  15.382  0.3046 -0.9583 -0.8401
   7223SM  C13S 9429   7.252   1.432  15.280 -0.3116  0.3336  0.0997
   7223SM  H13S 9430   7.189   1.365  15.342 -1.4092 -0.5467 -1.8581
   7223SM  H13T 9431   7.351   1.384  15.262 -0.0386  0.6758  0.6721
   7223SM  C14S 9432   7.191   1.433  15.138  0.9250  0.0926  0.4782
   7223SM  H14S 9433   7.251   1.498  15.071  1.3396  0.2291  0.9762
   7223SM  H14T 9434   7.091   1.481  15.136  0.7843 -0.1914  0.6397
   7223SM  C15S 9435   7.162   1.286  15.078 -0.6093 -0.4135 -1.4925
   7223SM  H15S 9436   7.095   1.245  15.157  0.3406 -0.7748 -0.8599
   7223SM  H15T 9437   7.257   1.230  15.067  1.0557  2.2633 -1.4581
   7223SM  C16S 9438   7.086   1.286  14.944  0.6601  0.0173 -0.5427
   7223SM  H16S 9439   6.979   1.314  14.956  0.8167  1.3139 -1.9951
   7223SM  H16T 9440   7.087   1.185  14.897  2.3248  0.2892 -1.1515
   7223SM  C17S 9441   7.147   1.375  14.843 -0.5403  0.1826  0.6556
   7223SM  H17S 9442   7.258   1.379  14.841 -0.5783  0.7777 -0.5263
   7223SM  H17T 9443   7.127   1.480  14.874 -2.1380 -0.5491  2.3441
   7223SM  C18S 9444   7.091   1.356  14.709 -0.1360 -0.6158  0.3629
   7223SM  H18S 9445   7.112   1.257  14.662  3.6998  0.5787 -0.8256
   7223SM  H18T 9446   7.138   1.417  14.628  0.9811 -2.6525 -0.6153
   7223SM  H18U 9447   6.981   1.369  14.702 -0.1997 -0.8747  0.8327
   7223SM   C1F 9448   7.608   1.418  16.535  0.3536 -0.1101 -0.0937
   7223SM    OF 9449   7.531   1.393  16.629  0.2611 -0.8150  0.2521
   7223SM   C2F 9450   7.706   1.309  16.490 -0.1446 -0.0241 -0.1442
   7223SM   H2F 9451   7.808   1.342  16.517 -0.6197  0.1562  1.5341
   7223SM   H2G 9452   7.697   1.316  16.380  0.7064  0.2678 -0.1999
   7223SM   C3F 9453   7.670   1.173  16.556 -0.0139  0.2982 -0.4270
   7223SM   H3F 9454   7.560   1.163  16.540  0.2532  0.2369 -2.4663
   7223SM   H3G 9455   7.705   1.179  16.661 -1.9035 -2.0709  0.4280
   7223SM   C4F 9456   7.732   1.052  16.491  0.5023  0.1237 -0.5509
   7223SM   H4F 9457   7.689   0.961  16.538  1.0449 -0.4861 -1.2096
   7223SM   H4G 9458   7.841   1.051  16.508  0.5164  1.6630 -0.4198
   7223SM   C5F 9459   7.692   1.043  16.333  0.3119 -0.6632 -0.5854
   7223SM   H5F 9460   7.733   1.136  16.289  2.1763 -1.2053 -0.1157
   7223SM   H5G 9461   7.582   1.049  16.339  0.3231 -1.5075  1.2411
   7223SM   C6F 9462   7.734   0.916  16.262 -0.5879 -0.2234  0.4250
   7223SM   H6F 9463   7.710   0.824  16.319  2.5064 -0.3711  1.7142
   7223SM   H6G 9464   7.845   0.915  16.256 -0.6260 -1.1934 -0.4845
   7223SM   C7F 9465   7.701   0.908  16.111 -0.0609  0.5576 -0.1271
   7223SM   H7F 9466   7.757   0.973  16.041  0.0408  0.3265 -0.2610
   7223SM   H7G 9467   7.596   0.944  16.102  0.6276  2.4212 -1.0311
   7223SM   C8F 9468   7.709   0.771  16.046  0.1028  0.7324  0.0797
   7223SM   H8F 9469   7.656   0.689  16.098 -0.2379  1.2470  0.5584
   7223SM   H8G 9470   7.812   0.736  16.070  0.7084  1.1225 -1.7746
   7223SM   C9F 9471   7.685   0.778  15.893  0.5006  0.5491 -0.6218
   7223SM   H9F 9472   7.764   0.843  15.850 -0.3333  1.9938 -0.0383
   7223SM   H9G 9473   7.589   0.828  15.870  0.1859  0.6869  0.9239
   7223SM  C10F 9474   7.700   0.647  15.816 -0.5076  0.2755 -0.0487
   7223SM  H10F 9475   7.659   0.562  15.876  2.0806 -0.5172  0.7213
   7223SM  H10G 9476   7.809   0.628  15.827 -0.5943 -0.2182 -0.0019
   7223SM  C11F 9477   7.649   0.656  15.675  0.0600  0.7374  0.3183
   7223SM  H11F 9478   7.649   0.761  15.640  1.5486  0.6412 -0.0204
   7223SM  H11G 9479   7.548   0.610  15.666 -1.1854  3.1576  1.2638
   7223SM  C12F 9480   7.732   0.569  15.575  0.0398 -0.4530  0.1241
   7223SM  H12F 9481   7.697   0.464  15.581 -0.5175 -0.4367 -2.0747
   7223SM  H12G 9482   7.838   0.574  15.608 -0.3462 -0.6719  1.4853
   7223SM  C13F 9483   7.719   0.616  15.432  0.4489 -0.3890  0.2444
   7223SM  H13F 9484   7.776   0.547  15.366  1.8191 -1.9550  2.8618
   7223SM  H13G 9485   7.762   0.719  15.426 -1.7676  0.5223 -1.6320
   7223SM  C14F 9486   7.580   0.630  15.377 -0.1863  0.5478  0.1052
   7223SM  H14F 9487   7.494   0.682  15.426 -2.0162 -1.4262 -0.8571
   7223SM  H14G 9488   7.541   0.526  15.369  2.4548 -0.4011 -1.8900
   7223SM  C15F 9489   7.588   0.699  15.241  0.4280 -0.6305 -0.0994
   7223SM  H15F 9490   7.673   0.650  15.188  1.3867  0.1593  0.6528
   7223SM  H15G 9491   7.608   0.809  15.248 -1.2048 -0.3861  1.2630
   7223SM  C16F 9492   7.457   0.689  15.159  0.5354  0.3747  0.0016
   7223SM  H16F 9493   7.428   0.583  15.144 -1.9917  1.0338 -0.2486
   7223SM  H16G 9494   7.483   0.726  15.058  1.5161 -0.5107 -0.0854
   7223SM  C17F 9495   7.341   0.769  15.213 -1.1084 -0.0449  0.2246
   7223SM  H17F 9496   7.360   0.870  15.257  0.5085 -0.4235  0.4865
   7223SM  H17G 9497   7.301   0.719  15.304 -0.0367 -2.3798 -0.5146
   7223SM  C18F 9498   7.215   0.771  15.132 -0.3451 -0.2037  0.5662
   7223SM  H18F 9499   7.244   0.816  15.035  0.2754  1.3165  1.4313
   7223SM  H18G 9500   7.135   0.840  15.167  0.2791  0.7486  0.1479
   7223SM  C19F 9501   7.152   0.636  15.105 -0.3252 -0.5330 -0.1415
   7223SM  H19F 9502   7.131   0.589  15.203  1.9717  0.4834  0.9119
   7223SM  H19G 9503   7.232   0.583  15.048  2.3609  2.2964  0.7114
   7223SM  C20F 9504   7.029   0.639  15.018  0.1337 -0.3548 -0.6803
   7223SM  H20F 9505   7.052   0.696  14.925  1.3543  1.9091  0.9079
   7223SM  H20G 9506   6.942   0.692  15.060 -1.1813 -1.3645 -2.0356
   7223SM  C21F 9507   6.989   0.498  14.971 -0.3574  0.8940  0.3686
   7223SM  H21F 9508   7.067   0.420  14.984 -0.4725  0.6134 -0.5818
   7223SM  H21G 9509   6.978   0.502  14.861  2.8455  0.0840 -0.0708
   7223SM  C22F 9510   6.860   0.442  15.033 -0.2760  0.4179  0.4027
   7223SM  H22F 9511   6.777   0.509  15.003 -1.2140  0.3183  2.5445
   7223SM  H22G 9512   6.867   0.457  15.143 -0.6330  1.4122  0.3014
   7223SM  C23F 9513   6.825   0.297  15.006 -0.6148  0.1854  0.4140
   7223SM  H23F 9514   6.891   0.227  15.062 -0.3171  1.6583  2.0018
   7223SM  H23G 9515   6.820   0.277  14.897 -3.3356  0.6927  0.3847
   7223SM  H23H 9516   6.724   0.277  15.049 -0.0387 -2.8222  0.6411
   7323SM     N 9517   6.594   7.187  16.937 -0.0531  0.7863 -0.2882
   7323SM   C15 9518   6.649   7.202  16.795  0.5305  0.1044  0.1806
   7323SM  H15A 9519   6.577   7.213  16.716  1.0693 -1.2768 -0.5298
   7323SM  H15B 9520   6.709   7.114  16.775  0.3482 -0.3910  1.6487
   7323SM  H15C 9521   6.722   7.282  16.797  2.9527 -1.9594 -0.2956
   7323SM   C14 9522   6.521   7.059  16.944  0.6106  0.1966  0.3164
   7323SM  H14A 9523   6.578   6.977  16.902 -0.4351  0.0128 -0.8297
   7323SM  H14B 9524   6.432   7.065  16.883 -0.6603 -0.1099  2.0831
   7323SM  H14C 9525   6.488   7.032  17.043  0.4031 -0.9056 -0.0383
   7323SM   C13 9526   6.710   7.175  17.030  0.2890 -0.0168  0.6429
   7323SM  H13A 9527   6.687   7.129  17.125  1.6949 -1.2819  0.4022
   7323SM  H13B 9528   6.747   7.275  17.050  0.9586  0.0468 -0.7873
   7323SM  H13C 9529   6.787   7.113  16.988 -0.4206 -0.5297  0.0656
   7323SM   C12 9530   6.519   7.309  16.979 -0.8381 -0.3912 -0.1334
   7323SM  H12A 9531   6.452   7.330  16.897 -0.9403 -0.7705 -0.1497
   7323SM  H12B 9532   6.580   7.398  16.985 -0.6723 -0.3121 -2.2599
   7323SM   C11 9533   6.432   7.311  17.113  0.2123  0.0319  0.9782
   7323SM  H11A 9534   6.411   7.417  17.136 -2.8170 -0.1534 -0.4634
   7323SM  H11B 9535   6.502   7.264  17.186  1.9336 -0.2376 -0.7299
   7323SM     P 9536   6.188   7.281  17.017  0.1414  0.2901  0.2037
   7323SM   O13 9537   6.095   7.166  17.005  0.1878  0.4578 -0.7849
   7323SM   O14 9538   6.134   7.409  17.069  0.0722  0.6404 -0.1582
   7323SM   O11 9539   6.244   7.326  16.880 -0.0048  0.7175  0.0170
   7323SM   O12 9540   6.314   7.235  17.089 -0.8973  0.3418  0.3019
   7323SM   C1S 9541   6.221   7.255  16.758 -0.2947 -0.1487 -0.1325
   7323SM   H1S 9542   6.164   7.160  16.767  0.9881 -1.2122 -2.2414
   7323SM   H1T 9543   6.324   7.229  16.724  0.1612 -0.4982  1.4507
   7323SM    NF 9544   6.120   7.257  16.531 -0.6822  0.2446  0.0200
   7323SM   HNF 9545   6.180   7.274  16.454 -1.1811  1.6263 -0.1045
   7323SM   C2S 9546   6.149   7.339  16.644 -0.2306  0.3823  0.3917
   7323SM   H2S 9547   6.055   7.385  16.680  0.1132  2.1001 -0.7654
   7323SM   C3S 9548   6.250   7.462  16.612 -0.3983 -0.0749  0.9898
   7323SM   H3S 9549   6.344   7.439  16.557 -2.8664 -1.0620 -3.3014
   7323SM    O3 9550   6.291   7.537  16.726  0.0332 -0.3801 -0.0181
   7323SM   HO3 9551   6.273   7.470  16.792 -1.8383  1.3557  1.3672
   7323SM   C4S 9552   6.185   7.561  16.518 -0.5533  0.2123 -0.1409
   7323SM   H4S 9553   6.089   7.590  16.564 -0.2959 -2.0994  2.1091
   7323SM   C5S 9554   6.231   7.606  16.403  0.2120  0.7028  0.1117
   7323SM   H5S 9555   6.326   7.569  16.363  1.1412  1.9661  1.0855
   7323SM   C6S 9556   6.161   7.692  16.303 -0.7250  0.3675  0.3653
   7323SM   H6S 9557   6.089   7.642  16.234 -1.4359  2.1662 -0.2652
   7323SM   H6T 9558   6.232   7.742  16.234 -1.0685 -0.0978 -0.3449
   7323SM   C7S 9559   6.095   7.813  16.362  0.2092 -0.9885 -0.4507
   7323SM   H7S 9560   6.162   7.881  16.419  0.8041 -0.9892 -1.1434
   7323SM   H7T 9561   6.017   7.775  16.432 -0.9738  0.2774 -1.0328
   7323SM   C8S 9562   6.019   7.895  16.256  0.3770  0.4201  0.8891
   7323SM   H8S 9563   5.957   7.823  16.198 -1.0946  1.6662  0.8625
   7323SM   H8T 9564   6.088   7.953  16.190 -0.8337  1.3221  0.3914
   7323SM   C9S 9565   5.914   7.984  16.311  0.3937 -0.8326 -0.4935
   7323SM   H9S 9566   5.968   8.053  16.380  2.3907 -3.0599  0.3403
   7323SM   H9T 9567   5.849   7.923  16.377  1.5485 -2.5961 -0.9174
   7323SM  C10S 9568   5.825   8.070  16.216  0.0171 -0.5173 -0.5454
   7323SM  H10S 9569   5.795   8.150  16.287  0.4043 -0.1451 -0.7964
   7323SM  H10T 9570   5.738   8.009  16.182 -1.0230 -0.0934  1.2017
   7323SM  C11S 9571   5.901   8.127  16.097  0.3121 -0.2740 -0.3572
   7323SM  H11S 9572   5.935   8.040  16.038 -1.0211 -1.9185  1.1815
   7323SM  H11T 9573   5.985   8.193  16.130 -2.8587  3.1669  1.7445
   7323SM  C12S 9574   5.809   8.213  16.008 -0.2760  0.2253 -0.0556
   7323SM  H12S 9575   5.838   8.320  16.020  0.9337  0.0994 -1.6513
   7323SM  H12T 9576   5.711   8.182  16.050  0.5113  0.2938  1.9794
   7323SM  C13S 9577   5.820   8.192  15.852 -0.4203 -0.6170  0.0981
   7323SM  H13S 9578   5.730   8.235  15.803  0.0215 -1.2016 -1.2834
   7323SM  H13T 9579   5.821   8.086  15.819  1.9511 -0.4413 -0.5902
   7323SM  C14S 9580   5.942   8.268  15.797 -0.0681  0.5394  0.0994
   7323SM  H14S 9581   6.030   8.222  15.846  0.8612  1.7697 -0.3826
   7323SM  H14T 9582   5.933   8.374  15.829  1.4951  0.7859 -0.2438
   7323SM  C15S 9583   5.959   8.279  15.639 -0.5745  0.6390 -0.0178
   7323SM  H15S 9584   5.855   8.299  15.606 -1.4809 -0.4754  1.9329
   7323SM  H15T 9585   5.972   8.180  15.589 -0.5847  0.7765 -0.2937
   7323SM  C16S 9586   6.062   8.380  15.585 -0.5207 -0.3918  0.4994
   7323SM  H16S 9587   6.160   8.360  15.632  0.9875  3.1487 -0.7973
   7323SM  H16T 9588   6.029   8.480  15.621  0.3382 -0.1211  0.5642
   7323SM  C17S 9589   6.071   8.381  15.427  0.2155  0.1550 -0.5933
   7323SM  H17S 9590   6.078   8.486  15.391  0.3049 -0.0556 -1.1980
   7323SM  H17T 9591   5.980   8.328  15.394 -2.1095  0.2672  4.6055
   7323SM  C18S 9592   6.206   8.319  15.386  0.3794  0.9782 -0.1745
   7323SM  H18S 9593   6.292   8.361  15.442  1.0699  1.4247 -1.5320
   7323SM  H18T 9594   6.213   8.326  15.275 -0.9677 -0.7102 -0.4161
   7323SM  H18U 9595   6.193   8.211  15.410 -0.2589  0.7425 -1.4691
   7323SM   C1F 9596   6.037   7.157  16.541 -0.2129  0.5289  0.6274
   7323SM    OF 9597   5.976   7.130  16.644 -0.2721  0.5408  0.3718
   7323SM   C2F 9598   6.001   7.091  16.406  1.2468 -0.1200 -0.6246
   7323SM   H2F 9599   6.082   7.118  16.334  1.8294 -1.5148 -0.5068
   7323SM   H2G 9600   5.916   7.155  16.372  1.1025  0.1894  0.2994
   7323SM   C3F 9601   5.979   6.940  16.404  0.5193 -0.8322 -0.0699
   7323SM   H3F 9602   5.908   6.917  16.486  0.6348 -0.9356  0.0017
   7323SM   H3G 9603   6.069   6.876  16.410  1.9288  0.9720 -1.0460
   7323SM   C4F 9604   5.914   6.899  16.269  0.4932  0.3231 -0.0116
   7323SM   H4F 9605   5.836   6.973  16.240 -0.9131  0.0765  2.8135
   7323SM   H4G 9606   5.857   6.804  16.281  1.4794 -0.8859 -3.4947
   7323SM   C5F 9607   6.013   6.880  16.160 -1.1931 -0.0490  0.8611
   7323SM   H5F 9608   6.083   6.797  16.183 -1.6269 -0.4061  0.8984
   7323SM   H5G 9609   6.082   6.965  16.140 -0.6026 -0.3930  1.3900
   7323SM   C6F 9610   5.952   6.841  16.021 -0.3191 -0.4052  1.4002
   7323SM   H6F 9611   5.885   6.753  16.031 -3.0276  1.2623 -0.3989
   7323SM   H6G 9612   6.036   6.797  15.963 -2.5081 -3.5817  0.3598
   7323SM   C7F 9613   5.869   6.948  15.936  1.0376  0.1978  0.0721
   7323SM   H7F 9614   5.926   7.040  15.909 -0.4037  1.1688  0.2429
   7323SM   H7G 9615   5.781   6.973  15.999  2.4372 -0.8716  2.5745
   7323SM   C8F 9616   5.825   6.890  15.797 -0.5480  0.0047  0.6810
   7323SM   H8F 9617   5.916   6.900  15.734 -0.7570 -1.6306  0.0764
   7323SM   H8G 9618   5.749   6.958  15.753  0.7548  0.1593 -1.5060
   7323SM   C9F 9619   5.772   6.748  15.799 -0.0346 -0.3439 -0.0937
   7323SM   H9F 9620   5.680   6.751  15.860 -0.1552  1.1251 -0.2998
   7323SM   H9G 9621   5.836   6.673  15.849  0.5046  0.9712  1.2940
   7323SM  C10F 9622   5.742   6.713  15.651 -0.6149 -0.1559 -0.2529
   7323SM  H10F 9623   5.699   6.802  15.602 -0.6402 -0.1235 -0.1714
   7323SM  H10G 9624   5.667   6.631  15.650 -0.2696 -0.4768 -0.1581
   7323SM  C11F 9625   5.873   6.683  15.571 -0.0514  0.1550  0.3265
   7323SM  H11F 9626   5.906   6.581  15.599  0.0184  0.1366  0.1745
   7323SM  H11G 9627   5.958   6.750  15.596 -0.8249  0.9669  0.8242
   7323SM  C12F 9628   5.843   6.698  15.419  0.7232 -0.1925  0.4982
   7323SM  H12F 9629   5.931   6.676  15.354  0.1309  0.0774 -0.4075
   7323SM  H12G 9630   5.814   6.804  15.403  0.4421 -0.5522 -1.7020
   7323SM  C13F 9631   5.734   6.598  15.366 -0.3252 -0.2635  0.1114
   7323SM  H13F 9632   5.654   6.597  15.444 -1.0672 -0.1989 -0.6416
   7323SM  H13G 9633   5.773   6.494  15.378 -1.6364 -0.6132  1.9656
   7323SM  C14F 9634   5.696   6.645  15.220 -0.1577  0.3501 -1.0447
   7323SM  H14F 9635   5.788   6.628  15.160 -0.0994  1.2234 -1.2171
   7323SM  H14G 9636   5.680   6.755  15.216 -0.9910  0.2177 -1.5464
   7323SM  C15F 9637   5.568   6.585  15.153 -1.0800 -0.1897 -0.3399
   7323SM  H15F 9638   5.489   6.588  15.232 -0.3141  1.3351  0.4274
   7323SM  H15G 9639   5.579   6.486  15.106  0.2674 -0.1930 -0.0673
   7323SM  C16F 9640   5.507   6.672  15.042  0.1016 -0.1700  0.8592
   7323SM  H16F 9641   5.582   6.673  14.960 -0.6641 -3.3064  0.0061
   7323SM  H16G 9642   5.485   6.771  15.088  0.1637  0.3523 -0.2199
   7323SM  C17F 9643   5.383   6.623  14.975  0.2448  0.3990  0.2128
   7323SM  H17F 9644   5.311   6.579  15.048 -0.5391 -0.9071 -1.2893
   7323SM  H17G 9645   5.392   6.527  14.920 -2.9401 -0.9159  1.7294
   7323SM  C18F 9646   5.313   6.726  14.881 -0.1706 -0.0955  0.5293
   7323SM  H18F 9647   5.388   6.756  14.805 -1.2885  2.4726  0.3423
   7323SM  H18G 9648   5.274   6.818  14.931  2.2864  1.7578 -0.7193
   7323SM  C19F 9649   5.204   6.658  14.788 -0.2822 -0.2800  0.6150
   7323SM  H19F 9650   5.252   6.576  14.731 -1.1245  0.7120 -1.6639
   7323SM  H19G 9651   5.182   6.744  14.721 -0.2362  0.7197  1.8311
   7323SM  C20F 9652   5.069   6.626  14.849  0.1032 -0.5317 -0.1193
   7323SM  H20F 9653   5.034   6.717  14.902  0.1985 -0.6662  0.1780
   7323SM  H20G 9654   5.091   6.547  14.925  3.8646  1.0577  0.6356
   7323SM  C21F 9655   4.967   6.581  14.749  0.2338  0.3149 -0.0054
   7323SM  H21F 9656   5.010   6.528  14.661 -3.0825  0.8135 -2.1386
   7323SM  H21G 9657   4.935   6.672  14.695 -1.4983 -1.3616 -2.0128
   7323SM  C22F 9658   4.845   6.509  14.800 -0.5655  0.1629  0.1574
   7323SM  H22F 9659   4.785   6.574  14.868 -1.0511  2.1175 -2.0463
   7323SM  H22G 9660   4.878   6.421  14.860 -1.0349  1.1629  1.9470
   7323SM  C23F 9661   4.745   6.470  14.691  0.0839 -0.5262  0.4967
   7323SM  H23F 9662   4.779   6.397  14.615 -2.1212 -0.0200 -1.0773
   7323SM  H23G 9663   4.712   6.555  14.628 -0.7669 -1.2039 -0.0032
   7323SM  H23H 9664   4.647   6.441  14.736 -1.4980  2.1130 -1.0177
   7423SM     N 9665   1.769   3.102  17.503 -0.3747 -0.0414  0.0711
   7423SM   C15 9666   1.810   3.063  17.645  0.5081 -0.2722  0.1670
   7423SM  H15A 9667   1.782   3.143  17.712  2.3056  0.5746 -0.0246
   7423SM  H15B 9668   1.916   3.043  17.654  0.8266  1.1781 -0.0390
   7423SM  H15C 9669   1.764   2.971  17.677 -1.0256  0.8787  1.4467
   7423SM   C14 9670   1.617   3.108  17.487 -0.0160 -0.5346 -0.8956
   7423SM  H14A 9671   1.580   3.182  17.557  3.4187 -1.1066  1.7993
   7423SM  H14B 9672   1.563   3.016  17.501 -0.8839  0.2002  0.8360
   7423SM  H14C 9673   1.598   3.138  17.385  1.2585  0.4525 -0.8772
   7423SM   C13 9674   1.841   3.234  17.467 -0.1689  0.5669  0.0354
   7423SM  H13A 9675   1.825   3.253  17.362  0.7987  0.8138 -0.0707
   7423SM  H13B 9676   1.946   3.214  17.481 -0.5127 -0.5496  1.1948
   7423SM  H13C 9677   1.807   3.317  17.527 -2.3700  1.4418 -2.2389
   7423SM   C12 9678   1.822   2.992  17.414  0.0171  0.0550  0.2136
   7423SM  H12A 9679   1.791   2.894  17.448 -0.3927 -0.7939 -2.3320
   7423SM  H12B 9680   1.930   2.986  17.423 -0.0352 -2.2062  0.0033
   7423SM   C11 9681   1.790   2.994  17.264 -0.2432  0.1045  0.1682
   7423SM  H11A 9682   1.679   2.986  17.264 -0.4818  1.6785  3.6987
   7423SM  H11B 9683   1.832   2.902  17.219 -1.1504 -0.6927  0.9035
   7423SM     P 9684   1.966   3.136  17.126 -0.1653  0.0617 -0.0143
   7423SM   O13 9685   1.974   3.271  17.059 -1.2703  0.5453  0.4945
   7423SM   O14 9686   2.074   3.108  17.224  0.1675  0.2620  0.1223
   7423SM   O11 9687   1.966   3.024  17.010 -0.4035 -0.0678 -0.4836
   7423SM   O12 9688   1.829   3.112  17.198  0.0056  0.4394  0.6243
   7423SM   C1S 9689   1.841   3.012  16.929  0.2656  0.1638  0.1763
   7423SM   H1S 9690   1.751   3.040  16.988  1.2356  0.0259  1.7926
   7423SM   H1T 9691   1.837   2.905  16.898 -1.2474  0.0147  0.8248
   7423SM    NF 9692   1.754   3.050  16.703 -0.3064  0.4563 -0.2402
   7423SM   HNF 9693   1.766   2.986  16.627  2.3985 -0.1329  0.5874
   7423SM   C2S 9694   1.863   3.094  16.797  0.3265 -0.8228 -1.3862
   7423SM   H2S 9695   1.842   3.199  16.827  0.3758 -1.5729  1.7104
   7423SM   C3S 9696   2.007   3.081  16.747  0.2112  0.0116  0.2801
   7423SM   H3S 9697   2.033   2.974  16.763 -1.3032 -0.3194  0.7262
   7423SM    O3 9698   2.104   3.158  16.818  0.6278  0.6136 -0.1342
   7423SM   HO3 9699   2.061   3.157  16.904  0.0606 -2.2137 -0.3787
   7423SM   C4S 9700   2.031   3.120  16.611 -0.0121  0.4059 -0.5427
   7423SM   H4S 9701   2.022   3.227  16.587 -1.7692  0.2541 -0.7009
   7423SM   C5S 9702   2.067   3.035  16.510 -0.2911  0.1958  0.3347
   7423SM   H5S 9703   2.081   2.930  16.541  1.3539  0.2994  0.0583
   7423SM   C6S 9704   2.085   3.065  16.360  0.4222  0.1794 -0.3648
   7423SM   H6S 9705   2.056   2.969  16.311 -0.4047 -0.1418  0.6934
   7423SM   H6T 9706   2.190   3.089  16.336  0.7120 -1.7545 -1.2358
   7423SM   C7S 9707   2.024   3.197  16.307  0.1264  1.2598  0.0143
   7423SM   H7S 9708   2.068   3.284  16.361  1.1216 -0.7407  2.6472
   7423SM   H7T 9709   1.914   3.194  16.323  0.3115  3.3577  2.2375
   7423SM   C8S 9710   2.063   3.216  16.156  0.1722  0.0773 -0.0131
   7423SM   H8S 9711   2.021   3.314  16.123  1.2281  0.8813  0.9506
   7423SM   H8T 9712   2.035   3.121  16.106 -1.7754 -0.6669  2.2933
   7423SM   C9S 9713   2.215   3.247  16.135 -0.7958  0.2432 -0.2005
   7423SM   H9S 9714   2.263   3.149  16.152 -1.5777  0.2692  2.7674
   7423SM   H9T 9715   2.255   3.331  16.197 -1.8898  2.1025 -1.8883
   7423SM  C10S 9716   2.243   3.285  15.988  0.3394  0.1615  0.2773
   7423SM  H10S 9717   2.345   3.325  15.973 -0.1144  1.3058  0.1742
   7423SM  H10T 9718   2.180   3.374  15.966  0.3187 -0.1556 -1.0648
   7423SM  C11S 9719   2.200   3.190  15.875  0.0679 -0.7619 -0.3565
   7423SM  H11S 9720   2.090   3.171  15.879 -0.0274 -0.1249  0.1410
   7423SM  H11T 9721   2.258   3.098  15.895  1.5630  0.1189 -0.5121
   7423SM  C12S 9722   2.231   3.239  15.729 -0.2336 -0.2620  0.4365
   7423SM  H12S 9723   2.342   3.248  15.723 -0.1705 -0.8034  0.7184
   7423SM  H12T 9724   2.190   3.343  15.726 -2.2292 -0.9972  0.8777
   7423SM  C13S 9725   2.155   3.166  15.616 -0.5612 -0.1190 -1.0123
   7423SM  H13S 9726   2.050   3.162  15.651 -0.1164 -1.2595  0.2642
   7423SM  H13T 9727   2.201   3.065  15.607  0.5416  0.0655  1.6797
   7423SM  C14S 9728   2.152   3.254  15.490  0.0830 -0.5496 -0.6444
   7423SM  H14S 9729   2.253   3.273  15.449 -0.7909  0.6250 -2.3718
   7423SM  H14T 9730   2.095   3.347  15.510 -0.2269 -0.8296 -0.2093
   7423SM  C15S 9731   2.072   3.188  15.380  0.6702 -0.3715  0.1686
   7423SM  H15S 9732   1.970   3.182  15.423  0.8234  0.4051  0.6597
   7423SM  H15T 9733   2.097   3.083  15.353 -0.7615 -0.9740  1.0594
   7423SM  C16S 9734   2.069   3.263  15.247  0.0804  0.1406  0.8177
   7423SM  H16S 9735   2.171   3.277  15.207 -0.6403 -1.8646 -2.0221
   7423SM  H16T 9736   2.030   3.367  15.254 -0.9070  0.1272 -2.5938
   7423SM  C17S 9737   2.012   3.176  15.131  0.1118 -0.4065  0.1856
   7423SM  H17S 9738   1.919   3.151  15.187 -0.2621  1.3428  0.3823
   7423SM  H17T 9739   2.071   3.083  15.117  0.4869 -0.0742 -0.4905
   7423SM  C18S 9740   1.999   3.250  14.995 -0.0690 -0.5054 -0.1197
   7423SM  H18S 9741   1.957   3.351  15.013  0.7899 -0.0659 -0.5144
   7423SM  H18T 9742   1.919   3.202  14.934 -1.2622  2.3470 -0.9800
   7423SM  H18U 9743   2.093   3.256  14.936 -0.1698 -2.7493 -0.6274
   7423SM   C1F 9744   1.625   3.074  16.723  0.1010  1.0306 -0.6178
   7423SM    OF 9745   1.596   3.154  16.814 -0.4481 -0.1127  0.3932
   7423SM   C2F 9746   1.523   2.997  16.653  0.2116  0.2940  0.8249
   7423SM   H2F 9747   1.425   2.993  16.706  0.6853 -0.9611  1.6651
   7423SM   H2G 9748   1.557   2.893  16.635  2.6596  1.4298 -1.8692
   7423SM   C3F 9749   1.493   3.043  16.507  0.0145  0.1782 -0.1712
   7423SM   H3F 9750   1.476   3.153  16.508 -2.1595 -0.0009 -2.9140
   7423SM   H3G 9751   1.394   3.000  16.480  0.7541 -0.3569 -2.2627
   7423SM   C4F 9752   1.594   2.995  16.406 -0.6219 -0.1430  0.6914
   7423SM   H4F 9753   1.588   2.885  16.404 -0.9544 -0.1353 -2.2351
   7423SM   H4G 9754   1.693   3.023  16.450 -0.4347 -0.9361  0.7960
   7423SM   C5F 9755   1.570   3.045  16.259 -0.0876  0.0650 -0.4582
   7423SM   H5F 9756   1.559   3.155  16.255 -1.1345  0.0248  0.7300
   7423SM   H5G 9757   1.476   2.994  16.230 -0.8237  0.7243  0.7340
   7423SM   C6F 9758   1.682   2.991  16.168  0.1503  0.0177  0.2665
   7423SM   H6F 9759   1.721   2.892  16.202  1.6924 -0.1602 -1.8484
   7423SM   H6G 9760   1.758   3.071  16.173 -0.2419  0.3448  2.5355
   7423SM   C7F 9761   1.647   2.982  16.014 -0.1190 -0.1740 -1.3188
   7423SM   H7F 9762   1.629   3.089  15.987  1.6468  0.3048 -0.7623
   7423SM   H7G 9763   1.555   2.922  16.004  1.4865 -2.9414 -0.6158
   7423SM   C8F 9764   1.758   2.920  15.925  0.8133  0.1422 -0.2121
   7423SM   H8F 9765   1.740   2.811  15.939 -0.3660  0.5623  2.0184
   7423SM   H8G 9766   1.865   2.934  15.951  2.0297 -2.8216 -2.9512
   7423SM   C9F 9767   1.747   2.965  15.779 -0.8429 -0.1383  0.2983
   7423SM   H9F 9768   1.747   3.076  15.780  0.1173 -0.1277  1.4902
   7423SM   H9G 9769   1.644   2.937  15.747 -0.5403  0.5140 -1.3598
   7423SM  C10F 9770   1.849   2.902  15.676  0.4434  0.3702 -0.3336
   7423SM  H10F 9771   1.849   2.791  15.680  2.8785  0.0862 -3.6753
   7423SM  H10G 9772   1.956   2.931  15.683  0.9927 -1.3258 -1.0434
   7423SM  C11F 9773   1.793   2.924  15.528 -0.4647 -0.1855  0.3859
   7423SM  H11F 9774   1.793   3.034  15.515 -1.9360 -0.4831 -3.0391
   7423SM  H11G 9775   1.688   2.888  15.535 -0.8745  0.4915 -1.5672
   7423SM  C12F 9776   1.874   2.857  15.415  0.4081 -0.6289 -0.3083
   7423SM  H12F 9777   1.887   2.747  15.431  0.5927 -0.6397 -0.5338
   7423SM  H12G 9778   1.977   2.896  15.410 -0.1888  0.8444 -2.2696
   7423SM  C13F 9779   1.803   2.881  15.284 -0.2205  0.1445  0.5696
   7423SM  H13F 9780   1.814   2.987  15.255 -0.9612  0.3455  0.9970
   7423SM  H13G 9781   1.695   2.864  15.303 -0.5194  1.0290 -0.2997
   7423SM  C14F 9782   1.848   2.774  15.178  0.2338 -0.1225  1.0809
   7423SM  H14F 9783   1.838   2.673  15.224 -0.2966 -1.1389 -1.1159
   7423SM  H14G 9784   1.952   2.799  15.147  0.3711 -0.8604  0.9129
   7423SM  C15F 9785   1.751   2.774  15.053 -0.5463 -0.3013  0.1587
   7423SM  H15F 9786   1.761   2.879  15.018 -2.2319  0.3723  1.5201
   7423SM  H15G 9787   1.647   2.754  15.086 -0.3379  0.0086  1.0177
   7423SM  C16F 9788   1.801   2.681  14.939 -0.1801  0.2914  0.4981
   7423SM  H16F 9789   1.781   2.574  14.962  1.3331  0.0519  0.7760
   7423SM  H16G 9790   1.910   2.691  14.924 -0.1653  0.1609  0.5226
   7423SM  C17F 9791   1.728   2.716  14.808 -0.3051 -0.1925  0.5181
   7423SM  H17F 9792   1.777   2.660  14.725 -1.0958 -0.2416  0.0786
   7423SM  H17G 9793   1.733   2.821  14.772 -0.5457  0.5552  2.5498
   7423SM  C18F 9794   1.585   2.671  14.789  0.2177 -0.5709 -0.4263
   7423SM  H18F 9795   1.562   2.694  14.682 -1.3976  1.1511  0.2206
   7423SM  H18G 9796   1.514   2.719  14.860  0.7154 -0.6725  0.1470
   7423SM  C19F 9797   1.582   2.514  14.799 -0.5997 -0.0946  0.1101
   7423SM  H19F 9798   1.600   2.480  14.903  0.4657  0.3310  0.0868
   7423SM  H19G 9799   1.668   2.472  14.743  0.9421  3.4381 -0.4976
   7423SM  C20F 9800   1.447   2.473  14.745  0.3640 -0.7114 -0.4094
   7423SM  H20F 9801   1.434   2.504  14.640  1.9074 -1.5171 -0.8717
   7423SM  H20G 9802   1.369   2.531  14.798  2.0981 -0.4418  2.0189
   7423SM  C21F 9803   1.428   2.327  14.750  0.7015  0.4404  0.0091
   7423SM  H21F 9804   1.454   2.282  14.849 -0.4603 -0.5808 -0.1319
   7423SM  H21G 9805   1.497   2.280  14.677  0.4485 -0.1783  0.1602
   7423SM  C22F 9806   1.282   2.279  14.717  0.8364  0.3040  0.4247
   7423SM  H22F 9807   1.215   2.362  14.749 -0.7950 -0.1708 -1.5299
   7423SM  H22G 9808   1.265   2.180  14.765 -0.8952  0.2781 -0.1528
   7423SM  C23F 9809   1.251   2.249  14.569  0.1624 -0.0237 -0.8755
   7423SM  H23F 9810   1.341   2.194  14.535  0.4718 -1.2641  1.6855
   7423SM  H23G 9811   1.247   2.350  14.523 -1.3789  0.0329 -0.6636
   7423SM  H23H 9812   1.162   2.185  14.549  0.6835 -0.3947 -2.1345
   7523SM     N 9813   0.304   4.191  17.434 -0.2595  0.0077 -0.1301
   7523SM   C15 9814   0.218   4.085  17.485  0.5345 -0.6455  0.5920
   7523SM  H15A 9815   0.261   4.025  17.563 -0.2762 -0.5947  1.0914
   7523SM  H15B 9816   0.192   4.017  17.406 -0.3242 -1.6656  1.7234
   7523SM  H15C 9817   0.123   4.128  17.515  0.9967 -0.0234  1.1893
   7523SM   C14 9818   0.364   4.261  17.543  0.7214  0.3402  0.9379
   7523SM  H14A 9819   0.415   4.194  17.610 -0.7571 -0.3720  1.3800
   7523SM  H14B 9820   0.288   4.312  17.601  2.6250  1.5116  2.5551
   7523SM  H14C 9821   0.433   4.336  17.505  0.7983 -0.5156 -0.6772
   7523SM   C13 9822   0.405   4.110  17.356  0.0977  0.2896 -0.4495
   7523SM  H13A 9823   0.360   4.052  17.277  0.0518 -1.7012  0.9776
   7523SM  H13B 9824   0.450   4.051  17.435  0.6228  2.4870  1.0141
   7523SM  H13C 9825   0.472   4.180  17.308 -0.3896  0.3847 -0.9957
   7523SM   C12 9826   0.230   4.289  17.349 -0.0226 -0.6530  0.6293
   7523SM  H12A 9827   0.297   4.371  17.331 -0.0905 -0.5765  0.7246
   7523SM  H12B 9828   0.159   4.335  17.415  1.0509  1.2790  0.4895
   7523SM   C11 9829   0.179   4.250  17.209  0.5073 -0.0814 -0.5980
   7523SM  H11A 9830   0.263   4.212  17.147  0.1588  1.0332 -1.8130
   7523SM  H11B 9831   0.134   4.339  17.159  1.0154  0.3981 -0.2097
   7523SM     P 9832   0.065   4.010  17.159 -0.4409 -0.3431 -0.0709
   7523SM   O13 9833   0.171   3.923  17.220  0.0506  0.3394  0.1206
   7523SM   O14 9834  -0.075   3.956  17.170 -0.4702  0.2208 -0.1288
   7523SM   O11 9835   0.110   4.007  17.007  0.6335 -0.4903  0.2066
   7523SM   O12 9836   0.074   4.151  17.221  0.2986 -0.5389 -0.8411
   7523SM   C1S 9837   0.005   3.973  16.910  0.1403  0.0249  0.5501
   7523SM   H1S 9838  -0.079   4.046  16.913  0.5807  0.7279 -1.8922
   7523SM   H1T 9839  -0.035   3.870  16.921 -0.4471  0.0308 -1.2432
   7523SM    NF 9840  -0.042   3.960  16.668  0.6370 -0.3860 -0.3699
   7523SM   HNF 9841  -0.045   3.870  16.626 -1.7226 -1.1527  1.2348
   7523SM   C2S 9842   0.063   3.996  16.761 -0.2624 -0.9360 -0.6444
   7523SM   H2S 9843   0.095   4.102  16.765 -0.6743 -0.7669 -1.5385
   7523SM   C3S 9844   0.194   3.912  16.741  0.4145 -0.0001  0.3543
   7523SM   H3S 9845   0.167   3.804  16.745 -1.6823  0.3747 -1.6631
   7523SM    O3 9846   0.301   3.931  16.843  0.5898  0.1445 -0.0226
   7523SM   HO3 9847   0.248   3.964  16.916  2.9077 -0.5131  2.1245
   7523SM   C4S 9848   0.242   3.947  16.601  0.8315 -0.2998 -0.0206
   7523SM   H4S 9849   0.283   4.047  16.582 -0.8937  0.3776 -0.3432
   7523SM   C5S 9850   0.239   3.861  16.494 -0.1568 -0.1543 -0.2579
   7523SM   H5S 9851   0.215   3.756  16.515 -0.5829  0.1489  0.8150
   7523SM   C6S 9852   0.291   3.888  16.355  0.0148 -0.3599  0.0113
   7523SM   H6S 9853   0.225   3.965  16.310 -2.2135 -2.3060 -0.2975
   7523SM   H6T 9854   0.282   3.792  16.298  1.2246  0.9596 -2.5608
   7523SM   C7S 9855   0.450   3.910  16.355  0.3469 -0.3220 -0.2794
   7523SM   H7S 9856   0.502   3.823  16.400 -2.0072 -2.2244 -1.0438
   7523SM   H7T 9857   0.475   4.001  16.413  2.9746 -0.1470 -1.5668
   7523SM   C8S 9858   0.495   3.939  16.212  0.3621 -0.0050 -0.5811
   7523SM   H8S 9859   0.598   3.979  16.228  0.5269 -0.1474 -1.2794
   7523SM   H8T 9860   0.428   4.023  16.184  0.5447  1.0178  1.7890
   7523SM   C9S 9861   0.465   3.831  16.108 -0.2654 -0.4160  0.5405
   7523SM   H9S 9862   0.358   3.802  16.112 -0.1359 -0.9411  0.2842
   7523SM   H9T 9863   0.531   3.745  16.136 -0.6517 -1.0988 -0.6081
   7523SM  C10S 9864   0.510   3.859  15.964  0.7839 -0.3258  0.1719
   7523SM  H10S 9865   0.618   3.833  15.971  0.7457 -1.3408 -2.0668
   7523SM  H10T 9866   0.512   3.966  15.935 -0.3126 -0.7632 -1.7472
   7523SM  C11S 9867   0.445   3.771  15.855 -0.1336  1.0204 -0.6385
   7523SM  H11S 9868   0.340   3.801  15.834 -0.5994 -2.2269 -4.0666
   7523SM  H11T 9869   0.450   3.664  15.884  1.4793  0.9707 -0.9930
   7523SM  C12S 9870   0.509   3.795  15.716  0.4164 -0.1877 -0.1152
   7523SM  H12S 9871   0.619   3.782  15.722  0.4472 -0.1430 -0.5577
   7523SM  H12T 9872   0.493   3.901  15.688 -0.3761 -0.8637 -2.4174
   7523SM  C13S 9873   0.452   3.721  15.604  0.4272 -0.2582 -0.2698
   7523SM  H13S 9874   0.353   3.758  15.571  0.8023  0.2622 -0.8344
   7523SM  H13T 9875   0.444   3.612  15.625 -2.2803 -0.5042 -2.0538
   7523SM  C14S 9876   0.523   3.726  15.466  0.1618  0.1305  0.3092
   7523SM  H14S 9877   0.627   3.688  15.476  0.1923 -0.5684 -2.0430
   7523SM  H14T 9878   0.535   3.836  15.453  0.3254  0.3640  2.1673
   7523SM  C15S 9879   0.446   3.662  15.344  0.1055 -0.1671 -0.3222
   7523SM  H15S 9880   0.342   3.699  15.336  1.3125  3.9476  0.7505
   7523SM  H15T 9881   0.449   3.551  15.354 -0.4088 -0.3223 -1.7525
   7523SM  C16S 9882   0.531   3.702  15.221  0.1866 -0.2884  0.5271
   7523SM  H16S 9883   0.632   3.654  15.224  1.0815  1.3776 -1.1863
   7523SM  H16T 9884   0.535   3.811  15.203  0.5002 -0.1652  1.2724
   7523SM  C17S 9885   0.474   3.652  15.086 -0.0924  0.3858 -0.1313
   7523SM  H17S 9886   0.366   3.667  15.064 -0.3300 -0.9305  0.0978
   7523SM  H17T 9887   0.480   3.541  15.092  2.3798  0.4388 -0.5460
   7523SM  C18S 9888   0.552   3.690  14.956 -0.3276  0.3271  0.0510
   7523SM  H18S 9889   0.556   3.801  14.958 -0.3481  0.3684 -1.4254
   7523SM  H18T 9890   0.498   3.652  14.867  1.0233 -0.5908 -0.4108
   7523SM  H18U 9891   0.653   3.645  14.955 -0.4580 -0.0280  1.1924
   7523SM   C1F 9892  -0.144   4.042  16.655  1.1987  0.3611  0.5682
   7523SM    OF 9893  -0.138   4.158  16.690 -0.5625 -0.2428  0.2961
   7523SM   C2F 9894  -0.270   4.002  16.578 -0.2802 -0.6080  0.5810
   7523SM   H2F 9895  -0.348   4.048  16.643  0.4953  4.2519 -1.4310
   7523SM   H2G 9896  -0.292   3.893  16.580  1.3537 -0.9678  0.1676
   7523SM   C3F 9897  -0.272   4.055  16.437 -0.1266  0.3589  0.0455
   7523SM   H3F 9898  -0.271   4.166  16.433  3.7237  0.4332 -2.2111
   7523SM   H3G 9899  -0.365   4.026  16.384 -0.2103  0.3524  0.1957
   7523SM   C4F 9900  -0.151   4.014  16.354 -0.5783 -0.3792  0.1940
   7523SM   H4F 9901  -0.150   3.905  16.337  0.7908 -0.0269 -2.5438
   7523SM   H4G 9902  -0.052   4.049  16.392 -1.0759 -0.2737  1.4272
   7523SM   C5F 9903  -0.161   4.090  16.220  0.5207  0.1974 -0.4440
   7523SM   H5F 9904  -0.163   4.200  16.233  0.2931  0.0911  0.5106
   7523SM   H5G 9905  -0.254   4.052  16.173 -0.2347  0.2414  0.9700
   7523SM   C6F 9906  -0.036   4.061  16.135  0.2662  0.1985 -0.2870
   7523SM   H6F 9907   0.054   4.075  16.198  1.4002 -1.5660 -1.4281
   7523SM   H6G 9908  -0.031   4.133  16.051 -0.4611  1.4605  0.7106
   7523SM   C7F 9909  -0.028   3.917  16.079 -0.5252 -0.3955 -0.5125
   7523SM   H7F 9910  -0.134   3.889  16.058 -0.7431  0.3204 -0.4018
   7523SM   H7G 9911   0.003   3.845  16.158  0.0953 -0.7510 -1.0742
   7523SM   C8F 9912   0.060   3.897  15.954  0.6612  0.0335 -1.0506
   7523SM   H8F 9913   0.165   3.913  15.985 -0.2270  0.3686  2.1999
   7523SM   H8G 9914   0.031   3.971  15.876  1.0468  2.7989  1.2514
   7523SM   C9F 9915   0.045   3.760  15.893 -0.0123 -0.3384 -0.1007
   7523SM   H9F 9916   0.112   3.759  15.805  0.6217 -1.3804  0.3706
   7523SM   H9G 9917  -0.059   3.743  15.858  0.5869 -2.1516 -1.1242
   7523SM  C10F 9918   0.082   3.641  15.980  0.3260  0.1429 -0.2425
   7523SM  H10F 9919   0.018   3.636  16.071  1.4052 -0.8888  0.4802
   7523SM  H10G 9920   0.185   3.669  16.011  0.1676  2.9793 -1.9201
   7523SM  C11F 9921   0.061   3.510  15.906  0.4844 -0.4521  0.0928
   7523SM  H11F 9922  -0.041   3.498  15.862  0.5359  1.3514 -0.6020
   7523SM  H11G 9923   0.065   3.427  15.981 -1.0129 -1.9653 -1.3992
   7523SM  C12F 9924   0.167   3.492  15.797 -0.0833  0.2459 -0.5088
   7523SM  H12F 9925   0.262   3.510  15.853  0.3746 -0.4234 -1.0417
   7523SM  H12G 9926   0.136   3.569  15.723  3.6309  0.6763 -1.8335
   7523SM  C13F 9927   0.165   3.354  15.729 -0.0124  0.0049  0.3341
   7523SM  H13F 9928   0.058   3.323  15.726 -0.4173  1.3238  0.4266
   7523SM  H13G 9929   0.216   3.280  15.794  0.7187  0.1144 -0.1045
   7523SM  C14F 9930   0.232   3.367  15.591 -0.1159  0.0942 -0.1992
   7523SM  H14F 9931   0.342   3.378  15.602 -0.0632  1.3468 -1.6533
   7523SM  H14G 9932   0.206   3.466  15.549  0.6383 -0.5010 -2.1680
   7523SM  C15F 9933   0.187   3.247  15.503  0.3857 -0.5121 -0.1418
   7523SM  H15F 9934   0.077   3.251  15.492  0.3698  0.8410  0.3104
   7523SM  H15G 9935   0.217   3.149  15.547  1.4314 -0.0608  0.1974
   7523SM  C16F 9936   0.254   3.248  15.363 -0.2085  0.4071 -0.3223
   7523SM  H16F 9937   0.353   3.200  15.376 -0.3850  0.2055  0.2876
   7523SM  H16G 9938   0.271   3.356  15.344 -0.1250  0.5247  0.4027
   7523SM  C17F 9939   0.181   3.176  15.248  0.7178 -0.1450  0.2641
   7523SM  H17F 9940   0.079   3.221  15.241  0.3043 -1.0794  0.1356
   7523SM  H17G 9941   0.158   3.070  15.273 -2.8952  0.7690  1.4774
   7523SM  C18F 9942   0.247   3.211  15.115 -0.4589  0.8579 -0.0559
   7523SM  H18F 9943   0.351   3.176  15.134 -0.3111  1.0567 -0.4794
   7523SM  H18G 9944   0.257   3.319  15.094 -0.0735  1.0610  1.1251
   7523SM  C19F 9945   0.186   3.137  14.993  0.0705  0.3154  0.1145
   7523SM  H19F 9946   0.080   3.169  14.985 -0.3111 -1.1565 -1.2747
   7523SM  H19G 9947   0.175   3.029  15.018 -0.4955  0.4462  0.4433
   7523SM  C20F 9948   0.272   3.156  14.870  0.3438 -0.1136 -0.0911
   7523SM  H20F 9949   0.370   3.120  14.906 -0.1107 -0.0247  1.2986
   7523SM  H20G 9950   0.296   3.260  14.838  1.4492 -0.3863 -0.1734
   7523SM  C21F 9951   0.241   3.057  14.754 -0.4688 -0.0523  0.4125
   7523SM  H21F 9952   0.145   3.089  14.707 -0.7010  0.1139  1.0028
   7523SM  H21G 9953   0.217   2.954  14.789 -2.8525  1.1451  2.5977
   7523SM  C22F 9954   0.358   3.046  14.655  0.2869 -0.2306 -0.6701
   7523SM  H22F 9955   0.458   3.059  14.701  1.2573 -0.2325 -2.6984
   7523SM  H22G 9956   0.341   3.137  14.595 -2.3587 -0.2988 -0.1622
   7523SM  C23F 9957   0.361   2.921  14.565  0.1649 -1.5649  0.1914
   7523SM  H23F 9958   0.438   2.920  14.485  1.5112 -2.1566  1.4312
   7523SM  H23G 9959   0.269   2.924  14.504  0.8265 -2.6352 -0.8969
   7523SM  H23H 9960   0.364   2.827  14.626  2.2603 -1.6087  0.0741
   7623SM     N 9961   1.079   4.116  17.601  0.2661 -0.4117  0.1741
   7623SM   C15 9962   0.945   4.047  17.613 -0.0171  0.0151  0.2705
   7623SM  H15A 9963   0.867   4.118  17.635  1.5813  1.6944  0.8575
   7623SM  H15B 9964   0.938   3.972  17.691 -3.4548  1.4212  1.5213
   7623SM  H15C 9965   0.920   3.991  17.524  0.0648  2.0615 -1.0970
   7623SM   C14 9966   1.082   4.226  17.714  0.8732 -0.0655  0.0159
   7623SM  H14A 9967   1.180   4.267  17.730  0.9232 -0.6562  1.3093
   7623SM  H14B 9968   1.046   4.185  17.807  0.7574 -2.5795 -1.0549
   7623SM  H14C 9969   1.015   4.306  17.685 -1.2176 -1.5439  0.4741
   7623SM   C13 9970   1.182   4.014  17.629  0.1994 -0.0440 -0.5538
   7623SM  H13A 9971   1.160   3.972  17.726 -0.6948  3.3039  0.8321
   7623SM  H13B 9972   1.280   4.058  17.622 -0.6357  1.6930 -2.4469
   7623SM  H13C 9973   1.164   3.935  17.558  0.8434 -1.2345  0.5590
   7623SM   C12 9974   1.098   4.185  17.466 -0.8588 -0.1695  0.8352
   7623SM  H12A 9975   1.202   4.212  17.457 -1.2716  0.8250 -1.8095
   7623SM  H12B 9976   1.039   4.275  17.463 -0.9188 -0.1862  1.5371
   7623SM   C11 9977   1.076   4.108  17.335 -0.0946 -0.7683 -0.4868
   7623SM  H11A 9978   1.142   4.019  17.345  0.6511  0.0301  3.1911
   7623SM  H11B 9979   1.118   4.175  17.257 -2.3767 -0.4753 -1.5395
   7623SM     P 9980   0.847   4.193  17.249 -0.1746  0.8420  0.2362
   7623SM   O13 9981   0.712   4.129  17.224 -0.0463 -0.4120 -0.2404
   7623SM   O14 9982   0.851   4.313  17.335 -0.1326 -0.2282 -0.4617
   7623SM   O11 9983   0.916   4.230  17.112  0.4811 -0.1635 -0.0295
   7623SM   O12 9984   0.933   4.078  17.316 -0.3855 -0.3899  0.0745
   7623SM   C1S 9985   0.944   4.129  17.019 -0.1293 -0.2197 -0.4556
   7623SM   H1S 9986   0.856   4.063  16.998 -0.0414 -0.3688 -0.3532
   7623SM   H1T 9987   1.021   4.058  17.055 -0.8404 -2.9249 -3.6800
   7623SM    NF 9988   0.991   4.094  16.777  0.0240  0.1293 -0.2830
   7623SM   HNF 9989   1.084   4.080  16.742 -0.7947 -0.9138 -2.1301
   7623SM   C2S 9990   0.992   4.196  16.884  0.4477  0.7122 -0.0525
   7623SM   H2S 9991   0.917   4.268  16.845 -0.5689 -0.0621  0.4434
   7623SM   C3S 9992   1.122   4.287  16.907  0.3637  0.4068 -0.1637
   7623SM   H3S 9993   1.201   4.211  16.926  0.5873  0.4449 -0.8985
   7623SM    O3 9994   1.115   4.367  17.028  0.0012 -0.3597 -0.1514
   7623SM   HO3 9995   1.042   4.337  17.082 -0.2279 -2.8824 -1.6896
   7623SM   C4S 9996   1.161   4.362  16.784 -0.0774  0.6359  0.4315
   7623SM   H4S 9997   1.252   4.314  16.744 -0.3738 -1.4395  2.0937
   7623SM   C5S 9998   1.105   4.467  16.724 -0.0209 -0.3292  0.0859
   7623SM   H5S 9999   1.017   4.508  16.776 -0.2065  0.7178 -1.0099
   7623SM   C6S10000   1.161   4.527  16.596  0.0704  0.0334 -0.6124
   7623SM   H6S10001   1.263   4.483  16.587 -0.2495 -1.2072  1.3956
   7623SM   H6T10002   1.159   4.638  16.606 -1.8317 -0.1951  2.6683
   7623SM   C7S10003   1.079   4.499  16.465  0.0411  0.0655 -0.9649
   7623SM   H7S10004   0.973   4.532  16.475  0.1732  0.7693 -1.7640
   7623SM   H7T10005   1.087   4.389  16.449 -0.7789 -0.1188 -0.2047
   7623SM   C8S10006   1.141   4.559  16.338 -0.0327  0.0893 -0.3621
   7623SM   H8S10007   1.244   4.518  16.345 -0.0159  0.1116 -0.4794
   7623SM   H8T10008   1.135   4.669  16.353 -0.7840  0.2657 -1.7905
   7623SM   C9S10009   1.086   4.511  16.198 -0.2060  0.7289  1.1224
   7623SM   H9S10010   0.983   4.546  16.178 -1.1137 -0.9105  2.7246
   7623SM   H9T10011   1.086   4.400  16.200 -1.9832  0.6991  0.9048
   7623SM  C10S10012   1.175   4.568  16.087 -0.2007 -0.6526 -0.0434
   7623SM  H10S10013   1.282   4.562  16.115  0.5986  2.0468 -2.0018
   7623SM  H10T10014   1.154   4.677  16.089 -1.3396 -0.8433 -0.7644
   7623SM  C11S10015   1.161   4.494  15.949 -0.0874 -0.4431 -0.2269
   7623SM  H11S10016   1.052   4.473  15.940 -0.5228  1.7511 -0.5700
   7623SM  H11T10017   1.222   4.403  15.930  2.3588  0.7691  1.2072
   7623SM  C12S10018   1.181   4.594  15.826 -0.4803 -0.5616  0.8248
   7623SM  H12S10019   1.273   4.655  15.827 -1.2659  0.6825  0.0856
   7623SM  H12T10020   1.095   4.664  15.821 -1.3990 -1.6592  0.6144
   7623SM  C13S10021   1.179   4.509  15.695  0.8981  0.2915  0.3113
   7623SM  H13S10022   1.082   4.456  15.689  1.2704 -0.2584 -1.4684
   7623SM  H13T10023   1.268   4.443  15.696  1.2047  0.6973  1.3486
   7623SM  C14S10024   1.205   4.589  15.565 -0.4189 -0.3527 -0.1243
   7623SM  H14S10025   1.310   4.623  15.572 -0.7574  1.0176 -1.2769
   7623SM  H14T10026   1.148   4.684  15.558 -1.3344 -0.7461  1.4271
   7623SM  C15S10027   1.194   4.509  15.430 -0.0667  0.3803  0.1088
   7623SM  H15S10028   1.087   4.496  15.401 -0.5369  2.5927  0.6967
   7623SM  H15T10029   1.234   4.406  15.442 -0.4133  0.1723 -0.4562
   7623SM  C16S10030   1.276   4.568  15.312  0.2725 -0.8922 -0.0688
   7623SM  H16S10031   1.386   4.558  15.323  0.7043  2.9172  0.4994
   7623SM  H16T10032   1.237   4.672  15.312  0.0948 -0.9242  1.7390
   7623SM  C17S10033   1.250   4.500  15.175  0.1581  0.4620 -0.1777
   7623SM  H17S10034   1.291   4.565  15.095  1.6967  1.3976  1.3111
   7623SM  H17T10035   1.141   4.490  15.156  0.4146 -2.3722 -0.7118
   7623SM  C18S10036   1.311   4.358  15.157 -0.3623  0.7363  0.4927
   7623SM  H18S10037   1.252   4.282  15.211  0.0875  0.8753  1.1982
   7623SM  H18T10038   1.418   4.354  15.186 -0.0522  1.4168 -0.4918
   7623SM  H18U10039   1.296   4.318  15.055 -1.1782 -1.6944  1.5094
   7623SM   C1F10040   0.884   4.032  16.735 -0.1020  0.2041  0.6975
   7623SM    OF10041   0.770   4.078  16.765 -0.3099  0.1873  0.4357
   7623SM   C2F10042   0.901   3.904  16.655  0.1159  0.5145  0.1807
   7623SM   H2F10043   0.882   3.824  16.730 -0.2736  2.6396  2.5055
   7623SM   H2G10044   1.009   3.898  16.631  0.0468  0.0315 -0.0253
   7623SM   C3F10045   0.822   3.894  16.517 -0.6185  0.1469  0.9776
   7623SM   H3F10046   0.855   3.973  16.447  3.1042 -2.0620 -0.0333
   7623SM   H3G10047   0.716   3.910  16.545 -0.1125 -0.0601  3.2107
   7623SM   C4F10048   0.862   3.761  16.456 -0.3354 -0.2059  0.3560
   7623SM   H4F10049   0.812   3.670  16.493 -0.4797 -0.8808 -1.4250
   7623SM   H4G10050   0.971   3.756  16.476 -0.5501  1.3580  2.3194
   7623SM   C5F10051   0.843   3.769  16.308  0.4681  0.1255 -0.1090
   7623SM   H5F10052   0.910   3.844  16.260  0.2658 -0.3278 -1.1296
   7623SM   H5G10053   0.736   3.796  16.294  0.6788  0.0897 -2.0239
   7623SM   C6F10054   0.870   3.630  16.255 -0.1474  0.5457  0.7293
   7623SM   H6F10055   0.794   3.553  16.279 -1.2441  0.5471 -2.3416
   7623SM   H6G10056   0.974   3.604  16.282  1.4903  3.5608 -1.9436
   7623SM   C7F10057   0.874   3.627  16.091 -0.4454  0.7655 -0.3509
   7623SM   H7F10058   0.774   3.642  16.046 -1.4107  1.0392  1.7443
   7623SM   H7G10059   0.901   3.524  16.059 -2.4085  0.3544 -0.7943
   7623SM   C8F10060   0.984   3.719  16.029 -0.4119 -0.1634 -0.3857
   7623SM   H8F10061   1.076   3.710  16.090  0.0091 -2.0367 -1.2312
   7623SM   H8G10062   0.943   3.822  16.039  1.3165  0.7276 -1.8733
   7623SM   C9F10063   1.008   3.703  15.882  0.4103  0.0486  0.0118
   7623SM   H9F10064   1.058   3.605  15.870 -1.7422 -1.3388  1.6871
   7623SM   H9G10065   1.079   3.777  15.840  0.2771  0.5206  0.5996
   7623SM  C10F10066   0.887   3.699  15.787 -0.5704 -0.3610  0.3897
   7623SM  H10F10067   0.854   3.801  15.757  1.9587  0.8408  1.3993
   7623SM  H10G10068   0.797   3.649  15.830 -1.5780 -2.1000 -3.2868
   7623SM  C11F10069   0.918   3.633  15.649 -0.1067  0.3513  0.3465
   7623SM  H11F10070   0.825   3.627  15.590  0.9257 -0.4944 -1.2711
   7623SM  H11G10071   0.969   3.538  15.677 -0.9431  0.1723  1.2979
   7623SM  C12F10072   1.023   3.707  15.563  0.9128 -0.1929 -0.0749
   7623SM  H12F10073   1.118   3.693  15.620  0.2683  2.7212  1.9137
   7623SM  H12G10074   0.991   3.813  15.564  3.7250  0.7288  0.6968
   7623SM  C13F10075   1.031   3.656  15.419  0.8313 -0.6568 -0.2215
   7623SM  H13F10076   1.080   3.733  15.355  0.7940 -0.4783 -0.0356
   7623SM  H13G10077   0.925   3.643  15.387  1.3566 -2.1283 -1.4727
   7623SM  C14F10078   1.098   3.521  15.404  0.5414  0.1784  0.2290
   7623SM  H14F10079   1.057   3.455  15.483  1.0528 -0.0056  0.3497
   7623SM  H14G10080   1.209   3.522  15.416  0.3709  1.2090  2.0166
   7623SM  C15F10081   1.070   3.455  15.264 -0.1198 -0.2476  0.4196
   7623SM  H15F10082   0.964   3.488  15.255  0.3748  1.2740 -0.2550
   7623SM  H15G10083   1.070   3.344  15.258 -1.2527 -0.2729  0.6241
   7623SM  C16F10084   1.152   3.517  15.149 -0.0791 -1.1530  0.0367
   7623SM  H16F10085   1.259   3.489  15.144 -0.0515 -0.9063 -1.0404
   7623SM  H16G10086   1.159   3.626  15.172 -1.3480 -0.9651 -0.3928
   7623SM  C17F10087   1.080   3.497  15.013 -0.1030  0.4374 -0.6739
   7623SM  H17F10088   0.977   3.537  15.009  1.1397  3.9938 -0.4742
   7623SM  H17G10089   1.064   3.387  15.002 -0.7800  0.3564  0.7954
   7623SM  C18F10090   1.144   3.546  14.880  0.1342  0.3937  0.3639
   7623SM  H18F10091   1.093   3.512  14.787 -1.7731  0.4400  1.3469
   7623SM  H18G10092   1.242   3.494  14.873  0.4993  1.2947 -2.2484
   7623SM  C19F10093   1.166   3.701  14.870 -0.2390 -0.9232  0.2395
   7623SM  H19F10094   1.251   3.727  14.936 -0.6655  2.0621 -0.2408
   7623SM  H19G10095   1.073   3.759  14.891  0.0307 -0.4127  0.0261
   7623SM  C20F10096   1.212   3.726  14.726 -0.1277  0.0512 -0.7821
   7623SM  H20F10097   1.146   3.678  14.652 -1.3104  0.3078  0.0672
   7623SM  H20G10098   1.310   3.683  14.697 -0.6659 -0.4281 -1.9552
   7623SM  C21F10099   1.207   3.883  14.707  0.2548  0.6408  0.3135
   7623SM  H21F10100   1.289   3.931  14.765  0.4314  1.5289 -0.6547
   7623SM  H21G10101   1.107   3.913  14.742 -0.9678 -0.6561 -1.8577
   7623SM  C22F10102   1.230   3.933  14.565  0.3234  0.6543 -0.6724
   7623SM  H22F10103   1.227   4.044  14.568 -1.8752  0.6583 -1.1614
   7623SM  H22G10104   1.155   3.894  14.493  1.3588 -1.4139 -0.6928
   7623SM  C23F10105   1.368   3.891  14.505 -0.6556  0.3378 -0.3286
   7623SM  H23F10106   1.442   3.960  14.551 -1.0220 -0.5599  1.7284
   7623SM  H23G10107   1.362   3.903  14.395 -1.3981  2.8469 -0.0722
   7623SM  H23H10108   1.397   3.788  14.536  1.8984  1.7187  2.3970
   7723SM     N10109   0.926   1.165  16.857  0.8260 -0.2009 -0.0307
   7723SM   C1510110   0.993   1.291  16.837 -0.0585 -0.2769  0.5179
   7723SM  H15A10111   1.092   1.284  16.879 -0.3202 -2.5778  0.9014
   7723SM  H15B10112   0.952   1.376  16.888  0.2313 -0.3135  0.8109
   7723SM  H15C10113   0.997   1.312  16.731 -0.3385  1.5759  0.8382
   7723SM   C1410114   0.783   1.171  16.799 -0.1742 -0.0600  0.4485
   7723SM  H14A10115   0.731   1.254  16.845 -1.8099 -0.2329 -1.0209
   7723SM  H14B10116   0.738   1.076  16.823  0.8876 -0.4922  0.8142
   7723SM  H14C10117   0.776   1.191  16.693 -1.8668  1.5048  0.8039
   7723SM   C1310118   1.006   1.059  16.785  0.8910 -0.5702  0.2755
   7723SM  H13A10119   1.004   1.083  16.679 -2.0252  1.9891  0.7854
   7723SM  H13B10120   0.954   0.965  16.788  0.9136 -0.7162 -1.9479
   7723SM  H13C10121   1.109   1.056  16.818  2.6483  1.3966 -4.1442
   7723SM   C1210122   0.913   1.135  17.008  0.0818  0.1152  0.2333
   7723SM  H12A10123   0.851   1.208  17.057 -2.0074 -0.3963 -1.4979
   7723SM  H12B10124   1.011   1.140  17.054  0.2139 -0.7718  0.0788
   7723SM   C1110125   0.852   1.001  17.049  0.2866  0.5127  0.4162
   7723SM  H11A10126   0.845   0.985  17.159 -0.6343  0.2117  0.3185
   7723SM  H11B10127   0.924   0.925  17.011 -0.7435  1.2770 -3.5126
   7723SM     P10128   0.671   0.839  16.974 -0.3557 -0.0883  0.0906
   7723SM   O1310129   0.707   0.751  17.088 -0.3243  0.1423  0.0583
   7723SM   O1410130   0.531   0.839  16.942  0.3099 -0.4021  0.1869
   7723SM   O1110131   0.761   0.790  16.852  0.7374 -0.3227 -0.4737
   7723SM   O1210132   0.719   0.985  17.001  0.2302 -0.0548  0.1384
   7723SM   C1S10133   0.723   0.834  16.720  0.3379  0.3852  0.8698
   7723SM   H1S10134   0.762   0.936  16.697 -0.8442  0.3601 -1.6919
   7723SM   H1T10135   0.614   0.850  16.703  0.1573 -0.3419  1.3033
   7723SM    NF10136   0.769   0.802  16.476 -0.5185 -0.4876  0.1692
   7723SM   HNF10137   0.711   0.764  16.404  0.0963  0.8040 -1.0605
   7723SM   C2S10138   0.773   0.739  16.599  0.5390 -0.4149 -0.1998
   7723SM   H2S10139   0.871   0.689  16.613 -1.0504 -4.0756 -0.8039
   7723SM   C3S10140   0.688   0.607  16.607 -0.4223  0.3258  0.9664
   7723SM   H3S10141   0.582   0.640  16.595 -0.8855 -1.2431  0.5226
   7723SM    O310142   0.690   0.534  16.731 -0.2762  0.0084 -0.2536
   7723SM   HO310143   0.737   0.595  16.788  1.0215 -2.0620  1.0533
   7723SM   C4S10144   0.710   0.519  16.486  0.2391 -0.2423  0.4791
   7723SM   H4S10145   0.647   0.549  16.400  0.3130 -3.2934 -0.7922
   7723SM   C5S10146   0.789   0.410  16.482  0.3248 -0.1153 -0.1936
   7723SM   H5S10147   0.858   0.395  16.567  0.0779 -2.3857 -0.3174
   7723SM   C6S10148   0.811   0.320  16.366 -0.3665 -0.2054 -0.2715
   7723SM   H6S10149   0.806   0.212  16.390  3.1585 -0.0822  1.7763
   7723SM   H6T10150   0.919   0.330  16.344  0.0473 -0.8697  1.3080
   7723SM   C7S10151   0.742   0.366  16.241 -0.5112  0.1219 -0.0999
   7723SM   H7S10152   0.764   0.474  16.231  3.8795 -0.0693  3.8138
   7723SM   H7T10153   0.634   0.347  16.254 -1.2233  0.0366 -4.5801
   7723SM   C8S10154   0.784   0.283  16.115 -0.2446 -0.0293 -0.0021
   7723SM   H8S10155   0.741   0.180  16.116 -0.4854  0.0608 -0.9415
   7723SM   H8T10156   0.895   0.279  16.117 -0.2118  0.9191  0.2245
   7723SM   C9S10157   0.737   0.359  15.988  0.2651 -0.0084  0.0173
   7723SM   H9S10158   0.792   0.454  15.978  1.1737 -0.3143  1.7548
   7723SM   H9T10159   0.630   0.383  16.005  0.4740  0.0675  1.2557
   7723SM  C10S10160   0.759   0.280  15.854  0.1598 -0.3776  0.1699
   7723SM  H10S10161   0.734   0.173  15.876 -1.1057  0.0718  1.1029
   7723SM  H10T10162   0.868   0.278  15.833  0.5806  1.0339  1.9724
   7723SM  C11S10163   0.673   0.337  15.745  0.6281 -0.1233  0.9204
   7723SM  H11S10164   0.703   0.444  15.740 -1.9175  0.6349  0.7594
   7723SM  H11T10165   0.570   0.338  15.785  0.5786 -2.6105  1.0051
   7723SM  C12S10166   0.681   0.272  15.605  0.1219 -0.7764 -0.7824
   7723SM  H12S10167   0.611   0.333  15.544 -0.5833  0.0444  0.7881
   7723SM  H12T10168   0.646   0.167  15.607 -0.5234 -0.5589 -0.5456
   7723SM  C13S10169   0.829   0.265  15.561 -0.3434 -0.1998 -0.1042
   7723SM  H13S10170   0.837   0.212  15.464  0.5271  0.2752 -0.3007
   7723SM  H13T10171   0.896   0.207  15.627  3.5015  2.6612 -1.0932
   7723SM  C14S10172   0.900   0.402  15.557  0.5827 -0.4731 -0.5358
   7723SM  H14S10173   0.892   0.465  15.649 -0.2471 -1.3185 -0.0185
   7723SM  H14T10174   0.858   0.472  15.482 -1.6742 -0.7338  0.4216
   7723SM  C15S10175   1.048   0.376  15.542  0.4933 -0.7109  0.5721
   7723SM  H15S10176   1.085   0.305  15.619  0.5213 -0.9399  0.3484
   7723SM  H15T10177   1.104   0.472  15.549 -0.5333  0.0558 -1.1391
   7723SM  C16S10178   1.082   0.315  15.406  0.1601  0.2200 -0.0187
   7723SM  H16S10179   1.045   0.211  15.392 -0.6995  0.6529 -1.1194
   7723SM  H16T10180   1.191   0.293  15.398 -0.2915 -2.5324  0.2748
   7723SM  C17S10181   1.031   0.388  15.276  0.3500 -0.5419  0.3985
   7723SM  H17S10182   1.055   0.496  15.289 -0.1343 -0.2624 -0.9155
   7723SM  H17T10183   0.923   0.365  15.267  0.8198 -2.3767 -1.1157
   7723SM  C18S10184   1.105   0.345  15.147  1.0173 -0.6407 -0.3231
   7723SM  H18S10185   1.132   0.238  15.157  2.5270 -0.1808  0.9886
   7723SM  H18T10186   1.199   0.404  15.139  0.5800 -0.1254 -2.0363
   7723SM  H18U10187   1.043   0.362  15.057  1.5671 -1.0142 -0.7795
   7723SM   C1F10188   0.856   0.893  16.436  1.2263  0.7588 -0.3548
   7723SM    OF10189   0.934   0.938  16.515  0.1289 -0.2320  0.5035
   7723SM   C2F10190   0.855   0.927  16.289  1.0823  0.5144 -0.0435
   7723SM   H2F10191   0.767   0.992  16.270  0.8486  0.9475  2.2521
   7723SM   H2G10192   0.851   0.838  16.223  0.9244  0.0668  0.5671
   7723SM   C3F10193   0.968   1.020  16.245 -0.9616  0.1802 -0.4280
   7723SM   H3F10194   1.057   0.957  16.267 -2.4291 -2.3211 -1.2445
   7723SM   H3G10195   0.973   1.116  16.300  1.5193 -1.5640  2.7504
   7723SM   C4F10196   0.971   1.035  16.087 -0.5484  0.2776 -0.3505
   7723SM   H4F10197   0.882   1.101  16.077 -1.6703 -0.9303  1.2422
   7723SM   H4G10198   0.963   0.939  16.031 -0.1578  1.2692 -2.1922
   7723SM   C5F10199   1.100   1.113  16.046 -0.5699 -0.1242 -0.2643
   7723SM   H5F10200   1.197   1.062  16.061  0.4826  1.6772 -0.6636
   7723SM   H5G10201   1.092   1.205  16.109 -1.0257 -0.4490  0.1623
   7723SM   C6F10202   1.097   1.143  15.902  0.0698  0.7442  0.2424
   7723SM   H6F10203   1.016   1.217  15.881 -2.6292 -1.9950  0.2706
   7723SM   H6G10204   1.074   1.049  15.847 -1.7697  0.0265  2.0896
   7723SM   C7F10205   1.219   1.202  15.843  0.0393 -0.5496 -0.4723
   7723SM   H7F10206   1.306   1.133  15.849  2.8022  2.8182  0.7653
   7723SM   H7G10207   1.251   1.295  15.893 -0.1003 -0.4968 -0.4793
   7723SM   C8F10208   1.192   1.253  15.698 -0.0356 -0.1048  0.6689
   7723SM   H8F10209   1.113   1.331  15.708  0.5410  0.5972 -0.0263
   7723SM   H8G10210   1.165   1.164  15.638  2.7738  0.2901 -1.4201
   7723SM   C9F10211   1.311   1.322  15.631  0.4452  0.0830  0.2200
   7723SM   H9F10212   1.327   1.415  15.689 -1.1189 -0.1133  1.0242
   7723SM   H9G10213   1.301   1.347  15.523 -0.7778 -0.5584  0.1654
   7723SM  C10F10214   1.444   1.242  15.645 -0.0154 -0.4523  0.2797
   7723SM  H10F10215   1.432   1.164  15.568 -1.7023  1.8009 -1.8957
   7723SM  H10G10216   1.457   1.192  15.743 -1.8917 -0.5225  0.5246
   7723SM  C11F10217   1.560   1.332  15.607  0.2515 -0.1773  0.6784
   7723SM  H11F10218   1.550   1.433  15.653 -0.9697  0.4129 -0.8244
   7723SM  H11G10219   1.553   1.341  15.497 -2.0421  1.2011  0.8705
   7723SM  C12F10220   1.690   1.272  15.656 -0.5477 -0.6248 -0.4342
   7723SM  H12F10221   1.708   1.172  15.610 -0.5255 -1.0235  0.4189
   7723SM  H12G10222   1.674   1.259  15.765 -0.3210  0.5330 -0.2522
   7723SM  C13F10223   1.814   1.363  15.630 -0.1473  0.5539  0.4955
   7723SM  H13F10224   1.799   1.465  15.670 -0.3232  0.2571  1.2091
   7723SM  H13G10225   1.820   1.367  15.519  0.3196 -2.1304  0.3357
   7723SM  C14F10226   1.939   1.290  15.686 -0.0316 -0.0168 -0.1076
   7723SM  H14F10227   1.967   1.194  15.638  0.2603 -1.3188  2.5146
   7723SM  H14G10228   1.920   1.270  15.793  0.2122 -0.0419 -0.0675
   7723SM  C15F10229   2.064   1.381  15.679  0.0337 -0.4809  0.3082
   7723SM  H15F10230   2.144   1.359  15.753  0.2658  1.1576  0.5928
   7723SM  H15G10231   2.022   1.482  15.701 -1.8422 -1.0062 -0.6443
   7723SM  C16F10232   2.126   1.383  15.536 -0.3980 -0.4225  0.0416
   7723SM  H16F10233   2.166   1.487  15.529 -1.0398 -0.1941 -0.3089
   7723SM  H16G10234   2.053   1.365  15.455  0.0834  0.5383 -0.6366
   7723SM  C17F10235   2.242   1.287  15.524  0.0502  0.1733 -0.3474
   7723SM  H17F10236   2.210   1.186  15.558 -2.8117  1.4870  1.2293
   7723SM  H17G10237   2.323   1.326  15.590  0.2150  0.6974 -0.8485
   7723SM  C18F10238   2.303   1.269  15.388  0.0105  0.1516 -0.3919
   7723SM  H18F10239   2.302   1.365  15.333 -2.2027 -0.0852 -0.8881
   7723SM  H18G10240   2.233   1.205  15.329  0.3980  0.5819 -1.3497
   7723SM  C19F10241   2.437   1.196  15.406 -0.4617  0.1841  0.0728
   7723SM  H19F10242   2.415   1.093  15.440 -0.2886 -0.2427 -1.0442
   7723SM  H19G10243   2.488   1.250  15.488 -0.8144  1.5513 -0.5766
   7723SM  C20F10244   2.523   1.198  15.273  0.1102 -0.4520  0.1760
   7723SM  H20F10245   2.529   1.304  15.242  2.0396 -0.1666  1.3892
   7723SM  H20G10246   2.473   1.132  15.197  0.9500  0.7014 -1.4433
   7723SM  C21F10247   2.664   1.147  15.320  0.6883 -0.1728 -0.2144
   7723SM  H21F10248   2.690   1.205  15.411 -0.5741  1.2552 -0.7297
   7723SM  H21G10249   2.737   1.170  15.240 -2.3927  0.9105 -2.8857
   7723SM  C22F10250   2.662   0.997  15.320  0.4852  0.0484  0.0626
   7723SM  H22F10251   2.624   0.945  15.230 -1.3351  1.2114  0.1140
   7723SM  H22G10252   2.582   0.976  15.395 -0.5174  0.6365 -0.8156
   7723SM  C23F10253   2.795   0.951  15.375 -0.4748  0.0342 -0.4595
   7723SM  H23F10254   2.881   0.981  15.313 -1.7442 -0.8084 -2.7606
   7723SM  H23G10255   2.799   0.840  15.365 -0.2810  0.2101 -2.8570
   7723SM  H23H10256   2.805   0.995  15.476 -2.1258  1.3504 -0.8216
   7823SM     N10257   2.027   6.105  17.449 -0.1491 -0.2554 -0.1187
   7823SM   C1510258   1.903   6.092  17.540  0.0951 -0.1833 -0.4285
   7823SM  H15A10259   1.842   6.009  17.506 -2.1000  0.7268  1.0630
   7823SM  H15B10260   1.840   6.179  17.546  0.1438 -0.1422 -0.4997
   7823SM  H15C10261   1.929   6.073  17.643 -0.0128 -1.3583 -0.6066
   7823SM   C1410262   2.103   6.230  17.495 -0.5520  0.4075  0.1905
   7823SM  H14A10263   2.192   6.255  17.439  0.3384  1.3660  1.9566
   7823SM  H14B10264   2.137   6.216  17.597 -0.1223 -4.3282 -0.3923
   7823SM  H14C10265   2.031   6.310  17.488 -0.4069  0.5385  0.1866
   7823SM   C1310266   2.121   5.982  17.459  0.6815 -0.0457  0.0193
   7823SM  H13A10267   2.140   5.953  17.561  2.0224 -0.1992 -0.2527
   7823SM  H13B10268   2.212   6.010  17.409 -0.8887  0.4510 -2.7805
   7823SM  H13C10269   2.069   5.896  17.419 -0.5147 -0.1437  1.6804
   7823SM   C1210270   1.995   6.120  17.300  1.1567 -0.8012 -0.0865
   7823SM  H12A10271   1.968   6.023  17.262 -0.5839 -0.3736 -0.0577
   7823SM  H12B10272   2.087   6.155  17.255  0.3186 -0.2455 -1.4288
   7823SM   C1110273   1.891   6.222  17.250 -0.2269 -1.0542 -0.6254
   7823SM  H11A10274   1.798   6.175  17.288 -0.9024 -0.5376 -1.5952
   7823SM  H11B10275   1.881   6.211  17.140  0.5593  0.2837 -0.8570
   7823SM     P10276   1.998   6.464  17.246 -0.0261  0.1682 -0.3259
   7823SM   O1310277   1.914   6.556  17.169 -0.9323  0.1613  0.2095
   7823SM   O1410278   2.078   6.527  17.355 -0.1724  0.1391  0.4839
   7823SM   O1110279   2.088   6.385  17.149 -0.1927  0.7261  0.5562
   7823SM   O1210280   1.906   6.353  17.312  0.6028 -0.1387 -0.6221
   7823SM   C1S10281   2.057   6.374  17.010 -0.0207 -0.4221  0.3199
   7823SM   H1S10282   2.050   6.476  16.967 -0.2019 -0.4102  0.3790
   7823SM   H1T10283   1.954   6.341  16.985 -0.6053  1.9000 -0.5490
   7823SM    NF10284   2.137   6.296  16.778  0.3717  0.0013  0.1015
   7823SM   HNF10285   2.081   6.223  16.740 -0.8270  0.7673  0.3429
   7823SM   C2S10286   2.170   6.298  16.923 -0.2240 -0.0170  0.9307
   7823SM   H2S10287   2.269   6.346  16.933  1.1512 -2.3718 -0.6372
   7823SM   C3S10288   2.192   6.163  16.992 -0.0206 -0.2763  0.0456
   7823SM   H3S10289   2.090   6.118  16.995 -0.3573  0.4890  0.2503
   7823SM    O310290   2.251   6.165  17.126 -0.0051  0.4895  0.1949
   7823SM   HO310291   2.259   6.258  17.148 -0.3424  0.6889 -0.4880
   7823SM   C4S10292   2.277   6.085  16.900 -0.0523  1.1150  0.6092
   7823SM   H4S10293   2.216   6.012  16.844 -0.6930  2.5211 -0.6060
   7823SM   C5S10294   2.404   6.085  16.878  0.7728  0.0117 -0.0517
   7823SM   H5S10295   2.473   6.150  16.935 -2.3533  3.6706 -0.0797
   7823SM   C6S10296   2.478   5.977  16.804  0.2100  0.0673  0.1091
   7823SM   H6S10297   2.534   5.900  16.860  2.0958  0.9990 -0.4091
   7823SM   H6T10298   2.558   6.036  16.753  0.7612  0.5042  1.4372
   7823SM   C7S10299   2.404   5.892  16.698  0.2296 -0.3229 -0.7445
   7823SM   H7S10300   2.309   5.842  16.725 -0.6150  1.0464 -1.1148
   7823SM   H7T10301   2.486   5.819  16.677 -0.2879 -0.6500 -1.6919
   7823SM   C8S10302   2.374   5.964  16.565 -0.1373 -0.4399  0.5631
   7823SM   H8S10303   2.471   5.959  16.512  0.3638 -2.7929  1.5309
   7823SM   H8T10304   2.363   6.073  16.583 -1.8002 -0.8290  2.2835
   7823SM   C9S10305   2.256   5.912  16.480 -0.2673 -0.7466 -0.5315
   7823SM   H9S10306   2.180   5.888  16.558  0.8234  2.1613  1.6414
   7823SM   H9T10307   2.281   5.823  16.420 -0.2047 -0.1043 -1.4729
   7823SM  C10S10308   2.204   6.018  16.383 -0.7748 -0.0618 -0.4904
   7823SM  H10S10309   2.150   6.098  16.437 -0.3540 -0.7677  1.0450
   7823SM  H10T10310   2.135   5.963  16.316 -0.0490 -0.5591 -0.8451
   7823SM  C11S10311   2.316   6.084  16.294  0.5075 -0.2333  0.0334
   7823SM  H11S10312   2.353   6.004  16.226  0.7789  0.2485 -0.3925
   7823SM  H11T10313   2.394   6.130  16.358 -0.7815  0.9976  0.7894
   7823SM  C12S10314   2.259   6.193  16.205 -0.2388  0.3701  0.1894
   7823SM  H12S10315   2.340   6.227  16.136 -1.7952  0.2992 -1.7586
   7823SM  H12T10316   2.228   6.278  16.269  2.8904  0.8389  1.2434
   7823SM  C13S10317   2.142   6.137  16.107  0.4414  0.0687 -0.5424
   7823SM  H13S10318   2.059   6.081  16.156  0.3229  1.2203  0.6262
   7823SM  H13T10319   2.194   6.053  16.057 -0.0536 -0.4685 -0.1636
   7823SM  C14S10320   2.086   6.246  16.015  1.0781  0.1599  0.4266
   7823SM  H14S10321   2.173   6.271  15.952  1.5630 -1.9617  0.1517
   7823SM  H14T10322   2.042   6.331  16.072  0.0044 -1.2859  1.8584
   7823SM  C15S10323   1.984   6.185  15.906  0.1055  0.4048 -0.6852
   7823SM  H15S10324   1.950   6.258  15.830 -1.6949  0.2289 -0.0867
   7823SM  H15T10325   1.894   6.156  15.963  0.8769 -2.3259 -0.7400
   7823SM  C16S10326   2.028   6.060  15.819 -0.3606  0.2168  0.4257
   7823SM  H16S10327   1.943   6.035  15.752  0.7958  0.3140 -1.1372
   7823SM  H16T10328   2.050   5.974  15.885 -1.3376 -1.6693 -1.5776
   7823SM  C17S10329   2.154   6.082  15.732 -0.1371 -0.0507  0.1201
   7823SM  H17S10330   2.249   6.100  15.786  1.2932 -0.6072 -2.0718
   7823SM  H17T10331   2.136   6.174  15.672  2.4028  0.5548  0.1744
   7823SM  C18S10332   2.166   5.970  15.630 -0.5088 -0.4431  0.3134
   7823SM  H18S10333   2.259   5.986  15.572 -0.5989  2.3622  0.7842
   7823SM  H18T10334   2.075   5.953  15.567  1.6386 -0.8713 -2.9123
   7823SM  H18U10335   2.186   5.873  15.679  0.9593 -1.6002 -2.3792
   7823SM   C1F10336   2.150   6.407  16.707 -0.3188 -0.3230 -0.5784
   7823SM    OF10337   2.188   6.512  16.763 -0.2974  0.3069  0.3947
   7823SM   C2F10338   2.129   6.404  16.560 -0.4743 -0.6290 -0.0935
   7823SM   H2F10339   2.054   6.323  16.549 -0.1536 -0.9743  0.2237
   7823SM   H2G10340   2.223   6.378  16.508 -0.1856 -0.8569  0.5276
   7823SM   C3F10341   2.053   6.535  16.514  0.1638 -0.4482 -0.1906
   7823SM   H3F10342   2.112   6.627  16.533  0.6009  0.1600 -3.7401
   7823SM   H3G10343   1.963   6.543  16.577 -0.2112  0.5249 -0.8353
   7823SM   C4F10344   2.004   6.535  16.363 -0.6806  0.9701 -0.8366
   7823SM   H4F10345   1.932   6.453  16.343  0.7448 -0.4554 -0.3714
   7823SM   H4G10346   2.087   6.495  16.301 -1.2507 -0.9596 -0.4155
   7823SM   C5F10347   1.956   6.668  16.315  0.8126 -0.2749 -0.3968
   7823SM   H5F10348   2.040   6.738  16.333  0.4954  0.1828 -0.6762
   7823SM   H5G10349   1.873   6.708  16.376  2.6358  0.8540  1.4863
   7823SM   C6F10350   1.905   6.662  16.168  0.0921  0.7009  0.2596
   7823SM   H6F10351   1.849   6.754  16.140 -0.2773  0.4787  0.2632
   7823SM   H6G10352   1.830   6.582  16.152 -0.9248  1.6247  0.2803
   7823SM   C7F10353   2.015   6.629  16.071  0.3543  0.1855 -0.0594
   7823SM   H7F10354   2.061   6.531  16.094  0.0139  0.3617  1.4205
   7823SM   H7G10355   2.093   6.708  16.083  0.8425 -0.4783  1.2589
   7823SM   C8F10356   1.965   6.651  15.928  0.5335  0.4641  0.2094
   7823SM   H8F10357   1.916   6.751  15.927 -0.6209 -0.0922 -0.7892
   7823SM   H8G10358   1.889   6.574  15.905 -0.8851  0.9531  2.8415
   7823SM   C9F10359   2.086   6.637  15.827 -0.2131 -0.3140  0.9520
   7823SM   H9F10360   2.107   6.530  15.804  0.0313 -0.1661  0.4964
   7823SM   H9G10361   2.175   6.689  15.869 -1.7628  2.1710  1.3176
   7823SM  C10F10362   2.049   6.695  15.692  0.5960 -0.8177  0.1127
   7823SM  H10F10363   1.997   6.793  15.705  0.2535 -0.6424 -2.1027
   7823SM  H10G10364   1.984   6.627  15.634 -1.6776  0.6933  0.7609
   7823SM  C11F10365   2.169   6.726  15.604  0.6735 -0.6238 -0.5314
   7823SM  H11F10366   2.245   6.791  15.652  1.1165  0.2461 -2.3241
   7823SM  H11G10367   2.135   6.777  15.511 -2.3218 -0.1857  0.6707
   7823SM  C12F10368   2.240   6.599  15.549 -0.1271 -0.7730 -0.4285
   7823SM  H12F10369   2.165   6.544  15.489 -1.2546  0.4044 -0.1492
   7823SM  H12G10370   2.261   6.540  15.641 -1.4746 -2.0267 -0.8973
   7823SM  C13F10371   2.375   6.627  15.481 -0.2084  0.4761 -0.1998
   7823SM  H13F10372   2.446   6.546  15.507 -1.8395 -0.9482  0.0524
   7823SM  H13G10373   2.424   6.716  15.526 -0.3070 -0.5366  2.0528
   7823SM  C14F10374   2.374   6.650  15.328 -0.1215 -0.0778 -0.4037
   7823SM  H14F10375   2.475   6.678  15.293 -0.8073 -0.7177 -3.1198
   7823SM  H14G10376   2.317   6.745  15.318  1.3537  0.8582 -0.2436
   7823SM  C15F10377   2.315   6.546  15.235  0.1344 -0.2302 -0.4813
   7823SM  H15F10378   2.213   6.524  15.275  0.1102 -1.1074 -1.0151
   7823SM  H15G10379   2.384   6.460  15.233  0.8815  0.2463  1.5459
   7823SM  C16F10380   2.294   6.596  15.089  0.4205  0.5326 -0.0017
   7823SM  H16F10381   2.207   6.665  15.092 -0.3790 -0.4610  0.4115
   7823SM  H16G10382   2.263   6.508  15.028 -1.7016  0.5034  1.0279
   7823SM  C17F10383   2.416   6.653  15.029 -0.4402  0.2495 -0.1836
   7823SM  H17F10384   2.441   6.614  14.928  0.4969 -1.4051  0.6452
   7823SM  H17G10385   2.512   6.640  15.084  1.0392  3.1542 -1.8354
   7823SM  C18F10386   2.395   6.799  15.009  1.0105  0.5761 -0.5869
   7823SM  H18F10387   2.365   6.832  15.110  1.7830 -0.1170 -0.1141
   7823SM  H18G10388   2.311   6.809  14.937 -0.0964  0.7600  0.7035
   7823SM  C19F10389   2.525   6.876  14.974  1.0230  0.1753 -0.4723
   7823SM  H19F10390   2.582   6.888  15.068 -2.6759  1.1545  1.8334
   7823SM  H19G10391   2.489   6.979  14.950 -0.2700  0.1579  1.2131
   7823SM  C20F10392   2.602   6.816  14.854 -0.4200  0.0406 -0.8968
   7823SM  H20F10393   2.546   6.793  14.760 -0.0510  2.0579 -1.6617
   7823SM  H20G10394   2.640   6.719  14.893 -1.7813  0.8062  2.6816
   7823SM  C21F10395   2.721   6.907  14.814 -0.2103 -0.2881  0.5120
   7823SM  H21F10396   2.784   6.928  14.904 -1.2449 -2.1002  1.7346
   7823SM  H21G10397   2.687   7.009  14.784 -2.7796 -0.0201  3.7772
   7823SM  C22F10398   2.818   6.844  14.709 -0.3241  0.0196 -0.5828
   7823SM  H22F10399   2.851   6.746  14.748  0.9806  0.0393 -1.5401
   7823SM  H22G10400   2.910   6.907  14.709  1.4844 -2.4728  1.1097
   7823SM  C23F10401   2.763   6.840  14.569 -0.0286 -0.1649  0.4222
   7823SM  H23F10402   2.657   6.809  14.556 -0.0654  0.5597 -1.3164
   7823SM  H23G10403   2.825   6.775  14.504  1.6587  1.5687  0.1944
   7823SM  H23H10404   2.780   6.941  14.524  1.1456 -0.4828  0.1202
   7923SM     N10405   7.323   7.430  16.699  0.5186 -0.1962  0.3774
   7923SM   C1510406   7.351   7.296  16.774  0.0440  0.0940  0.1869
   7923SM  H15A10407   7.270   7.233  16.740  1.9916 -3.9924  2.3499
   7923SM  H15B10408   7.357   7.306  16.882  1.3831 -0.0270  0.1364
   7923SM  H15C10409   7.437   7.244  16.737 -0.6367 -1.4387  0.6518
   7923SM   C1410410   7.193   7.483  16.755  0.2495 -0.2339 -0.0834
   7923SM  H14A10411   7.117   7.409  16.777 -1.2234  1.5586  1.2633
   7923SM  H14B10412   7.151   7.556  16.687  0.2017  0.6005  0.8111
   7923SM  H14C10413   7.212   7.525  16.853  2.5093 -0.1884 -0.5021
   7923SM   C1310414   7.434   7.529  16.726 -0.4177 -0.1246  0.0988
   7923SM  H13A10415   7.446   7.554  16.830  0.9729  0.9535 -0.2939
   7923SM  H13B10416   7.415   7.619  16.670  0.0286 -1.0578 -1.6484
   7923SM  H13C10417   7.527   7.485  16.691 -0.6267 -1.1412  0.7531
   7923SM   C1210418   7.329   7.406  16.548 -0.1025 -0.1722  0.2894
   7923SM  H12A10419   7.305   7.498  16.497 -0.0298  0.9699  2.2123
   7923SM  H12B10420   7.250   7.337  16.522 -0.8670  1.1590 -1.1091
   7923SM   C1110421   7.458   7.351  16.483  0.3119 -0.0970  0.3482
   7923SM  H11A10422   7.546   7.418  16.489  0.5432 -0.2822 -0.7461
   7923SM  H11B10423   7.435   7.348  16.375 -0.4027 -1.3231  0.5093
   7923SM     P10424   7.623   7.172  16.583  0.2412 -0.0127  0.4003
   7923SM   O1310425   7.720   7.278  16.584 -0.6106 -0.1790 -0.7101
   7923SM   O1410426   7.591   7.098  16.711 -0.5850  0.0716  0.1638
   7923SM   O1110427   7.671   7.061  16.485  0.1088  0.0510 -0.4152
   7923SM   O1210428   7.485   7.217  16.513  0.5985  0.4362 -0.0106
   7923SM   C1S10429   7.576   6.952  16.448 -0.6589 -0.2565  0.0693
   7923SM   H1S10430   7.480   6.944  16.502 -1.1088 -1.1438 -0.8423
   7923SM   H1T10431   7.632   6.860  16.476 -2.6692 -1.4587  0.2778
   7923SM    NF10432   7.480   6.816  16.259  0.1221 -0.2611 -0.3914
   7923SM   HNF10433   7.525   6.742  16.210 -0.9170 -0.1119 -1.6341
   7923SM   C2S10434   7.553   6.939  16.294  0.2430  0.5262 -0.5551
   7923SM   H2S10435   7.493   7.029  16.270 -0.5107 -0.1519 -1.2708
   7923SM   C3S10436   7.686   6.955  16.221  0.5210  0.2372 -0.6572
   7923SM   H3S10437   7.756   6.879  16.263 -0.0729  1.7765  3.5841
   7923SM    O310438   7.760   7.077  16.241 -0.5792 -0.2363 -0.6849
   7923SM   HO310439   7.729   7.106  16.327  0.8635 -0.5476 -0.0360
   7923SM   C4S10440   7.666   6.947  16.072  0.7938 -0.0781 -0.1951
   7923SM   H4S10441   7.600   7.027  16.035 -0.7796 -1.5322 -0.6488
   7923SM   C5S10442   7.725   6.850  15.995  0.6374 -0.3543 -0.4545
   7923SM   H5S10443   7.771   6.759  16.038 -0.5021 -1.7441 -2.0567
   7923SM   C6S10444   7.710   6.851  15.843 -0.1090  0.3192 -0.2037
   7923SM   H6S10445   7.630   6.778  15.817  1.0334 -0.6468 -1.1874
   7923SM   H6T10446   7.801   6.819  15.788 -1.2763 -0.1004 -1.9855
   7923SM   C7S10447   7.671   6.984  15.776  0.0610  0.4037 -0.2392
   7923SM   H7S10448   7.740   7.065  15.808  0.2558  0.6891 -1.3489
   7923SM   H7T10449   7.569   7.008  15.812  0.3469  0.8726  0.2812
   7923SM   C8S10450   7.656   6.950  15.625  0.1319 -0.3863  0.0711
   7923SM   H8S10451   7.553   6.913  15.610  0.5907 -0.9304 -2.2544
   7923SM   H8T10452   7.738   6.876  15.607  0.3067 -0.8648  2.5076
   7923SM   C9S10453   7.682   7.073  15.544 -0.0199 -1.0228  0.6104
   7923SM   H9S10454   7.783   7.101  15.579 -0.2221 -0.4713  0.7736
   7923SM   H9T10455   7.616   7.158  15.575  1.6684  1.1524 -1.3255
   7923SM  C10S10456   7.657   7.056  15.396 -0.8298 -0.0720  0.0711
   7923SM  H10S10457   7.692   6.956  15.362 -1.1169 -0.5145  1.0637
   7923SM  H10T10458   7.728   7.124  15.344  0.4287  0.2547  2.1334
   7923SM  C11S10459   7.511   7.083  15.352  0.4444 -0.7391 -0.9271
   7923SM  H11S10460   7.459   7.169  15.400 -0.5064 -2.3140  1.0226
   7923SM  H11T10461   7.444   7.002  15.388  2.1663 -2.0391 -0.4714
   7923SM  C12S10462   7.493   7.059  15.203 -0.0440  0.4353  0.8418
   7923SM  H12S10463   7.389   7.030  15.176  0.3880  0.2354 -0.7017
   7923SM  H12T10464   7.556   6.969  15.187  0.8314  1.1126  0.4071
   7923SM  C13S10465   7.534   7.181  15.105  0.0504  0.0477 -0.4263
   7923SM  H13S10466   7.528   7.142  15.001 -0.8076 -0.8618 -0.0493
   7923SM  H13T10467   7.641   7.210  15.120 -0.7045  2.1376  1.5841
   7923SM  C14S10468   7.433   7.294  15.122 -0.4829 -0.6706  0.1804
   7923SM  H14S10469   7.456   7.363  15.038 -0.2966 -0.6420  0.2537
   7923SM  H14T10470   7.451   7.351  15.215 -3.1529  2.1337 -0.8746
   7923SM  C15S10471   7.280   7.257  15.112  0.0158  0.2792 -0.2332
   7923SM  H15S10472   7.243   7.208  15.205 -0.9964  1.1330 -0.1720
   7923SM  H15T10473   7.282   7.186  15.026 -1.5133  0.5148 -0.4850
   7923SM  C16S10474   7.197   7.380  15.087  0.2445 -0.4857  0.2986
   7923SM  H16S10475   7.118   7.347  15.016 -0.6417  0.8732  0.6260
   7923SM  H16T10476   7.254   7.465  15.044 -2.1913  0.9437 -0.2313
   7923SM  C17S10477   7.118   7.429  15.214 -0.3773  0.4233 -0.6787
   7923SM  H17S10478   7.190   7.489  15.274  0.4843 -1.9516  0.7937
   7923SM  H17T10479   7.088   7.346  15.281  0.7019  0.3813 -0.2200
   7923SM  C18S10480   6.994   7.510  15.169 -0.0422 -0.5290  0.2856
   7923SM  H18S10481   7.034   7.595  15.109  0.5347 -1.0792 -0.1221
   7923SM  H18T10482   6.936   7.557  15.252 -0.0523  1.6530 -0.8679
   7923SM  H18U10483   6.927   7.447  15.107 -1.0309  1.0068 -0.2633
   7923SM   C1F10484   7.355   6.794  16.305 -0.6429  0.3573  0.9391
   7923SM    OF10485   7.285   6.881  16.361  0.7203  0.3394 -0.0407
   7923SM   C2F10486   7.297   6.654  16.282  0.1420 -0.2108  0.3041
   7923SM   H2F10487   7.202   6.648  16.339 -0.5560  0.7679 -0.7268
   7923SM   H2G10488   7.368   6.576  16.318  0.6706  0.1874  0.1364
   7923SM   C3F10489   7.262   6.610  16.138 -0.0895 -0.5556  0.4783
   7923SM   H3F10490   7.354   6.616  16.076 -0.0671 -1.5088  0.4151
   7923SM   H3G10491   7.179   6.676  16.102  0.7865  0.1684 -0.2544
   7923SM   C4F10492   7.222   6.461  16.132  0.0071 -0.0787  1.0030
   7923SM   H4F10493   7.136   6.452  16.201  0.7771 -1.5576  1.8307
   7923SM   H4G10494   7.302   6.388  16.159  0.2092 -0.6021 -0.8735
   7923SM   C5F10495   7.191   6.419  15.988 -0.2124  0.0605  0.3476
   7923SM   H5F10496   7.283   6.446  15.932 -0.6918  0.1865 -0.3818
   7923SM   H5G10497   7.105   6.470  15.943  1.5039  2.0315 -0.8507
   7923SM   C6F10498   7.157   6.268  15.977  0.2685 -0.0929 -0.3461
   7923SM   H6F10499   7.125   6.269  15.871 -0.8098  2.1910 -0.0623
   7923SM   H6G10500   7.066   6.237  16.032  0.8540 -1.8130 -0.2779
   7923SM   C7F10501   7.271   6.179  16.020 -0.1504  0.0738 -0.3638
   7923SM   H7F10502   7.276   6.151  16.127  1.7046 -0.1653 -0.4726
   7923SM   H7G10503   7.366   6.226  15.987  0.0586 -0.7103 -0.9291
   7923SM   C8F10504   7.258   6.051  15.940 -0.1547 -0.3770  0.1151
   7923SM   H8F10505   7.255   6.085  15.834  0.7608 -1.4667 -0.2801
   7923SM   H8G10506   7.168   5.999  15.980  0.9572 -0.6848  2.3859
   7923SM   C9F10507   7.366   5.951  15.964 -0.4270  0.9399  0.2088
   7923SM   H9F10508   7.336   5.845  15.954  3.4491 -0.3498  0.6326
   7923SM   H9G10509   7.391   5.952  16.073 -0.6908 -0.9681  0.3122
   7923SM  C10F10510   7.496   5.978  15.888 -0.3128 -0.4460  0.0672
   7923SM  H10F10511   7.545   6.075  15.912  0.6495 -0.3746 -2.0047
   7923SM  H10G10512   7.471   5.988  15.780  0.0959  0.4821  0.0495
   7923SM  C11F10513   7.607   5.874  15.907  0.0608  0.0041  0.2075
   7923SM  H11F10514   7.566   5.775  15.880 -0.2437  1.1035 -4.0505
   7923SM  H11G10515   7.654   5.887  16.007  0.5771  2.3014 -0.2723
   7923SM  C12F10516   7.734   5.881  15.815  0.0902  0.0521  0.0371
   7923SM  H12F10517   7.786   5.786  15.841 -2.3631 -1.3193  0.2419
   7923SM  H12G10518   7.790   5.972  15.844 -0.4041 -0.1755  1.8695
   7923SM  C13F10519   7.706   5.880  15.667 -0.1695  0.1787 -0.1913
   7923SM  H13F10520   7.649   5.974  15.647 -1.3862 -0.7370 -1.2519
   7923SM  H13G10521   7.629   5.808  15.631 -1.3821  1.4620 -0.2705
   7923SM  C14F10522   7.828   5.869  15.577 -0.2918  0.2427  0.4026
   7923SM  H14F10523   7.908   5.931  15.623 -0.7945  0.4571  1.0165
   7923SM  H14G10524   7.819   5.909  15.474 -0.8386  1.4347  0.8832
   7923SM  C15F10525   7.879   5.724  15.559  1.2661 -0.0396  0.0904
   7923SM  H15F10526   7.803   5.667  15.501  0.7791 -2.5929  2.9525
   7923SM  H15G10527   7.886   5.676  15.660 -0.6916  1.6125  1.0789
   7923SM  C16F10528   8.003   5.719  15.476 -0.3139 -0.1613 -0.1501
   7923SM  H16F10529   8.080   5.792  15.509 -0.7078  1.3259 -2.3095
   7923SM  H16G10530   7.962   5.757  15.380 -1.2740 -1.0491 -0.1078
   7923SM  C17F10531   8.056   5.572  15.465  0.2294 -0.4940  0.5653
   7923SM  H17F10532   7.970   5.501  15.475 -1.3911  1.0937 -1.1644
   7923SM  H17G10533   8.121   5.556  15.553  0.8195  0.0087  0.2301
   7923SM  C18F10534   8.104   5.538  15.323  0.2854  0.0980 -0.5700
   7923SM  H18F10535   8.140   5.433  15.328 -0.4520 -0.0980  2.1758
   7923SM  H18G10536   8.195   5.601  15.310 -0.9966  2.3239  0.6292
   7923SM  C19F10537   7.997   5.533  15.211 -0.3056  0.3312  0.1907
   7923SM  H19F10538   7.958   5.635  15.193 -0.5355  0.2263  0.0892
   7923SM  H19G10539   7.917   5.465  15.250  1.1849 -0.2999  2.3606
   7923SM  C20F10540   8.048   5.488  15.066 -0.5104 -0.2079 -0.5245
   7923SM  H20F10541   8.155   5.456  15.065 -0.4537 -0.1778  1.4313
   7923SM  H20G10542   8.044   5.573  14.995 -1.5455 -1.2039 -1.7205
   7923SM  C21F10543   7.964   5.367  14.995  0.0232  0.1420 -0.5428
   7923SM  H21F10544   7.858   5.380  15.024  0.3716 -1.5501  1.7845
   7923SM  H21G10545   7.993   5.280  15.058 -0.0857  1.3821  1.3005
   7923SM  C22F10546   7.974   5.359  14.843  0.3878  0.7533  0.0919
   7923SM  H22F10547   7.945   5.458  14.801 -1.3081  0.2170 -0.0661
   7923SM  H22G10548   7.903   5.287  14.798 -1.5379  0.7967  2.8080
   7923SM  C23F10549   8.120   5.326  14.797  0.4137  0.6444  0.1230
   7923SM  H23F10550   8.164   5.231  14.832  1.5647  0.2069 -2.3495
   7923SM  H23G10551   8.176   5.418  14.826  0.5274  0.3543  0.8646
   7923SM  H23H10552   8.130   5.323  14.687 -2.9620 -2.6452 -0.2723
   8023SM     N10553   0.746   7.444  17.360  0.0719 -0.6562 -0.5778
   8023SM   C1510554   0.602   7.469  17.331  0.2087  0.7534 -0.5492
   8023SM  H15A10555   0.577   7.550  17.265  0.0126  1.5608  0.4902
   8023SM  H15B10556   0.546   7.492  17.421  1.3612 -0.4127  0.5087
   8023SM  H15C10557   0.561   7.377  17.291  2.8781 -1.6798  1.7584
   8023SM   C1410558   0.792   7.546  17.458 -0.2773  0.2395  0.3814
   8023SM  H14A10559   0.779   7.646  17.419 -2.2481 -0.2174 -0.2758
   8023SM  H14B10560   0.896   7.533  17.481 -0.0908  1.0954  0.0509
   8023SM  H14C10561   0.748   7.549  17.557 -0.1544  1.7216  0.4046
   8023SM   C1310562   0.757   7.313  17.431 -0.5368 -0.0887  0.0620
   8023SM  H13A10563   0.690   7.306  17.514 -1.8570 -1.0930 -1.0487
   8023SM  H13B10564   0.857   7.287  17.464 -0.7264 -0.3945  0.3951
   8023SM  H13C10565   0.732   7.235  17.361 -1.0394  0.4401 -0.3652
   8023SM   C1210566   0.829   7.461  17.229  0.6264  0.2941 -0.0064
   8023SM  H12A10567   0.935   7.450  17.250  0.0086 -0.1602  3.4936
   8023SM  H12B10568   0.805   7.552  17.176 -0.1391 -2.0661 -4.1432
   8023SM   C1110569   0.793   7.359  17.118 -0.7405  0.4490 -0.0151
   8023SM  H11A10570   0.837   7.378  17.018 -0.9030 -3.4581 -0.9825
   8023SM  H11B10571   0.683   7.355  17.103 -0.7496  1.8058 -0.4619
   8023SM     P10572   1.000   7.188  17.162  0.2163  0.1726  0.2034
   8023SM   O1310573   1.066   7.298  17.244  0.1394 -0.0487 -0.3393
   8023SM   O1410574   1.021   7.052  17.209 -0.1586  0.1749 -0.4800
   8023SM   O1110575   1.037   7.197  17.009  0.2147  0.3388 -0.0371
   8023SM   O1210576   0.840   7.230  17.161 -0.0880 -0.2945 -0.1275
   8023SM   C1S10577   0.951   7.146  16.907 -0.0934  0.2408 -0.1651
   8023SM   H1S10578   0.848   7.180  16.929  0.4697  0.6982  1.9662
   8023SM   H1T10579   0.956   7.035  16.906 -1.2557  0.1698  0.4547
   8023SM    NF10580   0.893   7.167  16.653  0.1360  0.3736  0.3291
   8023SM   HNF10581   0.929   7.108  16.581  1.5777  0.7930  0.6732
   8023SM   C2S10582   0.987   7.214  16.762 -0.1669  0.6863 -0.2315
   8023SM   H2S10583   0.973   7.321  16.788  0.1250  1.0363 -1.4660
   8023SM   C3S10584   1.134   7.200  16.730 -0.2422  0.1583 -0.3857
   8023SM   H3S10585   1.154   7.091  16.718  0.0544 -0.0958  1.9715
   8023SM    O310586   1.218   7.247  16.833  0.3256  0.0405  0.3001
   8023SM   HO310587   1.167   7.226  16.912  0.9805 -1.5708  0.3189
   8023SM   C4S10588   1.170   7.275  16.605  0.2094  0.6345  0.5156
   8023SM   H4S10589   1.203   7.379  16.617  1.4251  0.1511  1.6588
   8023SM   C5S10590   1.192   7.210  16.489 -0.9911 -0.0408 -0.7573
   8023SM   H5S10591   1.189   7.100  16.485 -1.5457 -0.1635  1.6790
   8023SM   C6S10592   1.234   7.280  16.367 -0.1621  0.0885 -0.3498
   8023SM   H6S10593   1.271   7.383  16.384 -0.7144  0.9121 -3.6197
   8023SM   H6T10594   1.146   7.288  16.300 -1.6134 -1.4218  1.2708
   8023SM   C7S10595   1.341   7.212  16.274  0.2812 -0.5300 -0.6286
   8023SM   H7S10596   1.295   7.120  16.234  0.8044 -0.5198 -1.2621
   8023SM   H7T10597   1.425   7.181  16.341 -1.2084 -0.5718  1.3175
   8023SM   C8S10598   1.388   7.302  16.162  0.5608 -0.0658 -0.1034
   8023SM   H8S10599   1.443   7.395  16.189  2.4586 -1.4105  0.9386
   8023SM   H8T10600   1.305   7.335  16.097 -0.6605 -1.9399  0.4198
   8023SM   C9S10601   1.468   7.221  16.061 -0.2146  0.3916  0.3496
   8023SM   H9S10602   1.402   7.135  16.036 -0.1072  0.3561  0.1860
   8023SM   H9T10603   1.561   7.190  16.113 -1.5033 -0.3006  2.3686
   8023SM  C10S10604   1.492   7.307  15.932  0.1334  0.0227 -0.0399
   8023SM  H10S10605   1.538   7.405  15.956  1.4234 -0.5304 -0.1590
   8023SM  H10T10606   1.392   7.327  15.887  0.4075 -0.1078 -0.7118
   8023SM  C11S10607   1.581   7.237  15.830 -0.3805  0.0434  0.3103
   8023SM  H11S10608   1.562   7.128  15.824  0.5222 -0.0724 -0.6961
   8023SM  H11T10609   1.687   7.252  15.862 -0.1424  1.5159 -1.0294
   8023SM  C12S10610   1.570   7.304  15.692 -0.0962  0.6047  0.3066
   8023SM  H12S10611   1.594   7.413  15.695 -1.0118  0.8357 -0.3601
   8023SM  H12T10612   1.465   7.295  15.657 -0.3199  0.0449  1.0889
   8023SM  C13S10613   1.649   7.245  15.573 -1.0866  0.6568 -0.4801
   8023SM  H13S10614   1.616   7.139  15.579 -2.0236  0.9682  0.1056
   8023SM  H13T10615   1.758   7.255  15.590 -1.4344  1.6888  1.3428
   8023SM  C14S10616   1.599   7.303  15.443 -0.5742  0.3288 -0.2452
   8023SM  H14S10617   1.617   7.411  15.423  0.9336  0.3304  0.9898
   8023SM  H14T10618   1.490   7.284  15.439 -0.3554 -0.9497 -0.4458
   8023SM  C15S10619   1.665   7.219  15.321  0.1346  0.4973  0.3229
   8023SM  H15S10620   1.625   7.116  15.318  0.0989  0.5014  0.6580
   8023SM  H15T10621   1.774   7.219  15.339  0.4649 -1.8922 -1.2513
   8023SM  C16S10622   1.648   7.287  15.185  0.2756 -0.4332  0.3448
   8023SM  H16S10623   1.687   7.391  15.186 -0.8183  0.0240 -0.9957
   8023SM  H16T10624   1.540   7.284  15.159 -0.0940 -0.7679  1.8103
   8023SM  C17S10625   1.730   7.205  15.072  0.1150 -0.5974 -0.1207
   8023SM  H17S10626   1.831   7.189  15.114 -0.0394 -2.2137 -0.3229
   8023SM  H17T10627   1.724   7.274  14.985 -1.2816 -0.9752 -0.3534
   8023SM  C18S10628   1.673   7.067  15.040  0.9324 -0.6376  0.0633
   8023SM  H18S10629   1.697   6.988  15.115 -0.4245 -2.4350 -1.3154
   8023SM  H18T10630   1.724   7.034  14.947  1.3457  0.0407  0.0363
   8023SM  H18U10631   1.563   7.068  15.025  0.9356 -2.5762 -0.2580
   8023SM   C1F10632   0.762   7.202  16.661  0.1336  0.4336  0.2327
   8023SM    OF10633   0.714   7.263  16.752 -0.2501 -0.1428  0.4737
   8023SM   C2F10634   0.673   7.152  16.548 -0.1625 -0.8387  0.4676
   8023SM   H2F10635   0.595   7.091  16.597  0.9320 -3.0066 -0.3795
   8023SM   H2G10636   0.729   7.089  16.476  0.0534 -0.1837  0.0472
   8023SM   C3F10637   0.591   7.262  16.476  0.2699 -0.1038  0.0548
   8023SM   H3F10638   0.664   7.323  16.419  0.4451  0.7885  1.1894
   8023SM   H3G10639   0.560   7.338  16.551  3.7919  0.2791  1.3371
   8023SM   C4F10640   0.485   7.213  16.379  0.2207  0.8035  0.0656
   8023SM   H4F10641   0.431   7.296  16.330 -1.6343 -0.9662 -1.0617
   8023SM   H4G10642   0.412   7.153  16.438  0.6462  1.0034  0.8061
   8023SM   C5F10643   0.537   7.118  16.272 -0.0084  0.7526  0.5087
   8023SM   H5F10644   0.575   7.023  16.315  0.7536  1.2302  0.9102
   8023SM   H5G10645   0.627   7.156  16.218  0.3616 -0.1027  0.4982
   8023SM   C6F10646   0.426   7.080  16.174  0.2688  0.4845 -0.2147
   8023SM   H6F10647   0.325   7.056  16.213 -0.2731 -0.2314 -1.9571
   8023SM   H6G10648   0.453   6.984  16.125  0.1818  1.4170 -2.1939
   8023SM   C7F10649   0.396   7.182  16.060  0.0068  0.0838 -0.1725
   8023SM   H7F10650   0.490   7.228  16.023  0.2541 -1.2845 -1.3656
   8023SM   H7G10651   0.319   7.253  16.095  0.0428  0.0982 -0.1236
   8023SM   C8F10652   0.326   7.110  15.942 -0.1959 -0.1166 -0.2982
   8023SM   H8F10653   0.233   7.055  15.966 -0.9778  1.3998  0.3195
   8023SM   H8G10654   0.406   7.042  15.906  0.0947 -0.3987  0.8461
   8023SM   C9F10655   0.298   7.211  15.824 -0.1469  0.1841  0.4531
   8023SM   H9F10656   0.219   7.284  15.853  0.8303  1.5046 -0.1055
   8023SM   H9G10657   0.259   7.156  15.736 -0.0170 -1.0329  1.1268
   8023SM  C10F10658   0.419   7.292  15.768 -0.8385 -0.1344  0.2267
   8023SM  H10F10659   0.507   7.238  15.810 -1.8252 -1.8322  0.1982
   8023SM  H10G10660   0.413   7.394  15.810  2.0084  0.9980 -1.7801
   8023SM  C11F10661   0.431   7.276  15.620  0.8211  0.1778  0.5833
   8023SM  H11F10662   0.417   7.173  15.581  0.6147  1.0351 -1.7228
   8023SM  H11G10663   0.536   7.299  15.594  1.0990  1.8283  2.8420
   8023SM  C12F10664   0.329   7.372  15.552  0.0141 -0.1728  0.6423
   8023SM  H12F10665   0.334   7.475  15.593  1.4179  0.6488 -1.4157
   8023SM  H12G10666   0.224   7.340  15.568 -0.5631  0.8694 -0.8172
   8023SM  C13F10667   0.356   7.384  15.396 -0.2515  0.1864  0.0521
   8023SM  H13F10668   0.273   7.432  15.340  1.0359  2.4855 -0.0184
   8023SM  H13G10669   0.376   7.282  15.358  1.7485 -0.2939  2.1519
   8023SM  C14F10670   0.474   7.466  15.359  0.3414 -0.3589 -0.3119
   8023SM  H14F10671   0.574   7.442  15.403  0.2681  1.3225  0.8512
   8023SM  H14G10672   0.459   7.562  15.413  1.3260 -0.1887 -0.3138
   8023SM  C15F10673   0.492   7.494  15.212  0.1251 -0.1027 -0.2288
   8023SM  H15F10674   0.391   7.502  15.164  0.1111 -1.7737 -0.5421
   8023SM  H15G10675   0.543   7.407  15.167 -1.0087 -0.4845 -0.8331
   8023SM  C16F10676   0.578   7.617  15.189 -0.6048 -0.2540 -0.2203
   8023SM  H16F10677   0.540   7.713  15.231  1.8441  1.2035 -1.1049
   8023SM  H16G10678   0.579   7.634  15.079  1.4367  0.0809 -0.1934
   8023SM  C17F10679   0.724   7.599  15.235 -0.0550 -0.6108 -0.6814
   8023SM  H17F10680   0.753   7.495  15.211 -0.1118 -0.2088 -2.7352
   8023SM  H17G10681   0.731   7.621  15.343 -1.9577 -1.7714 -0.2773
   8023SM  C18F10682   0.826   7.686  15.161 -0.6994 -0.3856  0.0234
   8023SM  H18F10683   0.923   7.659  15.208 -0.4231 -0.0252 -0.3284
   8023SM  H18G10684   0.806   7.795  15.172 -1.9496 -0.2526 -2.7237
   8023SM  C19F10685   0.856   7.661  15.010 -0.6860  0.1287 -0.8230
   8023SM  H19F10686   0.760   7.665  14.954 -0.5814 -0.9024 -1.0818
   8023SM  H19G10687   0.883   7.554  15.003 -3.8450 -0.8685  0.3729
   8023SM  C20F10688   0.961   7.756  14.952 -0.1130 -0.4210  0.4417
   8023SM  H20F10689   1.047   7.779  15.018  0.3616  3.1125 -1.1637
   8023SM  H20G10690   0.920   7.857  14.931  1.7109  0.0305 -1.2501
   8023SM  C21F10691   1.013   7.693  14.817  0.4338 -1.0989 -0.0793
   8023SM  H21F10692   0.924   7.680  14.752 -0.7081  1.0251  0.9812
   8023SM  H21G10693   1.045   7.590  14.847  0.2568 -0.5732  2.1058
   8023SM  C22F10694   1.129   7.769  14.755  0.0543 -0.0600  0.6720
   8023SM  H22F10695   1.102   7.874  14.731  0.7915  0.3466  1.5526
   8023SM  H22G10696   1.158   7.731  14.655  0.4160  1.5242  0.1440
   8023SM  C23F10697   1.259   7.771  14.834  0.7561  0.1345  0.5410
   8023SM  H23F10698   1.238   7.819  14.932 -1.2676  2.8702 -1.0906
   8023SM  H23G10699   1.336   7.828  14.778 -0.9708  1.5776 -0.4939
   8023SM  H23H10700   1.305   7.670  14.847  2.0276  0.6725  0.3945
   8123SM     N10701   4.774   2.532  12.574  0.2309  0.2142  0.5138
   8123SM   C1510702   4.887   2.623  12.533 -0.4671 -0.8850 -0.1116
   8123SM  H15A10703   4.876   2.726  12.563  0.5589 -0.6263 -0.5830
   8123SM  H15B10704   4.886   2.622  12.426 -2.3834 -1.2850 -0.1152
   8123SM  H15C10705   4.977   2.578  12.575  0.2410  0.3714 -0.2383
   8123SM   C1410706   4.647   2.572  12.503 -0.0577  0.1611  0.4321
   8123SM  H14A10707   4.560   2.514  12.526 -0.5423  0.4394 -0.6513
   8123SM  H14B10708   4.658   2.575  12.396 -2.9099 -3.5163 -0.1368
   8123SM  H14C10709   4.614   2.672  12.528 -0.5218  0.0387  0.3020
   8123SM   C1310710   4.810   2.398  12.531  0.9319 -0.2505 -0.2536
   8123SM  H13A10711   4.911   2.366  12.553  1.3957  2.2971  1.8547
   8123SM  H13B10712   4.806   2.403  12.423 -1.6969 -1.2018 -0.2711
   8123SM  H13C10713   4.733   2.330  12.565 -0.1322  0.9968 -0.0622
   8123SM   C1210714   4.763   2.535  12.727  0.5072 -0.2182 -0.2399
   8123SM  H12A10715   4.845   2.478  12.768  0.0307 -0.6660  0.1075
   8123SM  H12B10716   4.674   2.479  12.751 -0.9713  2.2542  0.4659
   8123SM   C1110717   4.752   2.674  12.788  0.0127 -0.7474 -1.0862
   8123SM  H11A10718   4.845   2.734  12.786  0.6046 -1.5417  0.6772
   8123SM  H11B10719   4.727   2.653  12.895 -2.0771  2.3201 -0.8523
   8123SM     P10720   4.648   2.899  12.729 -0.2031 -0.4304  0.0531
   8123SM   O1310721   4.762   2.954  12.663 -0.2230  0.5411  0.5309
   8123SM   O1410722   4.515   2.945  12.677  0.5579 -0.5133 -0.1001
   8123SM   O1110723   4.664   2.943  12.880 -0.1122  0.3970 -0.4647
   8123SM   O1210724   4.640   2.746  12.736 -0.0823 -0.2249  0.1374
   8123SM   C1S10725   4.550   2.924  12.965  0.3589  0.1897  0.1156
   8123SM   H1S10726   4.501   2.825  12.955  0.3283  0.3165 -1.3004
   8123SM   H1T10727   4.469   2.996  12.942 -0.4196 -0.1970  1.5418
   8123SM    NF10728   4.462   2.952  13.202 -0.0124 -0.0473  0.4984
   8123SM   HNF10729   4.440   3.043  13.237  0.1151 -0.0329  0.5403
   8123SM   C2S10730   4.581   2.950  13.118 -0.2732 -0.8753 -0.1799
   8123SM   H2S10731   4.633   2.860  13.156 -0.4648 -0.2198  1.7358
   8123SM   C3S10732   4.673   3.074  13.152 -0.3741  0.0409  0.4700
   8123SM   H3S10733   4.602   3.159  13.164  0.1387  0.4306  0.7513
   8123SM    O310734   4.774   3.100  13.051  0.4287  0.0157 -0.2383
   8123SM   HO310735   4.749   3.049  12.974 -2.2799  1.7396 -0.6362
   8123SM   C4S10736   4.736   3.046  13.292 -0.0525  0.2368  0.0708
   8123SM   H4S10737   4.701   3.102  13.380  0.2834 -0.1896  0.4842
   8123SM   C5S10738   4.843   2.967  13.317  0.1785 -0.2504  0.1118
   8123SM   H5S10739   4.903   2.931  13.232 -0.8988 -0.7874 -0.4404
   8123SM   C6S10740   4.897   2.941  13.457 -0.0187  0.0552  0.3983
   8123SM   H6S10741   4.977   3.012  13.485  0.1776 -0.6394  1.6599
   8123SM   H6T10742   4.925   2.833  13.463 -1.2820 -0.4224 -1.3973
   8123SM   C7S10743   4.794   2.960  13.574 -0.2256 -0.5678 -0.0180
   8123SM   H7S10744   4.701   2.908  13.543 -0.5063  0.9808 -2.0406
   8123SM   H7T10745   4.769   3.068  13.573  1.3713 -0.1655  0.0701
   8123SM   C8S10746   4.828   2.919  13.716  0.0289 -0.1361 -0.4074
   8123SM   H8S10747   4.898   2.833  13.711  1.4766  0.9714  0.1879
   8123SM   H8T10748   4.735   2.882  13.765 -1.2814 -0.0063 -2.6811
   8123SM   C9S10749   4.882   3.032  13.806  0.3395 -0.2567 -0.9806
   8123SM   H9S10750   4.819   3.123  13.806 -0.1246 -0.5519  0.5449
   8123SM   H9T10751   4.979   3.060  13.760  1.5847 -3.1783 -0.3586
   8123SM  C10S10752   4.903   2.989  13.954 -0.4123  0.2105  0.9044
   8123SM  H10S10753   5.002   3.018  13.994  1.1369 -0.5162 -2.0744
   8123SM  H10T10754   4.897   2.878  13.953  0.5244  0.1573  0.2448
   8123SM  C11S10755   4.788   3.035  14.045  0.3233  0.7013 -0.4478
   8123SM  H11S10756   4.686   3.007  14.011 -0.7537  0.7771  2.4873
   8123SM  H11T10757   4.792   3.144  14.060  1.4755  0.4143  1.6679
   8123SM  C12S10758   4.808   2.968  14.184  0.1376 -0.1518 -0.2372
   8123SM  H12S10759   4.834   2.862  14.163 -1.5869 -0.6254 -0.0933
   8123SM  H12T10760   4.721   2.995  14.248  0.3872 -2.4927  1.2150
   8123SM  C13S10761   4.920   3.036  14.265  0.1626  0.7613  0.3042
   8123SM  H13S10762   4.892   3.138  14.297 -0.3323  0.5692  0.4938
   8123SM  H13T10763   5.012   3.045  14.203 -1.3734 -0.1574 -2.2833
   8123SM  C14S10764   4.946   2.953  14.392  0.2106 -0.2265  0.4146
   8123SM  H14S10765   5.004   2.863  14.363  0.4661 -0.2350  0.9477
   8123SM  H14T10766   4.849   2.919  14.432 -1.3744  0.2892 -2.6924
   8123SM  C15S10767   5.031   3.010  14.510 -0.1605 -0.7420  0.6687
   8123SM  H15S10768   4.976   3.093  14.560 -0.4670 -0.6110  0.1220
   8123SM  H15T10769   5.124   3.061  14.475 -1.0405  0.3414 -0.1843
   8123SM  C16S10770   5.063   2.897  14.602 -0.1328  0.2543 -0.6994
   8123SM  H16S10771   5.112   2.813  14.549 -2.1073 -0.5556 -1.3456
   8123SM  H16T10772   4.969   2.850  14.637  0.0598 -1.3845 -2.2576
   8123SM  C17S10773   5.144   2.939  14.730 -0.1034  0.0685  0.4184
   8123SM  H17S10774   5.090   3.010  14.795  2.1680  1.6402  0.7204
   8123SM  H17T10775   5.239   2.982  14.691 -0.8770 -0.3715 -2.1637
   8123SM  C18S10776   5.188   2.817  14.810  0.2979  0.9062 -0.3472
   8123SM  H18S10777   5.104   2.752  14.842  1.9032 -1.0548  0.1064
   8123SM  H18T10778   5.246   2.855  14.897 -0.9752 -1.7958  1.8349
   8123SM  H18U10779   5.256   2.751  14.752 -2.3512 -1.0336 -1.4761
   8123SM   C1F10780   4.388   2.840  13.216 -0.2697  0.2158  0.3148
   8123SM    OF10781   4.416   2.737  13.158 -0.5520  0.4149 -0.4515
   8123SM   C2F10782   4.275   2.839  13.311 -0.1607  0.0818 -0.1939
   8123SM   H2F10783   4.178   2.867  13.264  0.4219 -0.7944 -2.0199
   8123SM   H2G10784   4.290   2.912  13.394  1.7786 -0.4746 -0.0090
   8123SM   C3F10785   4.263   2.703  13.389 -0.0397 -0.7368  0.5332
   8123SM   H3F10786   4.350   2.701  13.457 -0.8635 -0.4517  1.6128
   8123SM   H3G10787   4.273   2.616  13.320 -0.4091 -1.8253  1.8215
   8123SM   C4F10788   4.132   2.681  13.472 -0.4807  0.0067 -0.1613
   8123SM   H4F10789   4.045   2.718  13.415  1.2338  2.6318 -1.2629
   8123SM   H4G10790   4.138   2.741  13.566 -0.3958 -1.0904  0.5561
   8123SM   C5F10791   4.103   2.533  13.516  0.0670  0.0381  0.0141
   8123SM   H5F10792   4.203   2.491  13.540  0.4424 -0.7166 -2.5013
   8123SM   H5G10793   4.062   2.486  13.423 -1.6419  1.0857  0.1902
   8123SM   C6F10794   4.012   2.508  13.628 -0.1143 -0.3228  0.1143
   8123SM   H6F10795   3.974   2.403  13.622  2.5209 -1.3749  0.3011
   8123SM   H6G10796   3.924   2.572  13.606  1.2006  1.1409 -1.0739
   8123SM   C7F10797   4.061   2.537  13.769 -0.6961  0.4220  0.0550
   8123SM   H7F10798   4.082   2.646  13.764  1.3099  0.1942  1.9181
   8123SM   H7G10799   4.150   2.473  13.784 -0.7899  0.2919  0.0489
   8123SM   C8F10800   3.947   2.494  13.866 -0.0854  0.3724  0.0007
   8123SM   H8F10801   3.942   2.384  13.854 -0.2944  0.4990 -1.2414
   8123SM   H8G10802   3.856   2.552  13.840  0.0634  1.0390  0.9165
   8123SM   C9F10803   3.968   2.517  14.016 -0.8732  0.4089  0.3728
   8123SM   H9F10804   4.014   2.614  14.042 -1.7368  0.4161  2.0053
   8123SM   H9G10805   4.042   2.443  14.053 -1.3318 -0.7209 -0.8734
   8123SM  C10F10806   3.846   2.501  14.109  0.1698  0.3805  0.0432
   8123SM  H10F10807   3.811   2.396  14.095  3.5352 -0.6276 -1.9103
   8123SM  H10G10808   3.770   2.570  14.066 -0.3852  0.3989  1.0101
   8123SM  C11F10809   3.863   2.533  14.259  0.1956  0.1780  0.8473
   8123SM  H11F10810   3.905   2.636  14.255  1.2424 -0.2719 -0.6427
   8123SM  H11G10811   3.942   2.469  14.303  0.8741  1.0326  0.8948
   8123SM  C12F10812   3.737   2.517  14.338  0.0501  0.0956 -0.7630
   8123SM  H12F10813   3.716   2.407  14.338  0.6697 -0.0399  0.2862
   8123SM  H12G10814   3.653   2.562  14.282 -0.9679  0.4082  0.9358
   8123SM  C13F10815   3.732   2.590  14.476 -0.4573  0.9450  0.3526
   8123SM  H13F10816   3.762   2.695  14.453  0.4278  0.3818 -1.2572
   8123SM  H13G10817   3.810   2.538  14.535 -1.8233 -1.1954  0.3997
   8123SM  C14F10818   3.596   2.577  14.550 -0.4137 -0.7425 -0.3274
   8123SM  H14F10819   3.592   2.482  14.608 -0.8459  0.5518  1.8211
   8123SM  H14G10820   3.520   2.570  14.469 -0.5612 -0.1374 -0.2428
   8123SM  C15F10821   3.566   2.696  14.635 -0.8438 -0.3050  0.5241
   8123SM  H15F10822   3.594   2.788  14.580 -1.9021 -0.4682 -0.3159
   8123SM  H15G10823   3.638   2.692  14.720  0.5762 -0.2140 -0.6417
   8123SM  C16F10824   3.432   2.686  14.706  0.3872 -0.3259 -0.1646
   8123SM  H16F10825   3.426   2.602  14.779 -2.7508 -0.4670 -0.4624
   8123SM  H16G10826   3.345   2.673  14.639  0.3461  1.5156 -0.5165
   8123SM  C17F10827   3.408   2.811  14.799 -0.5666 -0.4670 -0.1853
   8123SM  H17F10828   3.417   2.900  14.734 -1.2125 -1.1655 -1.2582
   8123SM  H17G10829   3.477   2.835  14.882 -1.7593  0.8359  0.4860
   8123SM  C18F10830   3.262   2.819  14.848 -0.0644 -0.0502 -0.1503
   8123SM  H18F10831   3.237   2.737  14.920 -0.8463  0.0786 -0.2712
   8123SM  H18G10832   3.201   2.798  14.758  0.4935  0.9174 -0.7583
   8123SM  C19F10833   3.232   2.958  14.895  0.6953  0.5027 -0.3719
   8123SM  H19F10834   3.274   3.037  14.829  2.3079  0.1941  0.2327
   8123SM  H19G10835   3.294   2.975  14.986 -0.7343  2.1033  0.3524
   8123SM  C20F10836   3.085   2.982  14.916  0.3064 -0.1017 -0.0517
   8123SM  H20F10837   3.051   2.918  15.001  2.4806  0.7894  1.5866
   8123SM  H20G10838   3.032   2.940  14.829  0.5479 -1.0811  0.2669
   8123SM  C21F10839   3.053   3.132  14.931 -0.0590 -0.5704  0.5245
   8123SM  H21F10840   3.094   3.191  14.846  0.5416 -0.7278  0.7016
   8123SM  H21G10841   3.104   3.172  15.021 -0.7628 -0.9710  1.1052
   8123SM  C22F10842   2.903   3.144  14.955 -0.3310 -0.5529  0.0769
   8123SM  H22F10843   2.880   3.085  15.046  1.3301  0.1047  0.9727
   8123SM  H22G10844   2.840   3.103  14.873 -0.2349 -1.7092  0.5574
   8123SM  C23F10845   2.867   3.296  14.971 -0.2104 -0.0440 -0.6068
   8123SM  H23F10846   2.899   3.355  14.882  1.7488 -0.7077 -0.3800
   8123SM  H23G10847   2.909   3.356  15.055  0.1499  0.6460 -1.2683
   8123SM  H23H10848   2.757   3.304  14.983  0.1984  2.0701  3.7287
   8223SM     N10849   4.630   3.393  12.619 -0.8111 -0.6715  0.3339
   8223SM   C1510850   4.495   3.400  12.557 -0.4671  0.3299 -0.2209
   8223SM  H15A10851   4.450   3.498  12.560 -0.9736  0.0908  0.2593
   8223SM  H15B10852   4.440   3.323  12.610 -1.2026  1.7045  1.1085
   8223SM  H15C10853   4.508   3.371  12.454 -0.2688 -1.1046  0.1875
   8223SM   C1410854   4.688   3.259  12.613  0.6882  0.3217  0.6967
   8223SM  H14A10855   4.718   3.226  12.514 -1.2075  0.6172 -0.0188
   8223SM  H14B10856   4.618   3.188  12.654 -0.5574  1.4158  0.5516
   8223SM  H14C10857   4.782   3.259  12.666  0.3018  0.9760  1.4037
   8223SM   C1310858   4.712   3.496  12.545  0.3125  0.6774  0.1268
   8223SM  H13A10859   4.713   3.459  12.443  0.0668 -0.1495  0.4101
   8223SM  H13B10860   4.814   3.502  12.578  0.4775  4.3351 -0.6368
   8223SM  H13C10861   4.666   3.593  12.547  0.7865  0.9022  0.1791
   8223SM   C1210862   4.615   3.434  12.767  0.5420  0.6164  0.5975
   8223SM  H12A10863   4.560   3.526  12.763 -0.0694  0.3123  1.5661
   8223SM  H12B10864   4.714   3.444  12.810  0.5156 -2.4269  1.6424
   8223SM   C1110865   4.530   3.349  12.864  0.1180 -0.1380 -0.2993
   8223SM  H11A10866   4.547   3.377  12.970 -1.0970 -0.7390  0.0835
   8223SM  H11B10867   4.574   3.247  12.857  0.0236 -0.3673  1.7793
   8223SM     P10868   4.310   3.472  12.864 -0.0042 -0.1296  0.1928
   8223SM   O1310869   4.383   3.588  12.805  0.0975 -0.0025 -0.1624
   8223SM   O1410870   4.162   3.458  12.827  0.2941 -0.6057 -0.1385
   8223SM   O1110871   4.324   3.487  13.021  0.3208 -0.7039  0.0419
   8223SM   O1210872   4.394   3.341  12.832 -0.4276 -0.0099 -0.5241
   8223SM   C1S10873   4.290   3.385  13.124 -0.1562 -0.4314  0.8661
   8223SM   H1S10874   4.358   3.298  13.120 -0.2524 -0.6079  2.2489
   8223SM   H1T10875   4.194   3.329  13.117  1.0907 -2.5352 -0.0179
   8223SM    NF10876   4.271   3.364  13.375 -0.2512  1.0482  0.1282
   8223SM   HNF10877   4.193   3.379  13.434 -3.3676 -0.4461 -3.2338
   8223SM   C2S10878   4.296   3.455  13.267 -0.5029 -0.4409  0.4789
   8223SM   H2S10879   4.401   3.489  13.278 -1.1364  2.8501 -2.2391
   8223SM   C3S10880   4.201   3.586  13.269 -0.0163  1.1221  0.6574
   8223SM   H3S10881   4.100   3.543  13.255  0.8636 -0.2864 -2.0902
   8223SM    O310882   4.214   3.672  13.155  0.1718  0.5030  0.1535
   8223SM   HO310883   4.264   3.606  13.107 -0.6979 -1.6522  2.0347
   8223SM   C4S10884   4.203   3.661  13.398  0.1402 -0.2118 -0.0967
   8223SM   H4S10885   4.124   3.642  13.472  1.5538 -1.3822  1.1741
   8223SM   C5S10886   4.293   3.758  13.422 -0.4475  0.2244  1.0703
   8223SM   H5S10887   4.365   3.776  13.341 -0.6664  3.2061  1.4422
   8223SM   C6S10888   4.301   3.847  13.543 -0.0180 -0.1856 -0.3174
   8223SM   H6S10889   4.288   3.952  13.510  0.9295  0.3727  0.9921
   8223SM   H6T10890   4.402   3.843  13.590 -0.2709  1.6166  0.4537
   8223SM   C7S10891   4.200   3.806  13.654 -0.4286  0.5078  0.1216
   8223SM   H7S10892   4.219   3.701  13.683  0.1171  0.2824 -0.9952
   8223SM   H7T10893   4.097   3.811  13.613 -0.3905 -0.9993 -0.2145
   8223SM   C8S10894   4.224   3.893  13.779  0.1013 -0.2594 -0.1845
   8223SM   H8S10895   4.193   3.997  13.754 -0.4749 -0.9781 -2.6954
   8223SM   H8T10896   4.333   3.900  13.798  0.2900 -0.6646 -1.0743
   8223SM   C9S10897   4.164   3.856  13.917  0.0024 -0.4046  0.1566
   8223SM   H9S10898   4.196   3.756  13.953 -1.2244 -0.7522  0.3587
   8223SM   H9T10899   4.053   3.858  13.904 -0.1093 -1.9601  0.6219
   8223SM  C10S10900   4.193   3.951  14.030  0.2587 -0.2256  0.7959
   8223SM  H10S10901   4.175   4.056  13.997 -0.6876 -0.7226 -0.3561
   8223SM  H10T10902   4.304   3.945  14.036  0.2230 -0.6291  1.1144
   8223SM  C11S10903   4.120   3.912  14.163 -0.3671 -0.1244  0.5858
   8223SM  H11S10904   4.051   3.825  14.149  1.6969 -1.7024 -0.4209
   8223SM  H11T10905   4.075   4.007  14.198  0.6953 -0.1737  2.1891
   8223SM  C12S10906   4.223   3.893  14.277 -0.3413  0.2844  0.5146
   8223SM  H12S10907   4.293   3.979  14.274 -0.1942  0.1400 -1.0576
   8223SM  H12T10908   4.269   3.795  14.253 -2.8582 -0.9590  0.4948
   8223SM  C13S10909   4.159   3.882  14.418 -0.3429 -0.7271 -0.0380
   8223SM  H13S10910   4.067   3.821  14.408 -0.3247 -0.4318 -2.5162
   8223SM  H13T10911   4.133   3.982  14.458  0.6396  0.3683 -2.0014
   8223SM  C14S10912   4.264   3.806  14.513 -0.0866 -0.7068 -0.0442
   8223SM  H14S10913   4.348   3.875  14.534  0.8034 -1.4772 -0.9838
   8223SM  H14T10914   4.316   3.719  14.469  2.4862  0.2221  0.9946
   8223SM  C15S10915   4.189   3.753  14.641 -0.0047  0.1356  0.3796
   8223SM  H15S10916   4.123   3.669  14.609  0.8850  0.6915 -3.4743
   8223SM  H15T10917   4.125   3.829  14.690  2.0731  1.5891  0.9670
   8223SM  C16S10918   4.291   3.700  14.745 -0.6188  0.6380 -0.5366
   8223SM  H16S10919   4.354   3.785  14.780 -2.6137  2.4568 -1.1852
   8223SM  H16T10920   4.357   3.618  14.708 -3.0986 -0.8085 -2.0950
   8223SM  C17S10921   4.227   3.664  14.884 -0.1043  0.4494  0.2764
   8223SM  H17S10922   4.310   3.610  14.933 -1.3803 -1.4350  0.4547
   8223SM  H17T10923   4.145   3.589  14.880  0.1120  0.2138  0.2291
   8223SM  C18S10924   4.174   3.782  14.960 -0.1924 -0.0498 -0.9265
   8223SM  H18S10925   4.123   3.755  15.055  1.6200  0.4396  0.2400
   8223SM  H18T10926   4.103   3.846  14.904 -1.5857  0.5585  1.4105
   8223SM  H18U10927   4.267   3.838  14.984 -0.9200  0.1824  1.6791
   8223SM   C1F10928   4.349   3.261  13.413 -0.5752  0.6111  0.2844
   8223SM    OF10929   4.442   3.221  13.346  0.6542  0.0405  0.4565
   8223SM   C2F10930   4.331   3.207  13.553  0.5609  0.1228 -0.4269
   8223SM   H2F10931   4.238   3.146  13.553  1.7411 -1.9683 -3.8511
   8223SM   H2G10932   4.320   3.282  13.634  1.7974  0.0731 -0.1990
   8223SM   C3F10933   4.442   3.103  13.584 -0.4086 -0.5003  0.0713
   8223SM   H3F10934   4.540   3.153  13.566  0.5642 -1.7450  1.7008
   8223SM   H3G10935   4.434   3.013  13.520 -0.3113 -0.0288 -0.6212
   8223SM   C4F10936   4.449   3.068  13.732 -0.3832 -0.1099 -0.6860
   8223SM   H4F10937   4.431   3.160  13.791 -1.0955 -1.5109  1.3981
   8223SM   H4G10938   4.542   3.015  13.761 -0.0322 -0.3198 -2.1085
   8223SM   C5F10939   4.347   2.968  13.786 -0.8674 -0.0095  0.6816
   8223SM   H5F10940   4.351   2.868  13.737 -1.0037  0.0204  0.6093
   8223SM   H5G10941   4.243   2.997  13.761 -0.6591 -1.3896 -2.1890
   8223SM   C6F10942   4.361   2.961  13.940 -0.6207  0.0343 -0.3635
   8223SM   H6F10943   4.320   3.055  13.983 -3.5061 -2.7786  3.9222
   8223SM   H6G10944   4.468   2.953  13.968 -0.3200 -0.7449 -1.6808
   8223SM   C7F10945   4.281   2.857  14.013 -0.1303 -0.0613 -0.3636
   8223SM   H7F10946   4.324   2.761  13.976 -0.5643  0.4409 -2.2489
   8223SM   H7G10947   4.174   2.852  13.984  0.0669  0.2593 -1.1809
   8223SM   C8F10948   4.290   2.872  14.165  0.9540 -0.8362  1.2069
   8223SM   H8F10949   4.266   2.976  14.194 -1.6358 -1.1749  0.5543
   8223SM   H8G10950   4.390   2.847  14.205  0.9998 -0.8865  1.0600
   8223SM   C9F10951   4.194   2.783  14.242 -0.7644  0.1165 -0.3295
   8223SM   H9F10952   4.194   2.683  14.194 -3.0592 -0.5813  0.9551
   8223SM   H9G10953   4.092   2.827  14.235 -1.8789 -2.3002 -0.0654
   8223SM  C10F10954   4.241   2.764  14.390  0.0331  0.3948  0.7212
   8223SM  H10F10955   4.236   2.865  14.435 -1.2512  1.3922 -1.5090
   8223SM  H10G10956   4.349   2.739  14.381  0.0427  0.2873  1.1123
   8223SM  C11F10957   4.164   2.662  14.467  0.2205  0.1719 -0.2255
   8223SM  H11F10958   4.145   2.561  14.423  1.1606 -0.1899  0.1700
   8223SM  H11G10959   4.063   2.708  14.475  0.7768  1.1192  1.9132
   8223SM  C12F10960   4.234   2.627  14.604  0.0654 -0.3212  0.3246
   8223SM  H12F10961   4.236   2.720  14.664 -2.0748 -0.6266  0.9493
   8223SM  H12G10962   4.343   2.607  14.591 -0.0052  0.0240 -0.9978
   8223SM  C13F10963   4.170   2.508  14.676  0.4820 -0.4858 -0.1892
   8223SM  H13F10964   4.239   2.447  14.738 -0.2301  0.8233  1.9728
   8223SM  H13G10965   4.116   2.440  14.606 -0.8381  0.6116 -0.2875
   8223SM  C14F10966   4.053   2.558  14.766 -0.1594  0.1021 -0.4663
   8223SM  H14F10967   3.978   2.612  14.704  0.6005  0.1628 -1.3527
   8223SM  H14G10968   4.099   2.622  14.845  0.8963 -1.5213  0.2933
   8223SM  C15F10969   3.975   2.432  14.822  0.4784 -0.0514 -0.1245
   8223SM  H15F10970   4.036   2.363  14.885 -0.4488 -0.4374  0.3597
   8223SM  H15G10971   3.945   2.373  14.733  1.7287 -0.8469 -0.0403
   8223SM  C16F10972   3.845   2.480  14.891  0.1207  0.4871  0.2162
   8223SM  H16F10973   3.790   2.551  14.825 -1.7737  0.2443  1.4443
   8223SM  H16G10974   3.863   2.540  14.983  1.0296  2.0005 -0.9028
   8223SM  C17F10975   3.744   2.367  14.939 -0.5354 -0.2808  0.1708
   8223SM  H17F10976   3.793   2.297  15.010 -0.1364 -0.4488 -0.2625
   8223SM  H17G10977   3.721   2.306  14.850 -0.3893  1.1701 -0.9102
   8223SM  C18F10978   3.615   2.429  14.984  0.3440  0.3902 -0.4780
   8223SM  H18F10979   3.556   2.470  14.900 -0.5452 -0.1736 -0.1482
   8223SM  H18G10980   3.646   2.513  15.049  1.1489  0.5635 -1.0652
   8223SM  C19F10981   3.525   2.324  15.052  0.5605  0.3357 -0.7570
   8223SM  H19F10982   3.500   2.241  14.983  2.3922  0.0384 -1.1022
   8223SM  H19G10983   3.434   2.386  15.071  0.3161 -0.2161 -0.0680
   8223SM  C20F10984   3.569   2.261  15.184  0.2641 -0.2505 -0.1548
   8223SM  H20F10985   3.586   2.340  15.260 -0.7727 -0.2242  0.0644
   8223SM  H20G10986   3.674   2.226  15.172  0.1496 -0.4517 -0.5932
   8223SM  C21F10987   3.475   2.151  15.238  0.1795 -0.2293  0.2795
   8223SM  H21F10988   3.532   2.100  15.318 -0.0223 -1.1591 -0.1487
   8223SM  H21G10989   3.459   2.062  15.173 -0.6763 -0.4394  0.7544
   8223SM  C22F10990   3.342   2.200  15.296  0.2000 -0.4474 -0.6967
   8223SM  H22F10991   3.275   2.116  15.324 -0.5534  1.0461  2.3900
   8223SM  H22G10992   3.288   2.257  15.217  0.7129 -1.5375 -1.8667
   8223SM  C23F10993   3.356   2.293  15.421 -0.7663  0.2376  0.1232
   8223SM  H23F10994   3.251   2.321  15.447 -1.0674 -1.2117  0.5585
   8223SM  H23G10995   3.418   2.383  15.403  0.5096 -0.5278  0.5500
   8223SM  H23H10996   3.405   2.240  15.506  1.1950  3.3980  1.1516
   8323SM     N10997   4.183   3.993  12.844  0.7631 -0.2463 -0.4534
   8323SM   C1510998   4.036   3.959  12.846 -0.0681 -0.1479 -0.0120
   8323SM  H15A10999   3.994   3.997  12.938  0.4059 -0.3288  0.2882
   8323SM  H15B11000   4.014   3.853  12.845 -0.9188 -0.1914  4.1273
   8323SM  H15C11001   3.991   3.994  12.755  0.4097 -0.5076 -0.3928
   8323SM   C1411002   4.235   3.937  12.709 -0.0343 -1.1474 -0.0298
   8323SM  H14A11003   4.177   3.989  12.635 -1.9587 -3.9154 -0.6594
   8323SM  H14B11004   4.228   3.829  12.701 -0.8430 -1.1589  0.7008
   8323SM  H14C11005   4.342   3.954  12.707 -0.6056  3.6184 -1.2277
   8323SM   C1311006   4.224   4.135  12.841  0.3726  0.0408 -0.5258
   8323SM  H13A11007   4.179   4.191  12.761  1.9786 -0.1867 -1.6533
   8323SM  H13B11008   4.331   4.134  12.822  0.4939 -0.6722  0.1211
   8323SM  H13C11009   4.216   4.179  12.939 -0.0295 -2.4632  0.6394
   8323SM   C1211010   4.243   3.914  12.968  0.8813 -0.3780 -0.4574
   8323SM  H12A11011   4.204   3.813  12.974 -0.5015  0.2163  1.5754
   8323SM  H12B11012   4.213   3.955  13.063 -2.7910 -1.1290 -1.1131
   8323SM   C1111013   4.397   3.896  12.992  0.4771 -0.0291  0.7297
   8323SM  H11A11014   4.427   3.829  12.909  0.2295  0.4926  0.2100
   8323SM  H11B11015   4.424   3.839  13.084 -0.3623 -0.5820  0.6389
   8323SM     P11016   4.581   4.047  12.892  0.1585  0.7473  0.1721
   8323SM   O1311017   4.570   3.962  12.767 -0.5298 -0.4073  0.1799
   8323SM   O1411018   4.597   4.193  12.884  0.1370 -0.3840 -0.6781
   8323SM   O1111019   4.702   3.999  12.970 -0.6393  0.6253  0.3813
   8323SM   O1211020   4.455   4.021  12.989 -0.0541 -0.7901  0.1129
   8323SM   C1S11021   4.723   4.008  13.107  0.8661 -0.9352 -0.5234
   8323SM   H1S11022   4.643   4.066  13.159  1.6622  1.6120 -1.9672
   8323SM   H1T11023   4.813   4.070  13.129  0.3611  0.2812 -1.7205
   8323SM    NF11024   4.755   3.914  13.327  0.0686 -0.3636  0.1148
   8323SM   HNF11025   4.849   3.897  13.354  0.2911 -1.2172 -1.1302
   8323SM   C2S11026   4.731   3.875  13.185  0.1719 -0.0584 -0.1218
   8323SM   H2S11027   4.626   3.841  13.168  0.1719 -0.5475  0.8332
   8323SM   C3S11028   4.824   3.768  13.117 -0.3391  0.2126  0.0922
   8323SM   H3S11029   4.924   3.815  13.131 -0.0636  0.5475 -2.5347
   8323SM    O311030   4.822   3.748  12.975  0.8224 -0.2243 -0.4824
   8323SM   HO311031   4.767   3.822  12.948 -1.5895 -1.1102  1.5448
   8323SM   C4S11032   4.816   3.639  13.199  0.1033 -0.7170  0.0067
   8323SM   H4S11033   4.895   3.642  13.275 -0.3372 -2.1261  0.5538
   8323SM   C5S11034   4.723   3.536  13.203  0.1313  0.2778 -0.7623
   8323SM   H5S11035   4.640   3.548  13.133  0.9254 -0.6511 -1.9090
   8323SM   C6S11036   4.712   3.413  13.296 -0.4033  0.3996 -0.2088
   8323SM   H6S11037   4.775   3.333  13.252 -0.0572  0.4218  0.2421
   8323SM   H6T11038   4.606   3.379  13.284 -0.7837  1.3820  0.2839
   8323SM   C7S11039   4.751   3.431  13.441  0.2717  0.0374 -0.3967
   8323SM   H7S11040   4.850   3.479  13.456  1.2789 -2.5128  1.6624
   8323SM   H7T11041   4.753   3.327  13.480 -1.6878  0.3942  0.7788
   8323SM   C8S11042   4.647   3.519  13.516 -0.2869  0.0782 -0.3376
   8323SM   H8S11043   4.551   3.489  13.468 -0.7664 -0.2080  0.7735
   8323SM   H8T11044   4.674   3.624  13.494 -2.3414  0.1278 -3.2600
   8323SM   C9S11045   4.642   3.483  13.666  0.5007 -0.4579  0.1705
   8323SM   H9S11046   4.740   3.481  13.718  0.7734  0.1466 -0.3013
   8323SM   H9T11047   4.601   3.380  13.667  1.4862 -0.8771 -0.7695
   8323SM  C10S11048   4.546   3.575  13.745  0.2709 -0.2457 -0.2745
   8323SM  H10S11049   4.438   3.558  13.724  0.4080 -0.2659 -0.9935
   8323SM  H10T11050   4.563   3.681  13.717 -0.8292 -0.4040 -1.6676
   8323SM  C11S11051   4.559   3.554  13.898 -0.1303 -0.1828  0.4293
   8323SM  H11S11052   4.503   3.635  13.951 -0.0729 -0.0908  0.3504
   8323SM  H11T11053   4.668   3.555  13.917  0.0508  0.9066 -0.5700
   8323SM  C12S11054   4.495   3.422  13.945 -0.5594  0.1250 -0.4469
   8323SM  H12S11055   4.546   3.334  13.899 -0.1176 -0.6132  1.3710
   8323SM  H12T11056   4.388   3.421  13.917 -0.9710  0.8610  1.0151
   8323SM  C13S11057   4.500   3.410  14.107 -0.7166  0.0317  0.0878
   8323SM  H13S11058   4.460   3.500  14.159  1.1140 -0.4609  2.5648
   8323SM  H13T11059   4.611   3.416  14.117 -0.5608  0.6828 -1.6104
   8323SM  C14S11060   4.461   3.282  14.175 -0.9627  0.5321 -0.0310
   8323SM  H14S11061   4.495   3.199  14.109  1.1852  1.8490 -0.6879
   8323SM  H14T11062   4.351   3.266  14.177 -0.7837 -1.6287 -2.0336
   8323SM  C15S11063   4.518   3.268  14.312 -0.8479  0.2853 -0.0080
   8323SM  H15S11064   4.482   3.348  14.381  0.6670 -0.7847  2.1398
   8323SM  H15T11065   4.629   3.269  14.316 -0.8697 -1.0169  2.1431
   8323SM  C16S11066   4.477   3.133  14.382 -0.1595  0.5476 -0.1673
   8323SM  H16S11067   4.533   3.053  14.328  0.8289  1.0016  0.1771
   8323SM  H16T11068   4.368   3.110  14.371  0.0096  0.1504 -1.1400
   8323SM  C17S11069   4.523   3.130  14.526  0.4619 -0.3815 -0.3652
   8323SM  H17S11070   4.480   3.222  14.571  2.3673 -0.1774  1.1573
   8323SM  H17T11071   4.634   3.139  14.529  0.8286 -3.1790 -1.5014
   8323SM  C18S11072   4.480   3.005  14.606 -0.6010 -0.3361  0.3626
   8323SM  H18S11073   4.532   2.998  14.704  2.1173 -1.7095 -1.0641
   8323SM  H18T11074   4.499   2.905  14.561 -1.1399 -0.0166 -0.6034
   8323SM  H18U11075   4.371   3.018  14.626 -0.3607  0.2663  1.3388
   8323SM   C1F11076   4.674   3.976  13.401  0.0169 -0.3560 -0.2057
   8323SM    OF11077   4.561   4.007  13.367 -0.2290 -0.3925 -0.9312
   8323SM   C2F11078   4.728   4.028  13.533  0.3078 -0.6739 -0.2261
   8323SM   H2F11079   4.685   4.125  13.566  1.6949 -0.2928  0.5380
   8323SM   H2G11080   4.837   4.043  13.517  0.2527  1.0369  0.6936
   8323SM   C3F11081   4.709   3.928  13.652  0.6334  0.0973 -0.0528
   8323SM   H3F11082   4.774   3.840  13.635  2.0067  0.5193  2.4822
   8323SM   H3G11083   4.604   3.895  13.637  0.2799  0.3156  1.6609
   8323SM   C4F11084   4.723   3.980  13.796  0.0962 -0.4469 -0.4117
   8323SM   H4F11085   4.659   4.068  13.817  0.2595 -0.7273  1.3941
   8323SM   H4G11086   4.831   4.005  13.803  0.0679 -0.3138 -0.4457
   8323SM   C5F11087   4.681   3.879  13.898  0.2599 -0.0454 -0.3973
   8323SM   H5F11088   4.751   3.792  13.895  1.2037  0.4644  2.8965
   8323SM   H5G11089   4.578   3.853  13.866  0.2875  0.0081 -0.5325
   8323SM   C6F11090   4.687   3.945  14.032  0.2181 -1.0568 -0.2835
   8323SM   H6F11091   4.600   4.014  14.026  0.0932 -1.1125  0.7050
   8323SM   H6G11092   4.783   4.000  14.040 -0.7530  0.4635  1.5773
   8323SM   C7F11093   4.661   3.853  14.150  0.8631 -0.3456 -0.6058
   8323SM   H7F11094   4.728   3.768  14.125 -0.2267 -0.6913 -2.5247
   8323SM   H7G11095   4.555   3.821  14.165  0.9770 -0.1285  0.8564
   8323SM   C8F11096   4.703   3.905  14.291 -0.5218  0.0379  0.5554
   8323SM   H8F11097   4.655   4.002  14.315 -0.8117  0.2263 -0.7189
   8323SM   H8G11098   4.812   3.924  14.275 -0.7864 -1.0598 -3.7116
   8323SM   C9F11099   4.685   3.794  14.393  0.1024 -0.0489 -0.0323
   8323SM   H9F11100   4.760   3.714  14.377  0.3650 -0.2077  1.8022
   8323SM   H9G11101   4.593   3.737  14.367 -0.2664  0.2824  0.5191
   8323SM  C10F11102   4.678   3.841  14.534 -0.6657 -0.0045  0.2747
   8323SM  H10F11103   4.596   3.916  14.543 -0.4185  0.1840  0.9157
   8323SM  H10G11104   4.767   3.898  14.568  0.2748 -0.0974 -1.8485
   8323SM  C11F11105   4.644   3.738  14.645 -0.6211  0.0423  0.0440
   8323SM  H11F11106   4.546   3.691  14.618 -0.4806  0.8685 -2.1677
   8323SM  H11G11107   4.618   3.787  14.741 -3.9885 -2.2377  0.4893
   8323SM  C12F11108   4.758   3.634  14.663 -0.0445  0.3323  0.3002
   8323SM  H12F11109   4.849   3.692  14.689  0.4529  0.2278 -1.1503
   8323SM  H12G11110   4.767   3.587  14.563  0.2249  1.4517 -0.2136
   8323SM  C13F11111   4.732   3.537  14.772  0.3192 -0.5191  0.1616
   8323SM  H13F11112   4.632   3.492  14.757  1.0565 -1.7279 -1.3417
   8323SM  H13G11113   4.730   3.599  14.865  1.6823 -0.5577  0.2366
   8323SM  C14F11114   4.825   3.421  14.792 -0.5429 -0.8111 -0.3279
   8323SM  H14F11115   4.931   3.449  14.810 -0.8731 -0.9582  2.0737
   8323SM  H14G11116   4.812   3.375  14.692 -0.4995  0.9241 -1.1772
   8323SM  C15F11117   4.783   3.319  14.899 -0.5421  0.4494  0.3961
   8323SM  H15F11118   4.685   3.277  14.866  0.5557 -1.1680 -1.0082
   8323SM  H15G11119   4.762   3.376  14.992 -0.7290  2.8698 -1.0336
   8323SM  C16F11120   4.881   3.202  14.914  0.1915 -0.3635 -0.1065
   8323SM  H16F11121   4.970   3.259  14.949  0.1941 -0.5567  0.1979
   8323SM  H16G11122   4.895   3.148  14.818 -0.7657  0.4586 -0.7329
   8323SM  C17F11123   4.839   3.096  15.019  0.4450  0.4881 -0.0842
   8323SM  H17F11124   4.814   3.157  15.108 -1.2382  0.3562 -0.4260
   8323SM  H17G11125   4.913   3.022  15.054 -0.3727 -0.1352  0.3474
   8323SM  C18F11126   4.706   3.014  14.981 -0.4130  0.1429  0.0231
   8323SM  H18F11127   4.678   3.055  14.882 -0.5412 -0.0783 -0.0322
   8323SM  H18G11128   4.616   3.039  15.041 -2.5485  0.5596 -3.1265
   8323SM  C19F11129   4.723   2.863  14.970  0.0722 -0.4062 -0.1958
   8323SM  H19F11130   4.781   2.821  15.055  0.9078  0.4548 -0.3335
   8323SM  H19G11131   4.790   2.850  14.882  0.5005  1.2621 -0.1439
   8323SM  C20F11132   4.594   2.786  14.929 -0.0368  0.4702  0.2889
   8323SM  H20F11133   4.617   2.698  14.866  0.1983  0.6582  0.1117
   8323SM  H20G11134   4.543   2.853  14.857  2.7775  1.6226 -0.7722
   8323SM  C21F11135   4.511   2.740  15.044  0.6619  0.1104 -0.0810
   8323SM  H21F11136   4.485   2.815  15.122  0.5882 -1.0384  1.0454
   8323SM  H21G11137   4.566   2.670  15.110  1.9029  1.5708  0.4880
   8323SM  C22F11138   4.372   2.676  15.008  0.1203  0.1323  0.6810
   8323SM  H22F11139   4.367   2.581  15.064  0.3124 -0.8094 -0.8235
   8323SM  H22G11140   4.355   2.672  14.898  1.6322  2.5906  0.2581
   8323SM  C23F11141   4.263   2.771  15.056 -0.0609 -0.1550  0.6733
   8323SM  H23F11142   4.277   2.800  15.162 -1.9731  0.9781  0.6468
   8323SM  H23G11143   4.163   2.724  15.045  0.4178 -1.0988  0.2090
   8323SM  H23H11144   4.271   2.860  14.990  0.2067 -0.6268  0.0505
   8423SM     N11145   6.193   0.797  12.359  0.0980 -0.1166 -0.8101
   8423SM   C1511146   6.266   0.919  12.311  0.3676  0.2658  0.2684
   8423SM  H15A11147   6.372   0.904  12.327  0.4959  1.2414  0.4029
   8423SM  H15B11148   6.228   1.007  12.361  1.2111 -0.3015  2.0108
   8423SM  H15C11149   6.257   0.933  12.205  1.9429 -0.8286 -0.0447
   8423SM   C1411150   6.048   0.809  12.317  0.9766  0.2426 -0.4598
   8423SM  H14A11151   6.001   0.892  12.368 -0.9875 -1.5274  0.7554
   8423SM  H14B11152   6.001   0.716  12.345  1.2372  0.9164  2.6399
   8423SM  H14C11153   6.048   0.803  12.209 -2.3961 -0.3477 -0.5434
   8423SM   C1311154   6.258   0.681  12.294  0.7881  0.7435 -0.1431
   8423SM  H13A11155   6.202   0.590  12.305 -1.4730  1.9553 -0.8531
   8423SM  H13B11156   6.355   0.663  12.336  0.2465 -0.0915  0.7941
   8423SM  H13C11157   6.265   0.690  12.186  1.0435 -0.2016 -0.2081
   8423SM   C1211158   6.213   0.781  12.515  0.4866  0.0589  1.0027
   8423SM  H12A11159   6.320   0.779  12.535  0.9783  2.1857 -0.9626
   8423SM  H12B11160   6.169   0.689  12.547  0.2268 -0.0060  0.4694
   8423SM   C1111161   6.142   0.895  12.594 -0.5043  0.3812 -0.1968
   8423SM  H11A11162   6.168   0.994  12.551  0.9346  0.0837 -0.0400
   8423SM  H11B11163   6.185   0.882  12.695  2.4930  0.6190 -1.3542
   8423SM     P11164   5.896   0.981  12.644  0.1446 -0.2213 -0.0338
   8423SM   O1311165   5.886   1.077  12.525 -0.4235 -0.4929  0.5001
   8423SM   O1411166   5.773   0.915  12.691  0.5236 -0.9934 -0.4681
   8423SM   O1111167   5.969   1.059  12.760  0.3598  0.0197 -0.6425
   8423SM   O1211168   5.998   0.871  12.596  0.4387 -0.0692  0.3720
   8423SM   C1S11169   5.893   1.154  12.838  0.1950  1.1389  0.0282
   8423SM   H1S11170   5.785   1.131  12.849  0.3420 -0.2580 -1.1056
   8423SM   H1T11171   5.887   1.257  12.797 -0.5310  0.4312 -1.7638
   8423SM    NF11172   5.875   1.228  13.074 -0.3469  0.1480 -0.3754
   8423SM   HNF11173   5.900   1.321  13.100 -0.1402 -0.0391  0.1136
   8423SM   C2S11174   5.959   1.155  12.985  0.1727 -0.4465 -0.0285
   8423SM   H2S11175   5.964   1.051  13.023  1.3196  0.2659  1.8908
   8423SM   C3S11176   6.107   1.210  12.978  0.3947  0.2315 -0.0001
   8423SM   H3S11177   6.107   1.306  12.922 -0.7570  0.1256 -0.2032
   8423SM    O311178   6.191   1.129  12.901  0.6360 -0.5353 -0.0222
   8423SM   HO311179   6.129   1.079  12.847 -3.4517  0.9478  2.8350
   8423SM   C4S11180   6.171   1.223  13.109  1.0898  0.1496 -0.1125
   8423SM   H4S11181   6.180   1.129  13.165 -0.4672  0.8747  1.4505
   8423SM   C5S11182   6.222   1.335  13.155  0.1467  0.3880 -0.5067
   8423SM   H5S11183   6.229   1.426  13.093  3.6999  0.8178  0.3456
   8423SM   C6S11184   6.284   1.359  13.295 -0.3358  0.4161  0.0725
   8423SM   H6S11185   6.259   1.461  13.333 -1.3886 -0.2461  1.2415
   8423SM   H6T11186   6.395   1.357  13.287 -0.4457  0.2776 -1.6209
   8423SM   C7S11187   6.211   1.282  13.409  0.2489 -0.5049 -1.2207
   8423SM   H7S11188   6.216   1.171  13.408  2.6547 -0.5209  1.1798
   8423SM   H7T11189   6.103   1.306  13.412 -0.2123 -1.5250 -4.7312
   8423SM   C8S11190   6.283   1.316  13.545 -0.1568 -1.1139 -0.2578
   8423SM   H8S11191   6.216   1.302  13.632 -1.6226  5.0869  0.0971
   8423SM   H8T11192   6.307   1.424  13.530  1.1732 -1.5141 -1.2238
   8423SM   C9S11193   6.418   1.244  13.559  0.5718  0.7657 -0.6623
   8423SM   H9S11194   6.480   1.260  13.468  0.0321 -0.2321 -1.2265
   8423SM   H9T11195   6.398   1.134  13.558 -0.4999  0.9308  0.1616
   8423SM  C10S11196   6.491   1.268  13.691  0.4986 -0.3320 -0.4233
   8423SM  H10S11197   6.426   1.234  13.775 -0.9952  0.9856 -0.9940
   8423SM  H10T11198   6.497   1.378  13.704 -0.4526 -0.4297  1.1650
   8423SM  C11S11199   6.633   1.208  13.689 -0.2085 -0.1189  0.3886
   8423SM  H11S11200   6.664   1.245  13.589 -3.3291  2.5231  0.2530
   8423SM  H11T11201   6.642   1.098  13.688  0.4315 -0.0791 -1.0318
   8423SM  C12S11202   6.736   1.277  13.788 -0.1567 -0.1172 -0.3298
   8423SM  H12S11203   6.721   1.386  13.775  0.9143  0.2164  1.0398
   8423SM  H12T11204   6.842   1.258  13.758  0.7137  1.5129  1.5422
   8423SM  C13S11205   6.720   1.232  13.932  0.4131 -0.4695 -0.1540
   8423SM  H13S11206   6.711   1.122  13.934  0.8689 -0.5090 -0.0959
   8423SM  H13T11207   6.627   1.274  13.976  0.2950 -1.3827  0.4855
   8423SM  C14S11208   6.829   1.283  14.031  0.4884 -0.3460 -0.1799
   8423SM  H14S11209   6.842   1.393  14.016  0.5540 -0.5620 -1.9431
   8423SM  H14T11210   6.926   1.237  14.003 -0.6626 -1.8860 -1.8594
   8423SM  C15S11211   6.802   1.248  14.176  0.2744 -0.1616  0.4977
   8423SM  H15S11212   6.808   1.138  14.186  0.1157 -0.1909  0.2692
   8423SM  H15T11213   6.700   1.287  14.200  0.2410 -1.0842  2.0288
   8423SM  C16S11214   6.893   1.329  14.273 -0.4450 -0.0668 -0.5451
   8423SM  H16S11215   6.907   1.436  14.249  0.3355  0.1778  0.8864
   8423SM  H16T11216   6.997   1.291  14.263 -0.9885 -2.7725  2.1607
   8423SM  C17S11217   6.842   1.312  14.424  0.0076 -0.5248  0.0918
   8423SM  H17S11218   6.738   1.346  14.440  0.2999 -0.8067  3.1561
   8423SM  H17T11219   6.907   1.382  14.480 -1.7095  1.3243 -0.1230
   8423SM  C18S11220   6.855   1.166  14.471 -0.1746  0.8821  0.7915
   8423SM  H18S11221   6.948   1.127  14.425 -2.2472 -1.0465 -2.1758
   8423SM  H18T11222   6.777   1.105  14.419 -0.6394  1.2644  1.0307
   8423SM  H18U11223   6.853   1.166  14.582 -0.2365 -1.1374  0.8364
   8423SM   C1F11224   5.759   1.186  13.120 -0.0742 -0.4227  0.4082
   8423SM    OF11225   5.713   1.075  13.093 -0.6818 -0.0848 -0.6722
   8423SM   C2F11226   5.692   1.287  13.210  0.4550 -0.1748 -0.1213
   8423SM   H2F11227   5.650   1.373  13.155 -1.0058  0.5408  1.9636
   8423SM   H2G11228   5.773   1.320  13.280  2.3117 -1.5970 -1.4813
   8423SM   C3F11229   5.576   1.227  13.288  0.0065 -0.5171 -0.0236
   8423SM   H3F11230   5.610   1.140  13.348  0.9879  0.2998  0.6268
   8423SM   H3G11231   5.497   1.197  13.215  0.3179 -0.3411 -0.4404
   8423SM   C4F11232   5.515   1.318  13.400 -1.0263 -0.0406 -0.2428
   8423SM   H4F11233   5.600   1.336  13.469 -0.1665 -2.1502 -0.6793
   8423SM   H4G11234   5.449   1.250  13.459  1.2606 -1.4525  0.8338
   8423SM   C5F11235   5.444   1.440  13.350 -0.5568 -0.1027  0.5970
   8423SM   H5F11236   5.388   1.398  13.263  0.3529  0.4264 -0.2759
   8423SM   H5G11237   5.516   1.508  13.300  2.3252 -2.8600  0.7529
   8423SM   C6F11238   5.375   1.499  13.471  0.3657  0.6630  0.3414
   8423SM   H6F11239   5.450   1.504  13.553 -0.7332 -1.0248  1.5265
   8423SM   H6G11240   5.294   1.427  13.498  0.1836  0.2364 -1.2259
   8423SM   C7F11241   5.320   1.645  13.450 -1.0798 -0.0379  1.1345
   8423SM   H7F11242   5.291   1.679  13.552 -1.0091  0.0883  1.1125
   8423SM   H7G11243   5.233   1.654  13.382 -0.2018  1.0280  0.1202
   8423SM   C8F11244   5.430   1.741  13.388  0.2296  0.4141  0.3027
   8423SM   H8F11245   5.462   1.714  13.286  1.2403  0.9331  0.4741
   8423SM   H8G11246   5.517   1.742  13.457  0.2915  1.1723  0.2240
   8423SM   C9F11247   5.375   1.886  13.385  0.2947 -0.0616  0.0804
   8423SM   H9F11248   5.288   1.884  13.316  0.8774  0.4564 -0.6797
   8423SM   H9G11249   5.457   1.946  13.341 -0.8626  0.7697 -1.0079
   8423SM  C10F11250   5.352   1.953  13.522 -0.0525 -0.4876  0.9672
   8423SM  H10F11251   5.435   1.920  13.588  1.2238 -2.3160 -1.4023
   8423SM  H10G11252   5.261   1.904  13.562 -0.8788 -0.4164 -0.7008
   8423SM  C11F11253   5.332   2.103  13.511  0.8428  1.2369  0.2438
   8423SM  H11F11254   5.269   2.117  13.420  1.8866  0.0073 -0.7192
   8423SM  H11G11255   5.427   2.153  13.482  0.5452  2.2516  0.9672
   8423SM  C12F11256   5.250   2.167  13.622 -0.7383 -0.7226 -0.8188
   8423SM  H12F11257   5.149   2.123  13.637 -0.8957 -0.0290  0.3243
   8423SM  H12G11258   5.228   2.273  13.594  0.2541 -0.7188 -1.6619
   8423SM  C13F11259   5.328   2.191  13.754  0.0917 -0.1307  0.3394
   8423SM  H13F11260   5.355   2.097  13.806 -0.4787 -0.0325  0.8181
   8423SM  H13G11261   5.263   2.247  13.824 -0.2372 -0.7016  0.4918
   8423SM  C14F11262   5.462   2.273  13.733  1.1759 -0.5439 -0.3081
   8423SM  H14F11263   5.447   2.376  13.694  0.2989 -0.5118  0.0830
   8423SM  H14G11264   5.523   2.225  13.654  0.2481 -0.1870 -1.2566
   8423SM  C15F11265   5.535   2.295  13.869  0.2773  0.7550 -0.8068
   8423SM  H15F11266   5.612   2.368  13.836  0.9042  1.3772  1.8404
   8423SM  H15G11267   5.585   2.200  13.896 -3.0275 -0.7183  0.6896
   8423SM  C16F11268   5.469   2.358  13.985  0.2142 -0.6111  0.2236
   8423SM  H16F11269   5.391   2.288  14.021  0.0569 -0.5306  0.0406
   8423SM  H16G11270   5.421   2.450  13.945  2.5191  0.7366  0.3699
   8423SM  C17F11271   5.562   2.407  14.096 -0.2014  0.0318  0.5984
   8423SM  H17F11272   5.514   2.495  14.143 -0.0334  0.4546 -0.0069
   8423SM  H17G11273   5.648   2.446  14.038  0.0130 -0.6961  0.4154
   8423SM  C18F11274   5.615   2.305  14.200 -0.4544  0.9625 -0.2539
   8423SM  H18F11275   5.686   2.356  14.270  0.3324  0.7287 -0.8631
   8423SM  H18G11276   5.674   2.222  14.156  0.3121  1.7306 -0.7113
   8423SM  C19F11277   5.509   2.257  14.302 -0.2196  0.8042  0.3529
   8423SM  H19F11278   5.414   2.305  14.271 -0.2744  0.0054 -0.7883
   8423SM  H19G11279   5.534   2.290  14.405 -1.9553  2.6595  0.2368
   8423SM  C20F11280   5.491   2.104  14.301  0.1483 -0.2296 -0.3438
   8423SM  H20F11281   5.592   2.065  14.323  0.5150  0.0620 -1.4337
   8423SM  H20G11282   5.456   2.056  14.207 -0.9788 -3.5330  1.6143
   8423SM  C21F11283   5.407   2.043  14.418  0.4176 -0.7531  0.8647
   8423SM  H21F11284   5.320   2.110  14.438  0.4875 -1.0366  2.2397
   8423SM  H21G11285   5.477   2.038  14.504  0.4355 -2.1269  0.7788
   8423SM  C22F11286   5.343   1.907  14.388 -0.6474 -0.5331 -0.0074
   8423SM  H22F11287   5.424   1.849  14.338  0.5206  1.4912 -0.6062
   8423SM  H22G11288   5.253   1.916  14.323 -0.6614 -1.7559 -0.1878
   8423SM  C23F11289   5.300   1.826  14.513  0.3393  0.2342 -0.0513
   8423SM  H23F11290   5.278   1.726  14.471  3.1330 -0.2409 -0.6202
   8423SM  H23G11291   5.219   1.869  14.576 -0.5503 -0.2502 -0.8544
   8423SM  H23H11292   5.385   1.814  14.584 -0.9853  1.9001  1.9202
   8523SM     N11293   6.801   3.204  12.114 -0.0583 -0.1936  0.0153
   8523SM   C1511294   6.658   3.238  12.075  0.2689  0.2186  0.2822
   8523SM  H15A11295   6.640   3.345  12.072 -0.8833  0.0975  1.5549
   8523SM  H15B11296   6.590   3.207  12.153  0.5990  0.1027  0.5274
   8523SM  H15C11297   6.623   3.197  11.982  0.3668 -1.7310  1.0655
   8523SM   C1411298   6.810   3.065  12.066 -0.0735  0.0684  0.0663
   8523SM  H14A11299   6.913   3.034  12.068  0.3650  1.4297 -0.3925
   8523SM  H14B11300   6.773   3.045  11.967 -0.4002  0.3655  0.1248
   8523SM  H14C11301   6.748   3.006  12.131  0.2377 -1.1775 -0.7489
   8523SM   C1311302   6.892   3.290  12.035 -0.5275 -0.3615  0.5440
   8523SM  H13A11303   6.906   3.269  11.930 -1.2032  0.7798  0.1996
   8523SM  H13B11304   6.985   3.283  12.090  0.6130  0.3811 -1.1999
   8523SM  H13C11305   6.859   3.393  12.036 -1.4902 -0.5733 -2.2378
   8523SM   C1211306   6.814   3.210  12.265 -0.6842  0.1836 -0.5624
   8523SM  H12A11307   6.916   3.189  12.295 -0.2254  2.1150 -0.6104
   8523SM  H12B11308   6.767   3.121  12.303 -0.1531 -0.4162 -1.2818
   8523SM   C1111309   6.761   3.334  12.333  0.0064 -0.2092 -0.3268
   8523SM  H11A11310   6.768   3.320  12.443 -0.2058  1.7945 -0.0095
   8523SM  H11B11311   6.655   3.362  12.318 -0.2236  1.2108  3.0706
   8523SM     P11312   6.999   3.470  12.344  0.3032  0.0461 -0.1332
   8523SM   O1311313   7.081   3.372  12.273 -0.3184  0.1702  0.1368
   8523SM   O1411314   7.031   3.611  12.318 -0.0657 -0.4889 -0.1193
   8523SM   O1111315   7.005   3.447  12.498 -0.1526  0.3992 -0.0691
   8523SM   O1211316   6.840   3.454  12.306  0.1436 -0.0251  0.2140
   8523SM   C1S11317   7.069   3.324  12.550 -0.4619 -0.6042 -0.2878
   8523SM   H1S11318   7.168   3.304  12.505 -1.3596 -0.9146 -2.2165
   8523SM   H1T11319   7.005   3.236  12.528 -4.2131  1.6266  0.7669
   8523SM    NF11320   7.167   3.231  12.768 -0.7034 -0.8171 -0.5038
   8523SM   HNF11321   7.123   3.165  12.827 -1.9855 -0.8482 -1.4513
   8523SM   C2S11322   7.091   3.334  12.705  0.2797 -0.4413 -0.4818
   8523SM   H2S11323   7.154   3.424  12.720  0.8538 -0.2209 -3.4683
   8523SM   C3S11324   6.951   3.360  12.776  0.1420 -0.5095 -0.3278
   8523SM   H3S11325   6.885   3.277  12.745  0.6261 -0.5413 -1.2946
   8523SM    O311326   6.884   3.480  12.724 -0.3385  0.3471  0.2474
   8523SM   HO311327   6.926   3.498  12.640 -0.9947  0.8595  0.0174
   8523SM   C4S11328   6.955   3.351  12.926  0.1434  0.3014 -0.1250
   8523SM   H4S11329   7.021   3.423  12.977  0.5333 -1.1173  1.4836
   8523SM   C5S11330   6.890   3.256  13.001  0.5801  0.3928 -0.3655
   8523SM   H5S11331   6.824   3.186  12.948  0.7172  0.5416 -0.7360
   8523SM   C6S11332   6.894   3.246  13.152  0.1012  0.3658  0.6345
   8523SM   H6S11333   6.991   3.285  13.189 -0.8286  1.0992  2.4092
   8523SM   H6T11334   6.891   3.140  13.186  1.4811 -0.6502 -2.0888
   8523SM   C7S11335   6.793   3.328  13.233  0.0608 -0.4650  0.3171
   8523SM   H7S11336   6.698   3.272  13.246 -1.6347  2.2353  0.4216
   8523SM   H7T11337   6.773   3.413  13.164  1.7515 -0.3335 -0.0424
   8523SM   C8S11338   6.847   3.378  13.366  0.5379  0.6347 -0.5422
   8523SM   H8S11339   6.932   3.446  13.348 -0.4456  1.9523 -0.3750
   8523SM   H8T11340   6.859   3.288  13.429  0.1279  2.5810  2.5137
   8523SM   C9S11341   6.744   3.466  13.439  0.0367  0.0355  0.1216
   8523SM   H9S11342   6.649   3.409  13.426 -0.3160  0.5252  0.5340
   8523SM   H9T11343   6.732   3.560  13.382 -2.4776 -0.0122  0.4404
   8523SM  C10S11344   6.747   3.494  13.596 -0.5412  0.5246  0.3132
   8523SM  H10S11345   6.842   3.549  13.616 -0.5969  0.4104  0.9010
   8523SM  H10T11346   6.752   3.398  13.650 -1.8003  0.5149  0.4413
   8523SM  C11S11347   6.627   3.568  13.655  0.3364 -0.3700  0.1773
   8523SM  H11S11348   6.536   3.506  13.640  1.5364 -1.9112 -1.1568
   8523SM  H11T11349   6.617   3.663  13.600  2.0637 -0.6643 -0.7123
   8523SM  C12S11350   6.655   3.637  13.792 -0.5115 -0.0538 -0.1080
   8523SM  H12S11351   6.731   3.717  13.780 -0.2076  0.0818  2.3534
   8523SM  H12T11352   6.709   3.568  13.859 -1.8770 -0.5568  0.5189
   8523SM  C13S11353   6.531   3.706  13.850 -0.1533  0.4782  0.1690
   8523SM  H13S11354   6.456   3.624  13.849  0.4484 -0.1305  1.6468
   8523SM  H13T11355   6.494   3.789  13.786  0.8618 -0.0658 -1.1796
   8523SM  C14S11356   6.533   3.753  13.989  0.3785  0.2348 -0.4541
   8523SM  H14S11357   6.593   3.844  14.011  1.2307 -0.3246 -0.3837
   8523SM  H14T11358   6.601   3.686  14.047  0.0977  1.4379  1.3571
   8523SM  C15S11359   6.396   3.762  14.062  1.1320  0.1681  0.0664
   8523SM  H15S11360   6.334   3.669  14.055  0.0031  0.9243 -0.3289
   8523SM  H15T11361   6.335   3.840  14.013 -0.2182 -1.0376 -0.2467
   8523SM  C16S11362   6.418   3.805  14.208 -0.7437  0.5718 -0.1384
   8523SM  H16S11363   6.474   3.901  14.204 -0.0381  0.2461  1.1814
   8523SM  H16T11364   6.487   3.729  14.250 -0.1071  0.1403 -1.8704
   8523SM  C17S11365   6.290   3.819  14.293 -0.0622  0.0388 -0.9982
   8523SM  H17S11366   6.313   3.819  14.401 -1.3541  0.7051 -0.7038
   8523SM  H17T11367   6.230   3.726  14.284 -1.8994  1.0243  0.4138
   8523SM  C18S11368   6.203   3.940  14.253 -0.0056 -0.3637 -0.2283
   8523SM  H18S11369   6.258   4.034  14.273 -1.2292  0.5211 -0.8865
   8523SM  H18T11370   6.107   3.945  14.308 -1.6704  0.7463 -3.0513
   8523SM  H18U11371   6.173   3.925  14.147 -1.7875  0.9787  0.0347
   8523SM   C1F11372   7.288   3.184  12.732 -0.3197  0.4137 -0.3861
   8523SM    OF11373   7.356   3.252  12.660  0.4129  0.2887  0.1366
   8523SM   C2F11374   7.325   3.045  12.784 -0.6844  0.4887  0.3912
   8523SM   H2F11375   7.430   3.019  12.756 -0.7080  0.1525  0.6049
   8523SM   H2G11376   7.254   2.966  12.750  1.9612 -1.8339 -0.1180
   8523SM   C3F11377   7.311   3.053  12.935 -0.6644  0.1912 -0.3585
   8523SM   H3F11378   7.211   3.079  12.977 -0.5511 -1.7045  1.2342
   8523SM   H3G11379   7.388   3.102  12.998  1.5986 -0.3409 -2.5569
   8523SM   C4F11380   7.321   2.904  12.992 -0.9104 -0.3578 -0.6490
   8523SM   H4F11381   7.425   2.869  13.007 -1.5077 -1.3759  1.5721
   8523SM   H4G11382   7.266   2.832  12.928 -0.6502  0.5319 -1.9148
   8523SM   C5F11383   7.255   2.896  13.130 -0.9040 -0.6453 -0.7496
   8523SM   H5F11384   7.275   2.794  13.170  1.7191 -0.0683 -0.4109
   8523SM   H5G11385   7.145   2.915  13.129 -0.4829  2.1506 -1.3786
   8523SM   C6F11386   7.316   2.994  13.231 -0.1372 -0.1090  0.2335
   8523SM   H6F11387   7.309   3.096  13.186 -1.1459  0.5670  1.8247
   8523SM   H6G11388   7.424   2.969  13.238 -0.3330 -1.3004 -0.7389
   8523SM   C7F11389   7.253   2.982  13.373  1.0120  0.3711  0.4733
   8523SM   H7F11390   7.306   3.048  13.444 -0.6879  0.6920  1.4815
   8523SM   H7G11391   7.256   2.873  13.396 -1.6908  0.1704  0.2180
   8523SM   C8F11392   7.107   3.027  13.396  0.1480  0.1686 -0.3172
   8523SM   H8F11393   7.032   2.958  13.351 -1.8217  1.5961  0.6401
   8523SM   H8G11394   7.094   3.129  13.354  0.4305  0.7544  0.9934
   8523SM   C9F11395   7.051   3.020  13.541  0.0821  0.2902 -0.1704
   8523SM   H9F11396   7.071   2.919  13.584 -0.5237  0.0992 -0.3319
   8523SM   H9G11397   6.943   3.042  13.540  0.5316  2.9878 -2.3283
   8523SM  C10F11398   7.108   3.136  13.632 -0.1226  0.2414  0.0680
   8523SM  H10F11399   7.098   3.234  13.581 -0.9319  0.1411  0.0238
   8523SM  H10G11400   7.218   3.128  13.639  0.0845  2.3525 -0.0236
   8523SM  C11F11401   7.049   3.138  13.773 -0.7794  0.0921 -0.2165
   8523SM  H11F11402   7.102   3.215  13.833 -1.2862 -0.4881  1.0074
   8523SM  H11G11403   7.068   3.038  13.817  0.3327  0.4164  0.0853
   8523SM  C12F11404   6.902   3.174  13.786 -0.2654 -0.1630 -0.0409
   8523SM  H12F11405   6.830   3.097  13.751  0.6686 -1.7523  1.3504
   8523SM  H12G11406   6.881   3.262  13.723  0.1347 -0.7020 -0.9613
   8523SM  C13F11407   6.853   3.230  13.923 -0.3048 -0.4535  0.0999
   8523SM  H13F11408   6.762   3.293  13.911  1.1578  1.7909  0.1578
   8523SM  H13G11409   6.934   3.298  13.958 -0.8098  0.3933 -0.3393
   8523SM  C14F11410   6.837   3.128  14.034  0.0398 -0.4321 -0.4548
   8523SM  H14F11411   6.921   3.057  14.020 -0.6352 -1.0458 -1.5378
   8523SM  H14G11412   6.741   3.083  14.001  0.2411 -0.8104 -0.5288
   8523SM  C15F11413   6.852   3.207  14.169 -0.3236  0.5597  0.4012
   8523SM  H15F11414   6.951   3.256  14.181  0.7763 -1.8336  2.0673
   8523SM  H15G11415   6.840   3.133  14.252 -1.3732 -1.2836 -1.2909
   8523SM  C16F11416   6.752   3.322  14.190  0.4972  0.6683 -0.6363
   8523SM  H16F11417   6.649   3.302  14.155 -0.0908 -0.4893  1.5675
   8523SM  H16G11418   6.798   3.405  14.133  2.8783 -0.8431 -1.0406
   8523SM  C17F11419   6.736   3.372  14.337 -0.5881  0.6457  0.5715
   8523SM  H17F11420   6.839   3.362  14.377  1.2975 -1.3094 -4.0631
   8523SM  H17G11421   6.669   3.303  14.392  2.1419  0.2303  3.6881
   8523SM  C18F11422   6.694   3.514  14.345  0.0509 -0.6779 -0.5574
   8523SM  H18F11423   6.593   3.531  14.301 -0.1125  1.2048  0.4146
   8523SM  H18G11424   6.769   3.572  14.286 -1.4668  1.3464 -0.6256
   8523SM  C19F11425   6.692   3.568  14.488  0.0702 -0.2466 -0.3560
   8523SM  H19F11426   6.782   3.542  14.548 -0.2340 -0.5459 -0.0295
   8523SM  H19G11427   6.615   3.519  14.550 -1.1115  1.5971 -0.2970
   8523SM  C20F11428   6.667   3.721  14.494 -0.2417  0.6431 -0.2125
   8523SM  H20F11429   6.564   3.753  14.467 -0.9292 -0.5764  0.8701
   8523SM  H20G11430   6.732   3.776  14.422 -1.6473  1.2045 -1.0961
   8523SM  C21F11431   6.706   3.770  14.636  0.1947  0.0961 -0.2629
   8523SM  H21F11432   6.807   3.734  14.662  0.8023  1.4464 -0.6673
   8523SM  H21G11433   6.624   3.743  14.706 -0.6603 -1.0334 -1.6214
   8523SM  C22F11434   6.712   3.923  14.665 -0.8065 -0.1210 -0.2006
   8523SM  H22F11435   6.625   3.970  14.613 -0.1255  3.0413  1.2670
   8523SM  H22G11436   6.800   3.962  14.610 -0.6398  0.6841  0.6007
   8523SM  C23F11437   6.721   3.973  14.815  0.3059  0.1328  0.2870
   8523SM  H23F11438   6.816   3.934  14.857  0.4341 -1.1169 -1.1008
   8523SM  H23G11439   6.634   3.936  14.874  2.0790 -0.3320  2.7625
   8523SM  H23H11440   6.725   4.084  14.814  0.9099  0.1587  2.1559
   8623SM     N11441   4.242   0.417  12.932 -0.0558 -0.6829 -0.1713
   8623SM   C1511442   4.112   0.400  13.002  0.3739  0.2769  0.5249
   8623SM  H15A11443   4.036   0.360  12.937 -0.1127  0.8016  0.7607
   8623SM  H15B11444   4.076   0.498  13.031  0.2154 -0.1130  1.7129
   8623SM  H15C11445   4.125   0.333  13.086  0.7747 -0.0622  0.1988
   8623SM   C1411446   4.275   0.281  12.874 -0.3211 -0.0014 -0.2598
   8623SM  H14A11447   4.203   0.251  12.799 -0.7837  0.1927  0.0961
   8623SM  H14B11448   4.290   0.197  12.939  2.7168  1.0525  0.5203
   8623SM  H14C11449   4.372   0.294  12.829  0.0303  0.2067  0.5469
   8623SM   C1311450   4.231   0.517  12.818 -0.2077  0.3186 -0.0271
   8623SM  H13A11451   4.198   0.464  12.730  2.2811 -1.5002  0.0316
   8623SM  H13B11452   4.328   0.558  12.795 -0.0347  1.1891  1.9974
   8623SM  H13C11453   4.167   0.599  12.848 -0.2973 -0.2881  1.5574
   8623SM   C1211454   4.353   0.448  13.038 -0.1785  0.0000  0.3286
   8623SM  H12A11455   4.336   0.365  13.105 -0.6466 -1.1801 -1.2081
   8623SM  H12B11456   4.320   0.538  13.088  2.6921  0.0533  2.3560
   8623SM   C1111457   4.499   0.460  12.996  0.2463 -0.4295 -0.0636
   8623SM  H11A11458   4.541   0.362  12.965 -2.0175 -2.1599  1.9734
   8623SM  H11B11459   4.550   0.491  13.090  1.6349  1.3196 -1.3063
   8623SM     P11460   4.651   0.593  12.838  0.1026 -0.1839 -0.0233
   8623SM   O1311461   4.724   0.466  12.817  0.3233 -0.0233  0.0499
   8623SM   O1411462   4.629   0.677  12.719  0.5490  0.0427 -0.1177
   8623SM   O1111463   4.728   0.681  12.949 -0.0381  0.0783 -0.1520
   8623SM   O1211464   4.511   0.565  12.901  0.4537  0.0987  0.8030
   8623SM   C1S11465   4.670   0.772  13.034 -0.2903 -0.3419  0.2406
   8623SM   H1S11466   4.585   0.722  13.085 -0.0876 -0.3991  0.5228
   8623SM   H1T11467   4.615   0.851  12.978 -0.9846 -1.6862 -1.0745
   8623SM    NF11468   4.707   0.938  13.212 -0.1365 -0.1129  0.4658
   8623SM   HNF11469   4.719   1.028  13.171 -0.3270 -0.4349 -0.3048
   8623SM   C2S11470   4.772   0.835  13.134 -0.4858 -0.0231  0.2822
   8623SM   H2S11471   4.804   0.753  13.203 -1.9379 -0.9075 -0.0566
   8623SM   C3S11472   4.897   0.883  13.056  0.7560 -0.7521  0.4240
   8623SM   H3S11473   4.849   0.952  12.984 -0.3232 -0.3688  1.4717
   8623SM    O311474   4.964   0.787  12.976 -0.1384 -0.0408  0.5153
   8623SM   HO311475   4.896   0.722  12.960  1.5731 -2.0584  0.8915
   8623SM   C4S11476   4.997   0.955  13.141  0.2128 -0.4736  0.0724
   8623SM   H4S11477   5.057   0.890  13.206 -0.0710 -1.4940 -0.6528
   8623SM   C5S11478   5.048   1.072  13.127 -0.3071 -0.2068 -0.5203
   8623SM   H5S11479   5.012   1.141  13.049 -0.8356  0.4455  0.2822
   8623SM   C6S11480   5.161   1.130  13.209  0.3574 -1.1697 -0.0244
   8623SM   H6S11481   5.237   1.183  13.148  1.8967 -2.4222  0.7335
   8623SM   H6T11482   5.210   1.046  13.261  0.3948 -1.2417 -0.1749
   8623SM   C7S11483   5.115   1.225  13.325  0.5005  0.0500  0.5901
   8623SM   H7S11484   5.059   1.309  13.278 -0.3139  1.2967  3.5590
   8623SM   H7T11485   5.197   1.271  13.383  0.7351  0.9240 -0.4050
   8623SM   C8S11486   5.033   1.149  13.434 -0.2074  0.0381  0.1571
   8623SM   H8S11487   5.078   1.049  13.452  0.6365  0.4136  0.1985
   8623SM   H8T11488   4.936   1.123  13.386  1.6455  0.9889 -4.7261
   8623SM   C9S11489   5.020   1.222  13.571  0.4022 -0.5394  0.1495
   8623SM   H9S11490   5.112   1.274  13.604  0.3284 -1.2640  1.5966
   8623SM   H9T11491   4.989   1.149  13.649  0.2894 -1.4998 -0.7640
   8623SM  C10S11492   4.914   1.341  13.560 -0.1248 -0.0280  0.0040
   8623SM  H10S11493   4.815   1.292  13.546 -0.1201  0.0668 -0.3938
   8623SM  H10T11494   4.937   1.406  13.472  0.6836  1.5184  1.3029
   8623SM  C11S11495   4.886   1.426  13.689 -0.3322  0.0657 -0.0522
   8623SM  H11S11496   4.845   1.357  13.765  1.0309 -1.8630 -0.9751
   8623SM  H11T11497   4.797   1.489  13.669 -2.8468 -1.9380  3.6035
   8623SM  C12S11498   5.001   1.507  13.737 -0.4509  0.0398  0.7353
   8623SM  H12S11499   5.021   1.587  13.662 -0.6650 -0.4486  0.1439
   8623SM  H12T11500   5.092   1.445  13.752  1.5752  2.3411 -1.1909
   8623SM  C13S11501   4.971   1.575  13.874  0.0369  0.4906 -0.2559
   8623SM  H13S11502   4.969   1.513  13.966  0.5977 -0.7636 -1.0606
   8623SM  H13T11503   4.863   1.603  13.870  0.1707  1.3519  1.2098
   8623SM  C14S11504   5.057   1.703  13.902 -0.0697  0.8479 -0.3455
   8623SM  H14S11505   5.024   1.750  13.997 -1.6692 -0.0191 -0.4365
   8623SM  H14T11506   5.061   1.777  13.819 -1.3730 -0.2159 -1.3971
   8623SM  C15S11507   5.204   1.672  13.918 -0.9538 -0.2170  1.0196
   8623SM  H15S11508   5.234   1.595  13.844 -0.1485  0.9167  0.1078
   8623SM  H15T11509   5.235   1.640  14.019 -0.5294 -0.7010  0.7368
   8623SM  C16S11510   5.293   1.799  13.873 -0.0542 -0.3396 -0.8046
   8623SM  H16S11511   5.259   1.890  13.928  1.0054 -1.2573  1.5193
   8623SM  H16T11512   5.276   1.813  13.764 -1.8222  3.7790 -0.1988
   8623SM  C17S11513   5.450   1.787  13.891  0.0228 -0.2466 -0.8592
   8623SM  H17S11514   5.464   1.776  14.001  0.7229  3.8409 -0.3971
   8623SM  H17T11515   5.493   1.887  13.867 -2.7439  1.3497  0.3728
   8623SM  C18S11516   5.505   1.673  13.814 -0.1413  0.0463 -0.2737
   8623SM  H18S11517   5.603   1.646  13.858 -0.2293 -1.2837 -0.8614
   8623SM  H18T11518   5.513   1.701  13.707  0.8659 -0.2844 -0.2968
   8623SM  H18U11519   5.433   1.590  13.829  0.3780 -0.2331  0.7873
   8623SM   C1F11520   4.629   0.913  13.313 -0.6772  0.2040 -1.0026
   8623SM    OF11521   4.589   0.799  13.343 -0.0200 -0.3342 -0.1796
   8623SM   C2F11522   4.593   1.037  13.399 -0.1521  0.2882  0.4692
   8623SM   H2F11523   4.530   1.097  13.330  1.2215 -1.5383 -2.5655
   8623SM   H2G11524   4.688   1.090  13.421  1.4120 -1.8816 -0.6579
   8623SM   C3F11525   4.515   0.996  13.532  0.0308  0.3715  0.5472
   8623SM   H3F11526   4.574   0.917  13.584  0.3535 -0.6128 -1.2320
   8623SM   H3G11527   4.414   0.960  13.505  0.9913 -1.4936 -0.8083
   8623SM   C4F11528   4.502   1.112  13.629 -0.5805 -0.3865  0.7374
   8623SM   H4F11529   4.468   1.205  13.579  0.5558 -0.7673 -0.8345
   8623SM   H4G11530   4.606   1.138  13.658  1.4031 -3.2123 -2.9270
   8623SM   C5F11531   4.414   1.083  13.753 -0.2945 -1.0789  1.0250
   8623SM   H5F11532   4.463   1.003  13.814  0.9674  1.0044  2.9141
   8623SM   H5G11533   4.309   1.061  13.724 -0.6408  0.1530  1.3011
   8623SM   C6F11534   4.406   1.211  13.841  0.3197  0.1329  0.2380
   8623SM   H6F11535   4.361   1.295  13.784  0.4849 -0.3891 -0.6830
   8623SM   H6G11536   4.512   1.232  13.867  0.0662  0.6923  0.8534
   8623SM   C7F11537   4.320   1.202  13.966  0.0257  0.2655 -0.5042
   8623SM   H7F11538   4.216   1.177  13.938  1.0252 -1.5900 -2.9091
   8623SM   H7G11539   4.314   1.299  14.021  1.9728 -0.0079  0.3028
   8623SM   C8F11540   4.372   1.089  14.059 -0.0967  0.0121  0.2249
   8623SM   H8F11541   4.481   1.085  14.082 -0.0359 -0.7255 -0.1596
   8623SM   H8G11542   4.352   0.990  14.012 -0.1070  0.4398 -0.6735
   8623SM   C9F11543   4.313   1.089  14.200 -0.2913  0.4060  0.0085
   8623SM   H9F11544   4.202   1.089  14.195 -0.3831 -0.1625  1.4736
   8623SM   H9G11545   4.338   1.185  14.249 -0.2539  0.9969 -1.1395
   8623SM  C10F11546   4.359   0.968  14.285  0.2097 -0.1497  0.1574
   8623SM  H10F11547   4.469   0.960  14.279  0.0773 -3.2144  0.3313
   8623SM  H10G11548   4.316   0.888  14.221  1.0805  0.9183 -1.8414
   8623SM  C11F11549   4.312   0.971  14.431 -0.2681  0.1271  0.0290
   8623SM  H11F11550   4.202   0.982  14.440 -0.2971  0.2691 -0.4772
   8623SM  H11G11551   4.371   1.052  14.480  2.9257 -1.4091 -0.9978
   8623SM  C12F11552   4.333   0.841  14.512  0.3594 -0.1364  0.0147
   8623SM  H12F11553   4.436   0.805  14.531  0.0779 -1.1711 -0.3596
   8623SM  H12G11554   4.284   0.759  14.456  1.0587 -1.1723  0.8983
   8623SM  C13F11555   4.278   0.861  14.654  0.0579  0.0293 -0.0614
   8623SM  H13F11556   4.170   0.884  14.644 -0.6684 -2.7598  0.4059
   8623SM  H13G11557   4.332   0.947  14.700 -0.4853  0.6646 -0.5936
   8623SM  C14F11558   4.293   0.738  14.740 -0.0750 -0.2878 -0.1132
   8623SM  H14F11559   4.397   0.699  14.741  0.6931  1.6643  0.5304
   8623SM  H14G11560   4.226   0.657  14.704 -1.8135  1.0919 -0.0864
   8623SM  C15F11561   4.263   0.760  14.895  0.3447 -0.3461 -0.0488
   8623SM  H15F11562   4.249   0.657  14.934 -1.2862  0.8791  2.9383
   8623SM  H15G11563   4.162   0.805  14.907 -0.5421 -0.8987 -4.0649
   8623SM  C16F11564   4.367   0.847  14.972 -0.2060  0.9474 -0.0095
   8623SM  H16F11565   4.375   0.940  14.913  0.8236  0.1735 -1.1534
   8623SM  H16G11566   4.465   0.795  14.964  0.8938  3.1421 -1.4671
   8623SM  C17F11567   4.326   0.856  15.119 -0.2968  0.6492  0.0247
   8623SM  H17F11568   4.334   0.758  15.172 -1.2948  1.0685  1.0004
   8623SM  H17G11569   4.215   0.868  15.115 -0.2865  0.7043 -0.0962
   8623SM  C18F11570   4.389   0.956  15.207  0.4482  0.1071  0.3654
   8623SM  H18F11571   4.328   0.957  15.300 -1.1180 -0.3118 -0.6177
   8623SM  H18G11572   4.373   1.052  15.153  0.7429 -0.1095 -0.1183
   8623SM  C19F11573   4.537   0.952  15.248 -0.3175  0.2188 -0.3372
   8623SM  H19F11574   4.565   1.059  15.247 -0.3242  0.3258 -4.5461
   8623SM  H19G11575   4.610   0.902  15.181 -2.0500 -0.0626 -2.1088
   8623SM  C20F11576   4.549   0.884  15.380 -0.2454 -0.6789  0.0892
   8623SM  H20F11577   4.485   0.794  15.382  1.3169 -1.8255 -0.1819
   8623SM  H20G11578   4.515   0.954  15.459  1.9201 -0.4253  0.8797
   8623SM  C21F11579   4.693   0.844  15.409  0.0104 -0.1497 -0.3364
   8623SM  H21F11580   4.758   0.934  15.411 -1.8094  1.2094  0.8444
   8623SM  H21G11581   4.730   0.774  15.330  0.8928  1.3572 -1.3209
   8623SM  C22F11582   4.703   0.784  15.549  0.4357  0.5013  0.0733
   8623SM  H22F11583   4.671   0.863  15.620 -3.8062  0.0929 -1.1157
   8623SM  H22G11584   4.809   0.761  15.573  1.6204  2.2619 -2.9474
   8623SM  C23F11585   4.621   0.667  15.561  0.3315  0.0393 -0.5719
   8623SM  H23F11586   4.625   0.605  15.469  0.9723 -2.9983  1.3673
   8623SM  H23G11587   4.516   0.694  15.583  1.1823  1.0973  2.7093
   8623SM  H23H11588   4.644   0.613  15.655 -1.1226  0.1670 -0.1252
   8723SM     N11589   5.266   0.231  12.238  0.3242 -0.2892  0.2146
   8723SM   C1511590   5.256   0.217  12.092 -0.6283  0.2506 -0.1756
   8723SM  H15A11591   5.319   0.291  12.044  0.3703 -0.5058 -0.0805
   8723SM  H15B11592   5.156   0.222  12.052  0.3273  0.1082 -2.7873
   8723SM  H15C11593   5.286   0.119  12.057 -2.7628 -0.5553  0.0939
   8723SM   C1411594   5.170   0.145  12.310  0.5925 -0.6412 -0.7727
   8723SM  H14A11595   5.063   0.163  12.303  0.7949  0.6175 -0.8315
   8723SM  H14B11596   5.181   0.159  12.417 -2.0694 -0.0393 -0.4971
   8723SM  H14C11597   5.187   0.041  12.287  3.0989 -0.3951 -0.2662
   8723SM   C1311598   5.404   0.184  12.270  0.3160  0.4492  0.5347
   8723SM  H13A11599   5.483   0.249  12.235  0.5208 -0.3484 -0.5501
   8723SM  H13B11600   5.432   0.087  12.231 -2.7182 -0.2994 -0.0016
   8723SM  H13C11601   5.420   0.191  12.377  1.5971 -0.9021  0.4637
   8723SM   C1211602   5.246   0.377  12.277  0.6582  0.7371  0.1372
   8723SM  H12A11603   5.159   0.417  12.226  1.5453  1.3706 -0.9514
   8723SM  H12B11604   5.322   0.436  12.227 -0.0981 -0.8746 -3.2140
   8723SM   C1111605   5.225   0.399  12.428  0.3042  0.0441 -0.0581
   8723SM  H11A11606   5.132   0.352  12.466  0.6350  0.3031  1.1177
   8723SM  H11B11607   5.217   0.510  12.424  3.8913  0.4687  0.7732
   8723SM     P11608   5.443   0.445  12.562 -0.1547 -0.1132 -0.7484
   8723SM   O1311609   5.510   0.379  12.675  0.2415  0.1204 -0.2185
   8723SM   O1411610   5.518   0.476  12.438  0.0701 -0.1931  0.4261
   8723SM   O1111611   5.362   0.566  12.622 -0.2046  0.1132  0.3971
   8723SM   O1211612   5.335   0.346  12.500  1.1012 -0.2894  0.2340
   8723SM   C1S11613   5.248   0.531  12.710  0.1546 -0.1013  0.7447
   8723SM   H1S11614   5.239   0.421  12.725  1.4406 -0.3665 -0.3030
   8723SM   H1T11615   5.156   0.572  12.663 -1.6730 -1.4695  2.9381
   8723SM    NF11616   5.149   0.541  12.932 -1.0108  0.0335 -0.1649
   8723SM   HNF11617   5.106   0.623  12.969  1.6075  2.2131 -1.5873
   8723SM   C2S11618   5.264   0.578  12.853  0.1705 -0.1730  0.0051
   8723SM   H2S11619   5.344   0.518  12.902 -0.5884  1.5999  3.8134
   8723SM   C3S11620   5.300   0.730  12.847 -0.2944 -0.6078  0.2028
   8723SM   H3S11621   5.213   0.785  12.805  0.2326 -0.4206 -0.6633
   8723SM    O311622   5.415   0.766  12.768  0.0411 -0.4052  0.2013
   8723SM   HO311623   5.403   0.715  12.687 -2.2615  2.6362 -1.5648
   8723SM   C4S11624   5.317   0.798  12.986  0.0065  0.4690 -0.0678
   8723SM   H4S11625   5.232   0.859  13.020  0.3702  0.4391  0.9443
   8723SM   C5S11626   5.433   0.793  13.062 -0.0632  0.4793 -0.1587
   8723SM   H5S11627   5.521   0.734  13.031  0.7240  0.7935  1.3815
   8723SM   C6S11628   5.452   0.870  13.192 -0.0369 -0.4454  0.4704
   8723SM   H6S11629   5.357   0.913  13.230  0.2586 -0.6081  1.4023
   8723SM   H6T11630   5.519   0.955  13.167  1.2916 -1.9340 -1.3781
   8723SM   C7S11631   5.511   0.777  13.301 -0.1093 -0.5224  0.1402
   8723SM   H7S11632   5.603   0.740  13.252 -0.3800  1.4555 -2.0586
   8723SM   H7T11633   5.452   0.686  13.325 -1.6680  0.3596 -0.1846
   8723SM   C8S11634   5.537   0.851  13.430  0.4106  0.2372 -0.4027
   8723SM   H8S11635   5.613   0.931  13.427  2.7262 -1.7065  1.5745
   8723SM   H8T11636   5.565   0.771  13.503 -0.0595  0.6567  0.2481
   8723SM   C9S11637   5.412   0.910  13.502 -0.2065 -0.0057  0.5245
   8723SM   H9S11638   5.340   0.831  13.532 -0.7460  1.5144  3.6524
   8723SM   H9T11639   5.365   0.968  13.420 -0.6150 -0.7290  0.2348
   8723SM  C10S11640   5.445   0.994  13.622  0.4396  0.2722  0.2015
   8723SM  H10S11641   5.511   1.077  13.589  1.3639 -1.1026 -1.6367
   8723SM  H10T11642   5.503   0.944  13.702 -0.1802 -0.9004 -0.0586
   8723SM  C11S11643   5.315   1.057  13.687  0.5285  0.3175 -0.3708
   8723SM  H11S11644   5.268   0.969  13.734 -1.1690  0.9927 -0.7249
   8723SM  H11T11645   5.249   1.079  13.600  1.1345 -2.6741 -1.7414
   8723SM  C12S11646   5.334   1.165  13.792 -0.4918 -0.5552 -0.0600
   8723SM  H12S11647   5.239   1.170  13.849 -1.5181 -0.5757 -1.7094
   8723SM  H12T11648   5.348   1.263  13.741 -0.3610 -0.8815 -0.6557
   8723SM  C13S11649   5.457   1.135  13.880 -0.6478 -0.1306  0.3824
   8723SM  H13S11650   5.552   1.138  13.822 -1.2581  1.3950 -0.6249
   8723SM  H13T11651   5.442   1.030  13.911 -2.3099 -1.1001 -3.1849
   8723SM  C14S11652   5.475   1.230  14.002  0.2038 -0.0340 -0.3332
   8723SM  H14S11653   5.380   1.203  14.054 -0.3658 -2.4851 -2.4744
   8723SM  H14T11654   5.473   1.338  13.976  0.4419  0.0928  0.1610
   8723SM  C15S11655   5.598   1.196  14.085 -0.3064 -0.3004 -0.2526
   8723SM  H15S11656   5.684   1.211  14.016 -1.4923 -2.8392 -2.4373
   8723SM  H15T11657   5.586   1.086  14.094 -1.1110 -0.6028 -3.7578
   8723SM  C16S11658   5.612   1.269  14.212 -0.0106 -0.2321 -0.7940
   8723SM  H16S11659   5.682   1.209  14.273 -1.2025 -0.7530  0.1128
   8723SM  H16T11660   5.517   1.264  14.270  1.1755 -1.6560  1.1414
   8723SM  C17S11661   5.655   1.412  14.190  0.2957  0.2518  0.2784
   8723SM  H17S11662   5.709   1.436  14.096  1.0021 -0.7666  0.4004
   8723SM  H17T11663   5.726   1.435  14.272  0.8226  1.2553 -0.4397
   8723SM  C18S11664   5.548   1.515  14.210 -0.1271  0.7681  0.1324
   8723SM  H18S11665   5.526   1.511  14.318 -0.5339 -1.0509  0.0076
   8723SM  H18T11666   5.458   1.492  14.149  0.1838 -0.7402  0.1959
   8723SM  H18U11667   5.577   1.620  14.187 -1.3027  1.1008  0.1294
   8723SM   C1F11668   5.124   0.416  12.970 -0.2519 -0.6759  0.2957
   8723SM    OF11669   5.200   0.326  12.931  0.3595  0.4549 -0.2535
   8723SM   C2F11670   5.013   0.398  13.064 -1.1512  1.3241  0.5654
   8723SM   H2F11671   4.935   0.339  13.011  1.1645  0.4166 -2.0874
   8723SM   H2G11672   4.970   0.498  13.087 -1.0087  0.9496  2.6220
   8723SM   C3F11673   5.066   0.320  13.190 -0.0276  0.1075 -0.5800
   8723SM   H3F11674   5.105   0.221  13.159 -0.9427 -0.7999  1.0777
   8723SM   H3G11675   4.972   0.310  13.249 -0.0857 -2.0382 -0.9638
   8723SM   C4F11676   5.187   0.389  13.268  0.6937  0.2607  0.1617
   8723SM   H4F11677   5.279   0.372  13.207  0.3661  2.7951 -1.1487
   8723SM   H4G11678   5.203   0.350  13.371 -0.6742  3.3309  1.6626
   8723SM   C5F11679   5.160   0.540  13.291 -0.6112  0.1495  0.2920
   8723SM   H5F11680   5.144   0.592  13.194  1.1205  1.0546  0.4511
   8723SM   H5G11681   5.259   0.575  13.327  0.7287 -0.5183 -2.4592
   8723SM   C6F11682   5.041   0.571  13.380  0.0274 -0.5098  0.7806
   8723SM   H6F11683   5.015   0.484  13.444  1.8328  0.9804  3.7688
   8723SM   H6G11684   4.954   0.572  13.311  2.5770 -0.8122 -2.7122
   8723SM   C7F11685   5.046   0.694  13.466 -0.7031  0.3928 -0.4006
   8723SM   H7F11686   5.080   0.775  13.398  3.1091 -1.4990 -1.0516
   8723SM   H7G11687   5.132   0.685  13.536 -0.7848  1.1364 -0.2012
   8723SM   C8F11688   4.922   0.724  13.561 -0.2274  0.1143 -0.1253
   8723SM   H8F11689   4.908   0.623  13.604  1.6440 -0.3539 -0.4903
   8723SM   H8G11690   4.834   0.728  13.494 -0.6696  0.3249  0.4571
   8723SM   C9F11691   4.939   0.827  13.674 -0.5862 -0.3093  0.0048
   8723SM   H9F11692   4.908   0.924  13.630 -0.2913 -0.0458  0.3760
   8723SM   H9G11693   5.049   0.836  13.687 -0.1683 -0.3450 -2.8184
   8723SM  C10F11694   4.838   0.802  13.793  0.0868  0.1371  0.4493
   8723SM  H10F11695   4.846   0.709  13.852 -0.0853 -1.7116 -2.2313
   8723SM  H10G11696   4.741   0.781  13.742 -0.0165  1.3140  0.1415
   8723SM  C11F11697   4.813   0.936  13.859 -0.7885  0.4419  0.2315
   8723SM  H11F11698   4.718   0.933  13.917 -1.1518 -1.4233 -0.4239
   8723SM  H11G11699   4.791   1.018  13.787  1.7248  2.1328  1.2167
   8723SM  C12F11700   4.925   0.971  13.962  0.2435 -1.0141  0.4226
   8723SM  H12F11701   5.023   0.980  13.911 -0.0955 -0.5740 -0.1706
   8723SM  H12G11702   4.927   0.886  14.033  1.5379 -0.9918  0.4365
   8723SM  C13F11703   4.907   1.108  14.024  0.5934 -0.3664  0.4528
   8723SM  H13F11704   4.913   1.176  13.936  2.2658 -1.8094 -0.6099
   8723SM  H13G11705   4.989   1.136  14.093 -0.5027  0.0946  1.6011
   8723SM  C14F11706   4.784   1.125  14.111 -0.6389  0.0620 -0.0580
   8723SM  H14F11707   4.786   1.064  14.203 -0.8143 -0.3543 -0.3248
   8723SM  H14G11708   4.695   1.097  14.050 -0.1780  3.1981 -2.3836
   8723SM  C15F11709   4.747   1.268  14.150  0.5763 -0.8047 -0.6175
   8723SM  H15F11710   4.649   1.269  14.203  0.4597 -1.1154 -0.8261
   8723SM  H15G11711   4.736   1.329  14.059  3.0113  1.1404  0.2967
   8723SM  C16F11712   4.853   1.340  14.230  0.4287 -0.8915 -0.3581
   8723SM  H16F11713   4.945   1.357  14.169  1.1844 -0.2298  0.9287
   8723SM  H16G11714   4.875   1.267  14.310  2.7513 -1.9931 -1.8749
   8723SM  C17F11715   4.813   1.470  14.297 -0.4099 -0.1469  0.3264
   8723SM  H17F11716   4.717   1.447  14.348 -0.4541 -0.3511  0.1520
   8723SM  H17G11717   4.797   1.556  14.229 -1.6089 -0.8121 -0.2588
   8723SM  C18F11718   4.920   1.512  14.406  0.0372  0.0911  0.5563
   8723SM  H18F11719   5.007   1.555  14.351 -1.1299  0.7392 -0.8338
   8723SM  H18G11720   4.961   1.430  14.469  0.6758  0.9979  1.3773
   8723SM  C19F11721   4.874   1.626  14.507  0.3387 -0.2100 -0.9780
   8723SM  H19F11722   4.779   1.586  14.549  0.0070 -0.6134 -2.0612
   8723SM  H19G11723   4.856   1.723  14.455  0.4223 -0.3826 -1.3383
   8723SM  C20F11724   4.976   1.663  14.607 -0.8083 -0.6912 -0.6755
   8723SM  H20F11725   5.076   1.679  14.563 -0.5384  0.9437  0.4341
   8723SM  H20G11726   4.994   1.578  14.676 -0.5384 -0.1752 -0.1042
   8723SM  C21F11727   4.935   1.788  14.700 -0.5718  0.3147  0.1145
   8723SM  H21F11728   4.826   1.777  14.720 -0.9048  0.3421 -1.5296
   8723SM  H21G11729   4.961   1.886  14.654 -0.0338  0.0360 -0.1724
   8723SM  C22F11730   5.000   1.798  14.840  0.0628  0.0077 -1.5169
   8723SM  H22F11731   5.110   1.806  14.845  0.0520 -0.1929  2.0714
   8723SM  H22G11732   4.963   1.710  14.897 -1.1552  0.6775 -1.2301
   8723SM  C23F11733   4.957   1.930  14.913 -1.0401  0.0320  0.2424
   8723SM  H23F11734   5.003   2.021  14.870  3.2032 -1.6755  0.6676
   8723SM  H23G11735   4.980   1.927  15.021  0.6891 -0.3293 -0.1010
   8723SM  H23H11736   4.848   1.947  14.904 -1.0502 -0.3199 -0.4131
   8823SM     N11737   2.957   0.990  12.581  0.2688  0.3343 -0.4893
   8823SM   C1511738   2.940   0.981  12.435  0.3809 -0.6173  0.4596
   8823SM  H15A11739   3.036   0.950  12.397  0.9067  0.6570  0.6903
   8823SM  H15B11740   2.928   1.078  12.390  2.9820 -0.5459 -0.1999
   8823SM  H15C11741   2.856   0.917  12.412 -0.6227  0.1305  1.8499
   8823SM   C1411742   3.004   0.853  12.630 -0.0206 -0.6813 -0.2611
   8823SM  H14A11743   3.003   0.848  12.738 -1.5798  0.7522 -0.1778
   8823SM  H14B11744   3.108   0.846  12.600 -0.0806  2.8061 -1.8015
   8823SM  H14C11745   2.929   0.788  12.587 -0.3084 -0.9279  0.5935
   8823SM   C1311746   3.077   1.083  12.617  0.7581 -0.1562 -0.3044
   8823SM  H13A11747   3.058   1.189  12.602  0.8002  0.3444  2.5578
   8823SM  H13B11748   3.154   1.062  12.545 -0.1233 -0.8349 -1.0858
   8823SM  H13C11749   3.114   1.070  12.718  0.5045 -1.6307 -0.3913
   8823SM   C1211750   2.825   1.041  12.646  0.3900 -0.0959 -0.4176
   8823SM  H12A11751   2.742   1.009  12.586 -0.2228  1.5231 -0.4747
   8823SM  H12B11752   2.829   1.148  12.633  1.8460 -0.0152  0.4005
   8823SM   C1111753   2.812   1.007  12.792  0.3602 -0.3070  0.1640
   8823SM  H11A11754   2.814   0.896  12.805 -0.2229 -0.3103  0.2502
   8823SM  H11B11755   2.709   1.038  12.821  0.8930  1.0187  0.6879
   8823SM     P11756   2.876   1.178  12.976 -0.1928 -0.0943 -0.1770
   8823SM   O1311757   2.994   1.210  13.060 -0.2330 -0.1124 -0.1580
   8823SM   O1411758   2.820   1.291  12.899 -0.2238  0.4724  0.8128
   8823SM   O1111759   2.760   1.107  13.065 -0.5474  0.1078  0.7022
   8823SM   O1211760   2.917   1.061  12.873  0.2784  0.1983 -0.2093
   8823SM   C1S11761   2.782   0.975  13.122 -0.2371 -1.7268  0.0433
   8823SM   H1S11762   2.889   0.948  13.120 -0.4002 -2.4927  0.9482
   8823SM   H1T11763   2.750   0.896  13.052 -1.6541 -1.6875  0.6044
   8823SM    NF11764   2.763   0.862  13.348 -0.3373 -0.2309  0.2204
   8823SM   HNF11765   2.696   0.804  13.395 -0.4096 -0.0525  0.3375
   8823SM   C2S11766   2.718   0.969  13.267  0.1728  0.4247 -0.0057
   8823SM   H2S11767   2.752   1.060  13.321  0.6560  1.9763 -2.7147
   8823SM   C3S11768   2.565   0.982  13.253  0.8725 -0.2410  0.3577
   8823SM   H3S11769   2.528   0.903  13.184 -1.4991  0.5660  0.6244
   8823SM    O311770   2.529   1.102  13.182 -0.4544  0.0976  0.2361
   8823SM   HO311771   2.614   1.141  13.161  0.3549 -1.4529  0.5083
   8823SM   C4S11772   2.483   0.970  13.378 -0.0866 -0.3428 -0.6725
   8823SM   H4S11773   2.477   0.866  13.412 -1.5473  0.1509  0.7291
   8823SM   C5S11774   2.431   1.067  13.461 -0.2343  0.1677 -0.0640
   8823SM   H5S11775   2.420   1.168  13.419 -3.1346  0.9741  2.3354
   8823SM   C6S11776   2.359   1.050  13.588  0.7364  0.5947  0.2886
   8823SM   H6S11777   2.304   0.953  13.588 -0.2575  1.1403  0.8494
   8823SM   H6T11778   2.281   1.128  13.600 -0.1205  0.1552 -1.8217
   8823SM   C7S11779   2.448   1.043  13.721  0.8655  0.1824 -0.0668
   8823SM   H7S11780   2.400   1.096  13.807  1.0675  1.1006 -0.5060
   8823SM   H7T11781   2.541   1.102  13.714  0.6667  1.1166  3.1501
   8823SM   C8S11782   2.472   0.896  13.756 -0.1331  0.3727 -0.0920
   8823SM   H8S11783   2.507   0.850  13.661 -0.1164 -0.1108  0.1446
   8823SM   H8T11784   2.375   0.851  13.786 -1.0242  0.7824 -2.1472
   8823SM   C9S11785   2.573   0.875  13.868  0.1432 -0.0941 -0.5750
   8823SM   H9S11786   2.661   0.940  13.851  0.8954 -0.7048  0.8315
   8823SM   H9T11787   2.610   0.771  13.876  1.7233  0.4820 -0.0139
   8823SM  C10S11788   2.515   0.910  14.005  0.0009 -0.5849  0.1929
   8823SM  H10S11789   2.433   0.837  14.022 -0.2461 -0.5436 -0.7933
   8823SM  H10T11790   2.478   1.014  14.018 -0.1302 -0.7128  0.9314
   8823SM  C11S11791   2.617   0.901  14.118  0.1240 -0.2895  0.5819
   8823SM  H11S11792   2.697   0.976  14.101  1.0103 -1.4583 -0.5588
   8823SM  H11T11793   2.672   0.806  14.102 -1.4170 -1.2726  0.9006
   8823SM  C12S11794   2.554   0.916  14.262 -0.2706 -0.3175  0.0125
   8823SM  H12S11795   2.465   0.849  14.262  0.2258 -1.1222  3.0217
   8823SM  H12T11796   2.525   1.021  14.282 -0.6394 -0.1268 -1.4133
   8823SM  C13S11797   2.645   0.869  14.375 -0.1152  0.1430 -0.8528
   8823SM  H13S11798   2.720   0.945  14.406  0.6366 -0.5956 -0.8245
   8823SM  H13T11799   2.703   0.776  14.361 -0.8119 -0.6682  1.2808
   8823SM  C14S11800   2.553   0.833  14.504  0.0101 -0.4066  0.2587
   8823SM  H14S11801   2.496   0.739  14.491  1.8320 -1.9689  2.6403
   8823SM  H14T11802   2.500   0.930  14.517  2.9938  1.6232 -1.4109
   8823SM  C15S11803   2.646   0.814  14.627 -0.3031 -0.5483  0.0464
   8823SM  H15S11804   2.720   0.896  14.635 -0.5466 -0.4205  1.0898
   8823SM  H15T11805   2.708   0.724  14.607 -0.4704 -0.9975  1.4609
   8823SM  C16S11806   2.580   0.817  14.772  0.2367  0.3216 -0.3625
   8823SM  H16S11807   2.653   0.776  14.845 -0.3848 -2.8144 -1.3525
   8823SM  H16T11808   2.507   0.733  14.771  2.3783 -1.6745  1.0545
   8823SM  C17S11809   2.523   0.955  14.815  0.4130  0.2354  0.2490
   8823SM  H17S11810   2.456   0.991  14.734 -1.8820  2.4539  2.9081
   8823SM  H17T11811   2.610   1.023  14.817 -0.3860  1.2684  1.4455
   8823SM  C18S11812   2.459   0.974  14.950 -0.2857 -0.5758  0.0962
   8823SM  H18S11813   2.462   1.082  14.973 -1.1251 -0.1057 -1.8412
   8823SM  H18T11814   2.513   0.921  15.032  0.8546 -0.0208 -0.2688
   8823SM  H18U11815   2.353   0.940  14.942 -0.4679  0.4080 -2.7873
   8823SM   C1F11816   2.889   0.850  13.388 -0.1076  0.0901 -0.3897
   8823SM    OF11817   2.982   0.915  13.335 -0.1418 -0.2465 -0.0395
   8823SM   C2F11818   2.910   0.761  13.511 -0.2561  0.6726 -0.1636
   8823SM   H2F11819   3.005   0.705  13.497 -1.6096 -1.4891 -1.1959
   8823SM   H2G11820   2.833   0.682  13.520  0.6725 -0.0092  3.2811
   8823SM   C3F11821   2.907   0.832  13.650 -0.5897 -0.5834  0.1690
   8823SM   H3F11822   2.817   0.894  13.669  1.1968  1.5892  2.1405
   8823SM   H3G11823   2.996   0.898  13.650 -0.8970 -0.1611 -0.5036
   8823SM   C4F11824   2.923   0.732  13.768  0.1590 -0.5104  0.5184
   8823SM   H4F11825   3.018   0.678  13.748  1.0307  0.2947  2.3289
   8823SM   H4G11826   2.839   0.660  13.777  0.6730 -0.9507  1.9747
   8823SM   C5F11827   2.934   0.810  13.901  0.4617  0.5979 -0.1920
   8823SM   H5F11828   2.834   0.854  13.919 -0.4286 -1.3680 -0.1017
   8823SM   H5G11829   3.009   0.891  13.885  1.2573 -0.1718 -0.4171
   8823SM   C6F11830   2.980   0.721  14.016  0.2068 -0.5806 -0.4635
   8823SM   H6F11831   3.056   0.643  13.994 -1.2683 -2.7474  1.6006
   8823SM   H6G11832   2.890   0.661  14.044  1.6373 -2.8251 -0.4032
   8823SM   C7F11833   3.008   0.807  14.142  0.4813 -0.7239  0.5207
   8823SM   H7F11834   2.926   0.878  14.167  0.5174 -0.5027  0.0256
   8823SM   H7G11835   3.097   0.871  14.124 -1.5027  1.6724 -1.7613
   8823SM   C8F11836   3.019   0.715  14.253  0.3876 -0.1461  0.1803
   8823SM   H8F11837   3.100   0.640  14.243 -0.1813 -1.0754  1.9904
   8823SM   H8G11838   2.926   0.656  14.266 -0.7543  1.9824  3.0604
   8823SM   C9F11839   3.036   0.776  14.398  1.0087  0.1621 -0.6790
   8823SM   H9F11840   2.945   0.837  14.414  0.1090 -1.3998  0.3760
   8823SM   H9G11841   3.118   0.850  14.408  0.4577  0.8290 -1.0785
   8823SM  C10F11842   3.042   0.671  14.513 -0.7607 -0.2990 -0.2250
   8823SM  H10F11843   3.138   0.615  14.510 -0.7852 -0.3760  0.4113
   8823SM  H10G11844   2.962   0.596  14.496  1.0488 -1.9471 -2.2143
   8823SM  C11F11845   3.032   0.736  14.652  0.5097 -0.8535  0.0360
   8823SM  H11F11846   3.018   0.656  14.727 -1.7075 -0.1168  0.4853
   8823SM  H11G11847   2.944   0.804  14.650  1.1938  0.0691 -1.8203
   8823SM  C12F11848   3.154   0.811  14.691 -0.4636 -0.2201 -0.3442
   8823SM  H12F11849   3.178   0.901  14.630  4.7036 -1.4558 -0.5848
   8823SM  H12G11850   3.236   0.737  14.683 -1.4577 -1.3250 -0.5006
   8823SM  C13F11851   3.143   0.872  14.834  0.1943  0.4391  0.0860
   8823SM  H13F11852   3.093   0.795  14.897 -1.1351  1.1066 -0.1244
   8823SM  H13G11853   3.073   0.957  14.820 -1.3345 -0.9780 -1.2749
   8823SM  C14F11854   3.268   0.912  14.908  0.4186 -0.5837 -0.3203
   8823SM  H14F11855   3.237   0.967  14.999  0.9616  1.3776 -1.2699
   8823SM  H14G11856   3.324   0.983  14.843 -2.2725  1.3222 -0.7389
   8823SM  C15F11857   3.345   0.788  14.947 -0.4336  0.6063 -0.3511
   8823SM  H15F11858   3.400   0.756  14.856  2.3619  1.8897  0.7796
   8823SM  H15G11859   3.294   0.694  14.979  3.0945 -0.0140  4.5483
   8823SM  C16F11860   3.444   0.820  15.060 -0.0242 -0.1472  0.3970
   8823SM  H16F11861   3.389   0.856  15.149 -0.1847 -1.3476  0.7892
   8823SM  H16G11862   3.513   0.895  15.015 -0.0080 -1.0033 -1.0758
   8823SM  C17F11863   3.535   0.698  15.094  0.6335 -0.1212  0.2501
   8823SM  H17F11864   3.631   0.735  15.135  0.6162 -0.6866  0.8049
   8823SM  H17G11865   3.565   0.658  14.995  2.3672 -1.7523  1.3713
   8823SM  C18F11866   3.463   0.582  15.171 -0.1863 -0.3569  0.5333
   8823SM  H18F11867   3.359   0.579  15.130 -0.0856  0.6524  0.1651
   8823SM  H18G11868   3.455   0.599  15.280 -2.0438 -1.5413  0.6303
   8823SM  C19F11869   3.539   0.450  15.139 -0.0405 -0.2822 -0.3587
   8823SM  H19F11870   3.648   0.452  15.163 -0.1755 -2.0004  0.5238
   8823SM  H19G11871   3.519   0.431  15.032 -1.6033  1.1004 -0.3608
   8823SM  C20F11872   3.468   0.333  15.205 -0.9072  0.1603 -0.2172
   8823SM  H20F11873   3.366   0.323  15.161 -0.6237 -2.5342 -0.3984
   8823SM  H20G11874   3.464   0.346  15.315 -0.2083 -1.5540  0.0315
   8823SM  C21F11875   3.536   0.192  15.176 -0.4263 -0.0076 -0.1693
   8823SM  H21F11876   3.496   0.112  15.242 -1.8146  0.1547 -0.7908
   8823SM  H21G11877   3.646   0.188  15.192 -0.2845 -1.6754 -1.2886
   8823SM  C22F11878   3.512   0.139  15.033  0.0058  0.1033  0.4687
   8823SM  H22F11879   3.537   0.216  14.958 -3.4139 -0.3808 -1.3690
   8823SM  H22G11880   3.404   0.120  15.018  0.0997  1.1260 -1.8414
   8823SM  C23F11881   3.583   0.006  15.015  1.1048  0.1815  0.4426
   8823SM  H23F11882   3.541  -0.070  15.083  0.3084  0.1935 -0.0220
   8823SM  H23G11883   3.690   0.026  15.037  1.6031  1.3358 -2.5015
   8823SM  H23H11884   3.590  -0.031  14.910 -0.2315  1.4624 -0.1346
   8923SM     N11885   7.022   1.566  12.467  0.2538 -0.3849  0.4012
   8923SM   C1511886   7.004   1.698  12.404 -0.2802 -0.5265 -0.2881
   8923SM  H15A11887   6.922   1.762  12.432  2.6262  2.6911  1.8520
   8923SM  H15B11888   6.989   1.685  12.298 -1.2439 -0.5401 -0.1573
   8923SM  H15C11889   7.085   1.765  12.428 -2.4400  3.7019 -3.5402
   8923SM   C1411890   6.918   1.468  12.420 -0.1623  0.9023 -0.0602
   8923SM  H14A11891   6.823   1.482  12.470 -0.6036 -1.1676 -0.2202
   8923SM  H14B11892   6.940   1.365  12.445 -1.9932  1.3149  4.0438
   8923SM  H14C11893   6.896   1.471  12.315 -0.1765 -0.0658 -0.0904
   8923SM   C1311894   7.158   1.509  12.438  0.1585 -0.1285 -0.0045
   8923SM  H13A11895   7.239   1.573  12.468  1.1035 -1.0930 -0.4194
   8923SM  H13B11896   7.162   1.486  12.333  0.9229  1.4919 -0.3634
   8923SM  H13C11897   7.170   1.414  12.488 -0.1385  0.3882  1.0805
   8923SM   C1211898   7.010   1.586  12.614  0.5930 -0.4913 -0.1944
   8923SM  H12A11899   7.085   1.661  12.635  0.5057 -0.3330 -0.4381
   8923SM  H12B11900   7.041   1.494  12.660 -0.6756 -1.5221 -1.3379
   8923SM   C1111901   6.881   1.644  12.670  0.1719  0.7102 -0.1881
   8923SM  H11A11902   6.857   1.729  12.603 -0.0772 -1.4278 -3.0459
   8923SM  H11B11903   6.902   1.677  12.773  1.0060 -0.4569  0.0372
   8923SM     P11904   6.746   1.439  12.766  0.0785  0.3726 -0.0710
   8923SM   O1311905   6.626   1.464  12.846  0.2887  0.1564 -0.0274
   8923SM   O1411906   6.747   1.319  12.675  0.3416  0.2244 -0.8562
   8923SM   O1111907   6.864   1.428  12.869  0.4258 -0.2454 -0.8432
   8923SM   O1211908   6.766   1.562  12.669  0.2774  0.2656 -0.5752
   8923SM   C1S11909   6.873   1.506  12.990 -0.1073  0.8968 -0.2560
   8923SM   H1S11910   6.796   1.585  13.005 -1.4555 -0.7770  2.2769
   8923SM   H1T11911   6.972   1.557  12.989 -0.1868  1.1100  0.8830
   8923SM    NF11912   6.896   1.497  13.247  0.1928  0.1391  0.6103
   8923SM   HNF11913   6.977   1.471  13.298  0.9195 -0.6509 -0.8742
   8923SM   C2S11914   6.878   1.416  13.123 -0.4925 -0.2462 -0.0812
   8923SM   H2S11915   6.785   1.355  13.123  0.9951 -2.6494 -0.8539
   8923SM   C3S11916   6.990   1.304  13.120 -0.7330 -0.4577  0.0699
   8923SM   H3S11917   7.091   1.349  13.109  0.2327 -2.8622 -2.0583
   8923SM    O311918   6.984   1.234  13.001  0.8816  0.6388  0.0364
   8923SM   HO311919   6.935   1.290  12.941 -0.9530 -0.4519  0.4568
   8923SM   C4S11920   6.972   1.213  13.234 -0.6969 -0.3461 -0.1434
   8923SM   H4S11921   7.033   1.227  13.324 -0.8588  0.3011 -0.1303
   8923SM   C5S11922   6.885   1.110  13.243  0.0450  0.3143 -0.0348
   8923SM   H5S11923   6.828   1.089  13.152  3.1473 -1.3689 -1.7594
   8923SM   C6S11924   6.867   1.017  13.362  0.3542  0.6812 -0.2845
   8923SM   H6S11925   6.916   0.922  13.330  1.5524  1.4650 -0.8430
   8923SM   H6T11926   6.762   0.987  13.380  0.4508  1.4774  1.8075
   8923SM   C7S11927   6.928   1.063  13.497  0.4653 -0.1056  0.1411
   8923SM   H7S11928   6.862   1.139  13.543 -1.3174 -1.8364  0.6026
   8923SM   H7T11929   7.034   1.091  13.481  0.4035  0.6735  1.0056
   8923SM   C8S11930   6.926   0.953  13.601 -0.5019  0.3650  0.3793
   8923SM   H8S11931   6.973   0.864  13.553 -2.1531  0.3388 -1.2764
   8923SM   H8T11932   6.826   0.912  13.625  1.0110 -2.4632  2.4377
   8923SM   C9S11933   7.002   0.989  13.731  0.3252 -0.7935  0.0129
   8923SM   H9S11934   6.971   1.091  13.763 -0.1699 -1.5619  2.1330
   8923SM   H9T11935   7.108   1.001  13.700  0.4350 -0.0561  0.6389
   8923SM  C10S11936   6.960   0.888  13.836 -0.5026  0.3165  0.4406
   8923SM  H10S11937   6.931   0.790  13.792  0.2936  0.4241 -0.3588
   8923SM  H10T11938   6.874   0.937  13.886  0.5071  2.6314  0.0085
   8923SM  C11S11939   7.073   0.858  13.939  0.0558 -0.0423  0.2142
   8923SM  H11S11940   7.169   0.898  13.897 -0.5804  0.6625 -0.6165
   8923SM  H11T11941   7.087   0.752  13.966 -1.5440 -0.2124  0.4320
   8923SM  C12S11942   7.060   0.936  14.070 -0.1373  0.0835  0.3993
   8923SM  H12S11943   6.967   0.908  14.124  1.1482 -0.2411  2.5419
   8923SM  H12T11944   7.061   1.043  14.037  1.6674 -0.3861 -1.2606
   8923SM  C13S11945   7.179   0.906  14.162 -0.1677 -0.0001 -0.1207
   8923SM  H13S11946   7.278   0.936  14.122  0.1509 -1.8875 -0.8689
   8923SM  H13T11947   7.182   0.795  14.175 -0.2772  0.2116  2.0161
   8923SM  C14S11948   7.158   0.969  14.299  0.3042 -0.3929 -0.3415
   8923SM  H14S11949   7.057   0.936  14.331 -0.4101 -0.4818 -2.5007
   8923SM  H14T11950   7.148   1.080  14.296  0.6277 -0.1621  3.0466
   8923SM  C15S11951   7.253   0.929  14.414  0.1838 -0.1859  0.8202
   8923SM  H15S11952   7.350   0.977  14.388 -1.4215  1.6590 -2.4028
   8923SM  H15T11953   7.271   0.820  14.422  1.1335 -0.2829 -1.8663
   8923SM  C16S11954   7.205   0.980  14.550 -0.8315 -0.0089 -0.4795
   8923SM  H16S11955   7.171   1.085  14.534 -1.7294 -0.2308 -0.0861
   8923SM  H16T11956   7.287   0.967  14.624  0.0823  0.3905 -1.3959
   8923SM  C17S11957   7.089   0.892  14.614 -0.5531  0.3313 -0.5758
   8923SM  H17S11958   7.126   0.788  14.625  1.9632  1.2514  0.3014
   8923SM  H17T11959   7.002   0.896  14.545 -1.5359  1.9911  0.7016
   8923SM  C18S11960   7.042   0.925  14.749  0.3641 -0.4287 -0.0317
   8923SM  H18S11961   6.987   1.021  14.757 -1.1087 -1.3186  1.1694
   8923SM  H18T11962   7.124   0.947  14.821 -0.6771  0.8314  0.7975
   8923SM  H18U11963   6.975   0.847  14.792  1.1612 -1.4148 -0.5182
   8923SM   C1F11964   6.815   1.594  13.286 -0.6356  0.3124 -0.8099
   8923SM    OF11965   6.708   1.622  13.230  0.5960  0.3483  0.3166
   8923SM   C2F11966   6.869   1.682  13.396 -0.4034  0.5641  0.7875
   8923SM   H2F11967   6.871   1.780  13.343  0.7433 -0.1071 -0.4593
   8923SM   H2G11968   6.967   1.647  13.435 -0.4931  2.4278  2.9117
   8923SM   C3F11969   6.775   1.683  13.521 -0.6159 -0.2901  0.5771
   8923SM   H3F11970   6.763   1.589  13.579 -2.5126  0.1973  1.0486
   8923SM   H3G11971   6.673   1.721  13.497  0.3382  2.6572  0.7824
   8923SM   C4F11972   6.810   1.793  13.623  0.1871 -0.1343  0.4721
   8923SM   H4F11973   6.792   1.892  13.575 -0.2991 -0.3117  0.2837
   8923SM   H4G11974   6.920   1.783  13.635  0.4100  1.3562 -0.0793
   8923SM   C5F11975   6.751   1.773  13.764  0.6029 -0.2196  1.1514
   8923SM   H5F11976   6.788   1.674  13.799  0.3237 -1.4934 -1.8536
   8923SM   H5G11977   6.640   1.770  13.757  0.5308 -0.1872  2.0837
   8923SM   C6F11978   6.775   1.894  13.850  0.2818 -0.4305 -0.3482
   8923SM   H6F11979   6.682   1.902  13.911 -0.8071 -0.8736 -1.8683
   8923SM   H6G11980   6.767   1.990  13.795 -2.5785 -1.2164 -1.5136
   8923SM   C7F11981   6.893   1.895  13.958 -0.0714 -0.0716  0.8001
   8923SM   H7F11982   6.996   1.922  13.924  0.7322 -0.5580  2.7287
   8923SM   H7G11983   6.908   1.794  14.002 -0.8023 -0.5709 -0.0714
   8923SM   C8F11984   6.855   1.990  14.070 -0.2585  0.4796  0.1031
   8923SM   H8F11985   6.756   1.964  14.113 -0.8573  0.8050 -1.0240
   8923SM   H8G11986   6.841   2.087  14.017  1.4729 -0.1952 -1.7462
   8923SM   C9F11987   6.963   2.018  14.175  0.2801  0.3366  0.0963
   8923SM   H9F11988   7.029   2.102  14.143 -0.8841  0.9813 -0.7268
   8923SM   H9G11989   7.030   1.930  14.174  2.6588  2.0365 -2.0089
   8923SM  C10F11990   6.918   2.027  14.321  0.4606  0.4964 -0.0786
   8923SM  H10F11991   6.867   1.931  14.344  1.6818 -0.0087  0.6236
   8923SM  H10G11992   6.834   2.099  14.327 -1.4581 -1.7628  2.2373
   8923SM  C11F11993   7.031   2.066  14.417  0.3479 -0.0734 -0.4946
   8923SM  H11F11994   7.077   2.161  14.381  1.7231  0.1424  1.6712
   8923SM  H11G11995   7.111   1.990  14.419  1.2461  0.8672  0.2653
   8923SM  C12F11996   6.976   2.078  14.559  0.2152 -0.5275 -0.5290
   8923SM  H12F11997   6.958   1.976  14.601  0.0024  0.2050  1.2498
   8923SM  H12G11998   6.888   2.145  14.555  0.6309  0.1013  0.5814
   8923SM  C13F11999   7.068   2.149  14.653 -0.4497 -0.5745 -0.4065
   8923SM  H13F12000   7.026   2.146  14.756  0.8694 -0.6056  0.1462
   8923SM  H13G12001   7.069   2.258  14.634 -0.3567 -0.5322 -0.1588
   8923SM  C14F12002   7.213   2.098  14.654 -0.1695  0.1689 -0.0748
   8923SM  H14F12003   7.258   2.127  14.557 -1.0201  0.4292 -0.3925
   8923SM  H14G12004   7.215   1.987  14.652 -2.7773  0.0691 -1.7758
   8923SM  C15F12005   7.289   2.147  14.775  0.2736 -0.1004  0.6647
   8923SM  H15F12006   7.273   2.073  14.857  1.8570 -1.6515 -0.3495
   8923SM  H15G12007   7.255   2.251  14.792  3.2868  1.3842 -1.4851
   8923SM  C16F12008   7.438   2.169  14.751 -0.6016 -0.2761 -0.2814
   8923SM  H16F12009   7.466   2.255  14.686 -0.0180  1.1947  1.8170
   8923SM  H16G12010   7.479   2.076  14.704  0.5595 -0.0135  0.1765
   8923SM  C17F12011   7.522   2.191  14.881  0.0758 -0.2440  0.5739
   8923SM  H17F12012   7.466   2.138  14.961  0.3255 -1.1696  0.1502
   8923SM  H17G12013   7.530   2.302  14.888  0.2203 -0.2283  0.1849
   8923SM  C18F12014   7.666   2.145  14.858  0.3898 -0.1744 -0.0131
   8923SM  H18F12015   7.726   2.191  14.777  2.7556 -1.3028  0.9696
   8923SM  H18G12016   7.671   2.038  14.830 -0.5265  0.0653 -1.1358
   8923SM  C19F12017   7.757   2.156  14.979  0.4972 -0.8386  0.7773
   8923SM  H19F12018   7.721   2.091  15.062 -1.4548 -0.3675  0.3400
   8923SM  H19G12019   7.777   2.263  15.003 -1.9573 -0.1786  0.1415
   8923SM  C20F12020   7.895   2.103  14.936 -0.7713  0.5382 -0.1796
   8923SM  H20F12021   7.958   2.124  15.025 -1.6877 -2.0484  1.1862
   8923SM  H20G12022   7.947   2.163  14.859  0.6701  1.5973  1.5510
   8923SM  C21F12023   7.908   1.950  14.918  0.3553  0.4637 -0.5615
   8923SM  H21F12024   7.842   1.917  14.835 -0.3089 -0.9568  0.4841
   8923SM  H21G12025   7.864   1.902  15.008 -0.0577 -0.5117 -1.2592
   8923SM  C22F12026   8.055   1.905  14.915 -0.0624  0.4245  0.5185
   8923SM  H22F12027   8.058   1.794  14.910  1.5073  0.3825  1.7028
   8923SM  H22G12028   8.110   1.922  15.010 -0.1524  0.3494  0.5845
   8923SM  C23F12029   8.141   1.966  14.805  0.2386 -0.6769 -0.1616
   8923SM  H23F12030   8.171   2.073  14.813  0.6773 -0.7755 -0.4859
   8923SM  H23G12031   8.092   1.960  14.705  2.2078  0.1235 -1.2187
   8923SM  H23H12032   8.237   1.911  14.793  1.9889  2.3662 -1.2276
   9023SM     N12033   6.988   1.024  12.662 -0.0718 -0.1255  0.2184
   9023SM   C1512034   7.125   0.966  12.666 -0.8440 -0.8040 -1.5201
   9023SM  H15A12035   7.175   0.978  12.571  1.9889  0.8103  0.0175
   9023SM  H15B12036   7.130   0.863  12.699  0.0110 -0.1724  0.5194
   9023SM  H15C12037   7.187   1.012  12.742 -1.5548 -1.8080 -0.2830
   9023SM   C1412038   6.916   1.000  12.787 -0.0137  0.2922  0.3155
   9023SM  H14A12039   6.903   0.893  12.802  0.0529  0.2911  0.3696
   9023SM  H14B12040   6.817   1.042  12.776 -0.2839 -0.2393  0.6433
   9023SM  H14C12041   6.968   1.042  12.872 -1.7982  0.6165  1.2934
   9023SM   C1312042   6.999   1.171  12.635 -0.2787 -0.1889 -0.4039
   9023SM  H13A12043   7.053   1.232  12.706  0.4455  2.3266 -2.9228
   9023SM  H13B12044   6.904   1.222  12.632 -0.8635 -0.9070  2.7229
   9023SM  H13C12045   7.058   1.197  12.548  2.3248  0.7884  1.4907
   9023SM   C1212046   6.907   0.960  12.544 -0.0310 -0.1818 -0.8181
   9023SM  H12A12047   6.969   0.967  12.455  0.0005  0.6186 -0.7361
   9023SM  H12B12048   6.814   1.012  12.527 -0.4706 -0.9507 -0.8159
   9023SM   C1112049   6.865   0.811  12.562  0.7675  0.4377  0.5092
   9023SM  H11A12050   6.816   0.782  12.467 -0.2792 -0.7502  1.3662
   9023SM  H11B12051   6.781   0.810  12.636 -0.4184  2.2372 -0.7257
   9023SM     P12052   6.997   0.628  12.707  0.2093 -0.2058  0.0931
   9023SM   O1312053   6.941   0.492  12.674  0.3509 -0.2339  0.1507
   9023SM   O1412054   7.139   0.638  12.729  0.0794  0.1028 -0.2274
   9023SM   O1112055   6.913   0.697  12.822  0.0711  0.2796 -0.5043
   9023SM   O1212056   6.967   0.721  12.582 -0.4267  0.1029  0.4167
   9023SM   C1S12057   6.876   0.612  12.928 -0.0674  0.3053  0.3780
   9023SM   H1S12058   6.966   0.569  12.977 -0.7139 -0.2279  1.1237
   9023SM   H1T12059   6.818   0.525  12.889  0.9135 -0.4018  0.4479
   9023SM    NF12060   6.810   0.637  13.168 -0.0629 -0.1813 -0.0879
   9023SM   HNF12061   6.728   0.597  13.208 -1.2043  3.3983  1.5536
   9023SM   C2S12062   6.803   0.695  13.038  0.3237 -0.9746 -0.2839
   9023SM   H2S12063   6.859   0.791  13.044  0.0951 -0.6979 -2.0576
   9023SM   C3S12064   6.665   0.735  12.994  0.0585 -0.2795  0.4946
   9023SM   H3S12065   6.616   0.639  12.966  1.1312 -0.4210 -1.0636
   9023SM    O312066   6.656   0.808  12.870 -0.3322  0.0990  0.0417
   9023SM   HO312067   6.746   0.810  12.836 -0.1776  0.3597  0.4561
   9023SM   C4S12068   6.597   0.801  13.107  0.8430 -0.3075  0.0295
   9023SM   H4S12069   6.547   0.739  13.182  0.0766 -0.4685 -0.6043
   9023SM   C5S12070   6.582   0.936  13.124  0.4318 -0.0874  0.0735
   9023SM   H5S12071   6.622   0.997  13.042 -0.3172  1.1586  0.6063
   9023SM   C6S12072   6.512   1.013  13.236  0.3755 -0.2091 -0.1133
   9023SM   H6S12073   6.440   1.086  13.192  1.1473  1.0707  0.6902
   9023SM   H6T12074   6.586   1.079  13.286 -0.5111  0.7414 -0.0166
   9023SM   C7S12075   6.440   0.932  13.343 -0.9105 -0.7542 -1.2661
   9023SM   H7S12076   6.388   0.846  13.297 -1.5101 -0.5897 -0.9072
   9023SM   H7T12077   6.365   1.001  13.386  0.0091  0.8046 -2.1027
   9023SM   C8S12078   6.524   0.871  13.461 -1.2239 -0.3578 -0.6431
   9023SM   H8S12079   6.581   0.944  13.521 -1.0972 -0.2726 -0.8657
   9023SM   H8T12080   6.594   0.791  13.429 -0.4687 -0.0578  0.2130
   9023SM   C9S12081   6.426   0.812  13.567  0.3633  0.2609 -0.9218
   9023SM   H9S12082   6.360   0.736  13.521  1.3011 -1.0853 -0.0959
   9023SM   H9T12083   6.366   0.900  13.598 -0.2274 -0.2462 -0.6176
   9023SM  C10S12084   6.500   0.745  13.683  0.2022  0.1652 -0.1176
   9023SM  H10S12085   6.589   0.692  13.643  1.0025  1.7800 -0.5967
   9023SM  H10T12086   6.430   0.671  13.728  0.6060  0.3431  0.8434
   9023SM  C11S12087   6.541   0.832  13.802  0.3652  0.5263  0.0798
   9023SM  H11S12088   6.456   0.892  13.840 -1.8227 -0.7418 -2.4422
   9023SM  H11T12089   6.622   0.903  13.775 -1.4921  3.3023  1.4012
   9023SM  C12S12090   6.601   0.741  13.914  0.2438  0.8319 -0.3450
   9023SM  H12S12091   6.692   0.690  13.875  0.1869  1.2887 -1.0944
   9023SM  H12T12092   6.525   0.664  13.940  0.8755 -0.5036 -2.2106
   9023SM  C13S12093   6.628   0.820  14.042  0.1040 -0.0989  0.0431
   9023SM  H13S12094   6.542   0.885  14.070 -0.7382 -1.3330  0.4298
   9023SM  H13T12095   6.705   0.892  14.007 -1.5166  0.6594 -2.2117
   9023SM  C14S12096   6.678   0.731  14.157  0.5719  0.1061 -0.2988
   9023SM  H14S12097   6.757   0.662  14.119  1.1083  0.5713 -0.0508
   9023SM  H14T12098   6.602   0.659  14.193  0.4292 -0.1327 -1.0615
   9023SM  C15S12099   6.737   0.798  14.283  0.9585 -0.9485 -0.4183
   9023SM  H15S12100   6.658   0.861  14.329  1.5725 -0.0988 -0.4997
   9023SM  H15T12101   6.818   0.864  14.244 -0.0155  1.5295  1.4736
   9023SM  C16S12102   6.795   0.700  14.387 -0.0762  0.5201  0.9684
   9023SM  H16S12103   6.716   0.636  14.433 -0.0928  0.6284  1.0915
   9023SM  H16T12104   6.830   0.754  14.478 -1.6172 -1.8753  3.1627
   9023SM  C17S12105   6.924   0.623  14.353 -0.2418  0.2064  0.0477
   9023SM  H17S12106   7.017   0.681  14.337 -0.2399  0.1536 -0.1295
   9023SM  H17T12107   6.917   0.555  14.265  0.4333 -1.7260  1.3985
   9023SM  C18S12108   6.961   0.524  14.469  0.1588 -0.7325 -0.3519
   9023SM  H18S12109   6.957   0.590  14.558  1.4931  0.8447 -1.3963
   9023SM  H18T12110   7.063   0.482  14.465  0.0938 -0.7963 -2.3597
   9023SM  H18U12111   6.888   0.440  14.474  0.6646 -1.0959  1.4167
   9023SM   C1F12112   6.926   0.623  13.233  0.0709  0.2065 -0.1924
   9023SM    OF12113   7.033   0.664  13.186  0.7880 -0.3725  0.0716
   9023SM   C2F12114   6.914   0.552  13.367 -1.2044  0.0660 -0.7792
   9023SM   H2F12115   6.893   0.445  13.342 -0.6052 -0.1716 -0.2877
   9023SM   H2G12116   6.834   0.603  13.425 -0.9074  0.1908 -0.4779
   9023SM   C3F12117   7.042   0.561  13.459 -0.0679 -0.0584 -0.4915
   9023SM   H3F12118   7.067   0.665  13.488 -0.7323 -0.1723  0.5498
   9023SM   H3G12119   7.130   0.533  13.397 -0.8940 -0.3088 -1.5794
   9023SM   C4F12120   7.047   0.467  13.587 -0.3707  0.5165  0.4359
   9023SM   H4F12121   7.155   0.461  13.612 -0.3148  1.7084  0.5605
   9023SM   H4G12122   7.008   0.372  13.546  1.2399  1.0511 -2.6701
   9023SM   C5F12123   6.969   0.514  13.710 -0.4113 -0.2300  0.3737
   9023SM   H5F12124   6.870   0.559  13.690 -0.7058 -1.1151 -0.2286
   9023SM   H5G12125   7.030   0.598  13.748 -0.0019 -0.3401 -0.0182
   9023SM   C6F12126   6.958   0.406  13.824  0.2113  0.0170  0.4443
   9023SM   H6F12127   7.065   0.381  13.842  0.2126 -2.3223 -2.0619
   9023SM   H6G12128   6.911   0.319  13.772  1.2258 -0.2874 -0.0025
   9023SM   C7F12129   6.882   0.433  13.947  0.8016  0.6017  0.2641
   9023SM   H7F12130   6.779   0.468  13.924  0.1421 -1.8008 -0.7605
   9023SM   H7G12131   6.920   0.508  14.019  4.0099 -1.2303  0.6456
   9023SM   C8F12132   6.843   0.300  14.023 -0.1336 -0.3030 -0.2128
   9023SM   H8F12133   6.935   0.267  14.077 -1.4551 -1.5211  1.3715
   9023SM   H8G12134   6.803   0.224  13.954 -0.6266 -0.8983  0.7083
   9023SM   C9F12135   6.733   0.321  14.138  0.5467 -0.1508  0.6376
   9023SM   H9F12136   6.638   0.342  14.085  0.2167  0.0493  1.3014
   9023SM   H9G12137   6.761   0.414  14.193  1.5611  1.5485 -2.4720
   9023SM  C10F12138   6.708   0.209  14.234 -0.5872  0.6609  0.5624
   9023SM  H10F12139   6.812   0.185  14.267 -0.4506  2.6411  1.7331
   9023SM  H10G12140   6.673   0.119  14.179  2.0635  1.5056 -2.8772
   9023SM  C11F12141   6.616   0.249  14.342 -0.5287 -0.2935 -0.6720
   9023SM  H11F12142   6.532   0.304  14.296 -1.0937 -2.2813 -2.1779
   9023SM  H11G12143   6.669   0.313  14.416  1.5652 -3.0915  0.4595
   9023SM  C12F12144   6.547   0.130  14.416 -0.5773  0.1050  0.2156
   9023SM  H12F12145   6.614   0.046  14.443 -1.4710 -0.9525 -0.7140
   9023SM  H12G12146   6.459   0.093  14.359 -0.8898  0.0602  0.7272
   9023SM  C13F12147   6.486   0.178  14.541 -0.2933  0.0104 -0.1568
   9023SM  H13F12148   6.394   0.237  14.522 -1.0645 -0.9283  0.5877
   9023SM  H13G12149   6.556   0.237  14.604 -1.9184  0.2178  1.5260
   9023SM  C14F12150   6.421   0.067  14.629  0.0395  0.1092  0.0883
   9023SM  H14F12151   6.498   0.014  14.687  1.3625 -1.0500 -2.5347
   9023SM  H14G12152   6.375  -0.005  14.557 -1.0955 -0.8138  1.6718
   9023SM  C15F12153   6.314   0.127  14.727  0.2009  0.4800  0.1768
   9023SM  H15F12154   6.230   0.160  14.661  1.2825  0.0950 -1.4387
   9023SM  H15G12155   6.367   0.215  14.769  0.0153  2.2013 -2.8754
   9023SM  C16F12156   6.265   0.034  14.831 -0.6452 -0.4198 -0.3335
   9023SM  H16F12157   6.251  -0.068  14.791  2.2464 -1.1604  0.2644
   9023SM  H16G12158   6.178   0.079  14.883  0.2709  0.3689  0.5716
   9023SM  C17F12159   6.363   0.017  14.947 -0.0932 -0.8359  0.3491
   9023SM  H17F12160   6.466  -0.011  14.916  0.1648 -1.3654  1.6086
   9023SM  H17G12161   6.330  -0.065  15.015 -1.6560 -0.1793  0.4279
   9023SM  C18F12162   6.364   0.144  15.035  0.8274  0.1650 -0.1600
   9023SM  H18F12163   6.259   0.179  15.044  0.7036 -0.6393  2.3101
   9023SM  H18G12164   6.422   0.231  14.998  0.5786  0.9260  1.1388
   9023SM  C19F12165   6.402   0.109  15.183  0.1587  0.8521 -0.1897
   9023SM  H19F12166   6.502   0.063  15.168  0.5464  0.8631  2.0392
   9023SM  H19G12167   6.339   0.038  15.239 -0.3670  1.6706  0.2795
   9023SM  C20F12168   6.425   0.237  15.270  0.1963  0.0601 -0.2850
   9023SM  H20F12169   6.333   0.298  15.283  0.0167 -0.7226  3.2979
   9023SM  H20G12170   6.495   0.301  15.213 -0.3836 -0.8847 -2.1183
   9023SM  C21F12171   6.470   0.197  15.406 -0.6261 -0.0790 -0.7685
   9023SM  H21F12172   6.551   0.123  15.393  0.2721  0.8572 -0.6645
   9023SM  H21G12173   6.393   0.142  15.464  0.3344 -0.5310  0.1011
   9023SM  C22F12174   6.519   0.306  15.501  0.0937  0.2215  0.3603
   9023SM  H22F12175   6.587   0.260  15.576 -1.6046 -2.4339  0.4498
   9023SM  H22G12176   6.433   0.355  15.553 -0.1361  1.1113 -0.8311
   9023SM  C23F12177   6.607   0.422  15.448 -0.2309 -0.2960  0.1631
   9023SM  H23F12178   6.705   0.391  15.406 -0.8750 -1.0099 -0.8890
   9023SM  H23G12179   6.631   0.492  15.530 -2.5807  0.0159  0.6526
   9023SM  H23H12180   6.562   0.481  15.365  0.0855  0.6535  0.6577
   9123SM     N12181   0.104   3.930  12.250 -0.1950  0.1716  0.7812
   9123SM   C1512182   0.130   3.787  12.201  0.7246 -0.0237  0.0984
   9123SM  H15A12183   0.186   3.730  12.274  0.2580 -1.4330 -0.6123
   9123SM  H15B12184   0.189   3.776  12.111 -0.1436  0.0915 -0.5002
   9123SM  H15C12185   0.035   3.740  12.183  0.9747  0.4770 -3.1342
   9123SM   C1412186   0.229   4.010  12.273  0.0392 -0.4682  0.1342
   9123SM  H14A12187   0.291   3.956  12.343 -0.0087  0.0033  0.5392
   9123SM  H14B12188   0.209   4.108  12.313  0.1504 -0.1067 -0.6697
   9123SM  H14C12189   0.275   4.032  12.177 -1.9153  0.6309 -0.6138
   9123SM   C1312190   0.009   3.989  12.150 -0.3661 -0.1790 -0.3570
   9123SM  H13A12191  -0.038   4.080  12.183 -2.6111 -1.0457 -0.9686
   9123SM  H13B12192  -0.069   3.917  12.126  0.8316 -1.5170 -0.3965
   9123SM  H13C12193   0.054   4.013  12.055  1.3647  2.8203  1.0939
   9123SM   C1212194   0.042   3.917  12.385 -0.2041 -0.5406 -0.6500
   9123SM  H12A12195  -0.053   3.869  12.365 -0.9136  0.5596  0.0048
   9123SM  H12B12196   0.015   4.016  12.418  0.6763 -0.9593  1.4764
   9123SM   C1112197   0.109   3.847  12.512 -0.0556 -0.4447  0.3578
   9123SM  H11A12198   0.120   3.741  12.482 -0.9977 -0.4970  0.1518
   9123SM  H11B12199   0.039   3.853  12.598  0.0712  1.5226  0.3859
   9123SM     P12200   0.234   4.043  12.607  0.6838  0.1024  0.0184
   9123SM   O1312201   0.362   4.112  12.595  0.1333  0.0095 -0.6159
   9123SM   O1412202   0.116   4.131  12.574 -0.2798 -0.2831 -1.0156
   9123SM   O1112203   0.224   4.003  12.758  0.2249  0.1484  0.0368
   9123SM   O1212204   0.233   3.909  12.535  0.5008  0.3527  0.0082
   9123SM   C1S12205   0.110   3.999  12.843 -0.2213 -0.8752  0.0432
   9123SM   H1S12206   0.068   3.896  12.834  0.7667 -1.1648 -1.7831
   9123SM   H1T12207   0.026   4.062  12.806  1.1338  0.6895 -0.4531
   9123SM    NF12208   0.023   4.002  13.074 -0.4997 -0.2117 -1.1316
   9123SM   HNF12209  -0.040   4.072  13.107 -1.9899 -2.9008  2.3478
   9123SM   C2S12210   0.137   4.033  12.993  0.0790 -0.2415 -0.6445
   9123SM   H2S12211   0.226   3.976  13.027  1.6376  2.2601 -0.3369
   9123SM   C3S12212   0.185   4.182  13.000 -0.4647 -0.1760  0.0731
   9123SM   H3S12213   0.099   4.245  12.966  1.3122  2.3001 -0.0911
   9123SM    O312214   0.295   4.221  12.911 -0.1607 -0.2133  0.1730
   9123SM   HO312215   0.329   4.144  12.865  0.3666 -0.7670  1.4439
   9123SM   C4S12216   0.210   4.212  13.141 -0.1880  0.3821 -0.1549
   9123SM   H4S12217   0.115   4.233  13.192 -0.8209  1.7600 -1.7783
   9123SM   C5S12218   0.328   4.185  13.211  0.7598 -0.5624 -0.3328
   9123SM   H5S12219   0.419   4.159  13.155 -0.0695 -0.8959 -1.5478
   9123SM   C6S12220   0.340   4.204  13.364 -0.5352 -0.5638  0.8554
   9123SM   H6S12221   0.420   4.280  13.370 -2.1700  1.3278 -0.2088
   9123SM   H6T12222   0.390   4.119  13.416  1.9590  0.7732  0.7767
   9123SM   C7S12223   0.218   4.235  13.451  0.5121 -0.0829 -0.0804
   9123SM   H7S12224   0.140   4.157  13.442  0.1670  0.0795  1.2516
   9123SM   H7T12225   0.181   4.332  13.411  0.4520  0.1868  0.6168
   9123SM   C8S12226   0.252   4.253  13.603  0.0096  0.6881  0.0967
   9123SM   H8S12227   0.315   4.345  13.610 -0.0490  0.7435 -0.1033
   9123SM   H8T12228   0.319   4.171  13.637  2.6197  2.7717  0.2935
   9123SM   C9S12229   0.122   4.281  13.682  0.0567  0.3878 -0.1460
   9123SM   H9S12230   0.062   4.188  13.690  0.5364  0.1388  0.7137
   9123SM   H9T12231   0.067   4.359  13.626 -0.9906 -0.1198  0.1658
   9123SM  C10S12232   0.143   4.362  13.814  0.7200  0.9491 -0.1736
   9123SM  H10S12233   0.213   4.444  13.789  2.0302 -0.3101 -0.8246
   9123SM  H10T12234   0.189   4.294  13.889 -2.1890 -0.6001  0.3405
   9123SM  C11S12235   0.009   4.421  13.871  0.6859 -0.1964  0.5845
   9123SM  H11S12236  -0.062   4.336  13.866  0.9472 -0.4096  0.4420
   9123SM  H11T12237  -0.033   4.502  13.809 -0.5997  1.0583  2.9463
   9123SM  C12S12238   0.025   4.478  14.012  0.5662  0.4167 -0.2906
   9123SM  H12S12239  -0.058   4.547  14.041  0.7448  0.8097 -0.7027
   9123SM  H12T12240   0.113   4.546  14.012  0.9197 -0.0405 -0.2039
   9123SM  C13S12241   0.062   4.377  14.129  0.2137 -0.9122  0.7944
   9123SM  H13S12242   0.152   4.322  14.094 -0.4979 -2.5464  1.3840
   9123SM  H13T12243  -0.016   4.297  14.132  0.0084 -0.7398  0.0643
   9123SM  C14S12244   0.071   4.439  14.261 -0.7157 -0.0206  0.2585
   9123SM  H14S12245  -0.025   4.476  14.302 -0.1403  0.0488  1.6005
   9123SM  H14T12246   0.136   4.528  14.257 -0.9882  0.1506 -0.5011
   9123SM  C15S12247   0.136   4.339  14.360  1.0060  0.0438  0.7619
   9123SM  H15S12248   0.236   4.316  14.317 -0.3682 -3.1000 -1.1110
   9123SM  H15T12249   0.076   4.246  14.361  1.2274 -0.0979  0.9666
   9123SM  C16S12250   0.128   4.398  14.500  0.2223  0.7581 -0.7665
   9123SM  H16S12251   0.022   4.408  14.529  0.6131  0.3427  0.9047
   9123SM  H16T12252   0.181   4.496  14.496  1.5577  0.0799 -0.3962
   9123SM  C17S12253   0.197   4.317  14.603 -0.6109 -0.0312 -0.5434
   9123SM  H17S12254   0.303   4.303  14.574 -0.1874 -0.5901  1.1175
   9123SM  H17T12255   0.146   4.217  14.603 -0.2133 -0.2640  1.2312
   9123SM  C18S12256   0.200   4.375  14.748 -0.1968 -1.0165  0.0008
   9123SM  H18S12257   0.230   4.480  14.726  0.4193 -1.3916 -1.0347
   9123SM  H18T12258   0.266   4.318  14.817  0.4781  0.8767  1.0008
   9123SM  H18U12259   0.095   4.381  14.784 -0.7612  1.0467 -1.7622
   9123SM   C1F12260  -0.003   3.878  13.109 -0.7193 -0.0472 -0.5327
   9123SM    OF12261   0.081   3.789  13.091  0.2308 -0.3169  0.1816
   9123SM   C2F12262  -0.138   3.861  13.164 -0.1231  0.0699  0.0326
   9123SM   H2F12263  -0.137   3.750  13.171  3.6382 -0.1197 -1.1945
   9123SM   H2G12264  -0.218   3.894  13.094  0.8151  0.1195 -1.0408
   9123SM   C3F12265  -0.153   3.917  13.308  0.8501  0.1336  0.1808
   9123SM   H3F12266  -0.263   3.907  13.321  0.4898  0.0538 -2.4536
   9123SM   H3G12267  -0.120   4.023  13.322 -1.4105  0.7111  1.7780
   9123SM   C4F12268  -0.084   3.832  13.411 -0.1194 -0.4488 -1.5553
   9123SM   H4F12269   0.026   3.850  13.411 -0.2895  0.7057 -2.1944
   9123SM   H4G12270  -0.115   3.727  13.399 -0.9993 -0.1928 -1.5622
   9123SM   C5F12271  -0.134   3.870  13.556 -0.3126 -0.2675  0.1702
   9123SM   H5F12272  -0.243   3.848  13.564 -0.5984  0.5310 -1.2658
   9123SM   H5G12273  -0.119   3.979  13.572 -0.1899  0.0129 -1.6519
   9123SM   C6F12274  -0.073   3.771  13.663  0.7082  0.0164  0.2358
   9123SM   H6F12275   0.037   3.784  13.669  0.5702  1.1764  0.5829
   9123SM   H6G12276  -0.093   3.665  13.638  1.0993 -0.2257  0.9215
   9123SM   C7F12277  -0.128   3.793  13.801  0.6124  0.3058 -0.1905
   9123SM   H7F12278  -0.239   3.791  13.809  0.6748  0.9972  1.3085
   9123SM   H7G12279  -0.109   3.899  13.829  0.4981  1.6313 -4.4353
   9123SM   C8F12280  -0.074   3.686  13.905  0.1609 -0.0457  0.5613
   9123SM   H8F12281   0.036   3.699  13.900  0.0761  1.5154 -5.7596
   9123SM   H8G12282  -0.087   3.579  13.878  0.3078 -0.3160  1.5252
   9123SM   C9F12283  -0.140   3.694  14.042 -0.5064  0.0788 -0.6351
   9123SM   H9F12284  -0.244   3.653  14.040  0.1124 -1.5815 -0.7522
   9123SM   H9G12285  -0.147   3.797  14.081  2.0609  0.6224 -1.4650
   9123SM  C10F12286  -0.051   3.609  14.140 -0.0887 -0.2276  0.4774
   9123SM  H10F12287   0.056   3.639  14.128  0.1277 -1.7341 -1.9645
   9123SM  H10G12288  -0.059   3.503  14.109  0.1752  0.1213 -0.8523
   9123SM  C11F12289  -0.074   3.609  14.293 -0.1953 -0.4635 -0.5547
   9123SM  H11F12290  -0.059   3.711  14.335 -0.9245 -0.2056 -0.9015
   9123SM  H11G12291   0.013   3.551  14.331 -0.4497  0.4072  1.4833
   9123SM  C12F12292  -0.212   3.559  14.349 -0.3944  0.2643  0.2118
   9123SM  H12F12293  -0.206   3.448  14.347 -2.3975  0.1077  0.8499
   9123SM  H12G12294  -0.285   3.584  14.269  0.5470 -0.0735 -0.7830
   9123SM  C13F12295  -0.245   3.621  14.478  0.4421 -0.6417 -0.0034
   9123SM  H13F12296  -0.254   3.731  14.461  0.2352 -0.5924  0.4041
   9123SM  H13G12297  -0.162   3.604  14.550 -0.2984  1.1870  1.3865
   9123SM  C14F12298  -0.379   3.572  14.528  0.2001 -0.3830 -0.5242
   9123SM  H14F12299  -0.358   3.464  14.539  1.0021 -0.2807 -0.9563
   9123SM  H14G12300  -0.457   3.591  14.451 -1.7102 -3.0041  0.6390
   9123SM  C15F12301  -0.422   3.646  14.659  0.3483 -0.3641 -0.2383
   9123SM  H15F12302  -0.424   3.754  14.635 -0.3396  0.1962  2.1021
   9123SM  H15G12303  -0.341   3.622  14.731 -0.7386  0.4203  1.3085
   9123SM  C16F12304  -0.553   3.597  14.716  0.1815  0.3581  0.0677
   9123SM  H16F12305  -0.539   3.490  14.743  1.9345  0.1462 -1.4349
   9123SM  H16G12306  -0.632   3.602  14.639  1.6204  2.1516 -1.4037
   9123SM  C17F12307  -0.591   3.686  14.832  0.0590  0.1911 -0.5974
   9123SM  H17F12308  -0.611   3.789  14.796 -2.2345 -0.0697 -0.2459
   9123SM  H17G12309  -0.505   3.694  14.901 -2.5345  1.0826  2.8558
   9123SM  C18F12310  -0.711   3.634  14.910  0.3947  0.1060  0.5263
   9123SM  H18F12311  -0.806   3.631  14.852  0.9856  2.8510 -0.7494
   9123SM  H18G12312  -0.727   3.709  14.991 -1.5617 -0.5739  0.8202
   9123SM  C19F12313  -0.689   3.502  14.988  0.2731  0.1723 -0.0349
   9123SM  H19F12314  -0.684   3.413  14.922  0.6247 -0.8650  1.3274
   9123SM  H19G12315  -0.779   3.496  15.054  0.8291 -0.6482  0.6643
   9123SM  C20F12316  -0.558   3.494  15.075  0.1169  0.1793  0.7426
   9123SM  H20F12317  -0.565   3.577  15.147 -0.9801 -0.3899  1.3220
   9123SM  H20G12318  -0.474   3.513  15.004 -0.8451 -1.9245 -1.1122
   9123SM  C21F12319  -0.542   3.353  15.127  0.8784  0.3019 -0.1772
   9123SM  H21F12320  -0.505   3.277  15.055  0.8180  0.4848 -0.4068
   9123SM  H21G12321  -0.638   3.309  15.162  1.6454 -1.7882 -0.5647
   9123SM  C22F12322  -0.436   3.341  15.240 -0.3913  0.0268 -0.0255
   9123SM  H22F12323  -0.442   3.245  15.295 -0.9272 -1.1892 -2.0995
   9123SM  H22G12324  -0.458   3.425  15.310 -0.6779  1.9306 -2.2597
   9123SM  C23F12325  -0.286   3.342  15.191  0.0999  0.2986  0.3249
   9123SM  H23F12326  -0.229   3.356  15.285  1.9923 -2.0282 -0.3728
   9123SM  H23G12327  -0.279   3.423  15.115 -2.3660 -0.1529 -0.4892
   9123SM  H23H12328  -0.260   3.242  15.151  0.5387  0.6562 -0.3004
   9223SM     N12329   5.865   0.313  12.522 -0.5149 -0.2520  0.4583
   9223SM   C1512330   5.780   0.208  12.581 -0.1682  0.1857 -0.2456
   9223SM  H15A12331   5.772   0.132  12.505 -0.2736  0.0453 -0.0984
   9223SM  H15B12332   5.682   0.246  12.607  0.7636  0.9451  2.5714
   9223SM  H15C12333   5.829   0.165  12.667  0.6419  2.4528  0.5000
   9223SM   C1412334   5.990   0.253  12.472 -0.2293 -0.4207 -0.5111
   9223SM  H14A12335   5.985   0.183  12.390 -1.6059 -0.1823 -0.6474
   9223SM  H14B12336   6.051   0.199  12.544  2.0602  0.3208 -1.7683
   9223SM  H14C12337   6.055   0.334  12.442 -0.9117  0.5301  0.4962
   9223SM   C1312338   5.778   0.372  12.412 -0.5943 -0.0036  0.5428
   9223SM  H13A12339   5.700   0.433  12.454 -0.6612  0.0962  0.2752
   9223SM  H13B12340   5.731   0.288  12.365 -1.3298  0.6111  0.1630
   9223SM  H13C12341   5.846   0.433  12.352 -1.3101  2.4252  2.0550
   9223SM   C1212342   5.883   0.418  12.630 -0.3935 -0.1322  0.2949
   9223SM  H12A12343   5.926   0.355  12.707 -0.7924 -0.4082  0.2950
   9223SM  H12B12344   5.788   0.459  12.662 -0.7553 -0.0214 -0.9017
   9223SM   C1112345   5.987   0.524  12.590 -0.3827 -0.0100  0.0031
   9223SM  H11A12346   5.975   0.615  12.653  0.0167 -0.3145  0.5308
   9223SM  H11B12347   5.976   0.568  12.489  2.2411 -1.9611 -1.2446
   9223SM     P12348   6.200   0.449  12.739 -0.3987 -0.2073 -0.6265
   9223SM   O1312349   6.157   0.327  12.809  0.0174 -0.0420  0.3878
   9223SM   O1412350   6.345   0.450  12.705 -0.0126 -0.6629  0.2885
   9223SM   O1112351   6.162   0.574  12.830 -0.0744 -0.3353  0.1998
   9223SM   O1212352   6.119   0.468  12.601  0.1403  0.5147 -0.6036
   9223SM   C1S12353   6.042   0.562  12.902 -0.3389  0.3834 -0.6596
   9223SM   H1S12354   6.007   0.457  12.907 -1.9408  0.9493  1.4199
   9223SM   H1T12355   5.955   0.614  12.858  0.1182 -0.4735 -2.6821
   9223SM    NF12356   5.923   0.578  13.116 -0.2891  0.3338  0.4037
   9223SM   HNF12357   5.863   0.657  13.129  0.0029  0.3397  1.9164
   9223SM   C2S12358   6.048   0.607  13.045 -0.2116 -0.5063 -0.2613
   9223SM   H2S12359   6.133   0.555  13.094 -0.4403 -2.0313 -1.4353
   9223SM   C3S12360   6.087   0.757  13.054 -0.0872  0.4859 -0.7380
   9223SM   H3S12361   6.005   0.820  13.012 -1.0657 -0.5029 -0.3399
   9223SM    O312362   6.213   0.787  12.985 -0.3609 -0.0657  0.5449
   9223SM   HO312363   6.228   0.706  12.936 -0.3017 -0.3165  0.9759
   9223SM   C4S12364   6.104   0.796  13.205  0.0248  0.8317  0.0767
   9223SM   H4S12365   6.172   0.736  13.266  0.9468 -0.3129 -2.0046
   9223SM   C5S12366   6.028   0.887  13.263  0.1669  0.5920  0.0892
   9223SM   H5S12367   5.942   0.933  13.212  0.9230  1.2524 -0.6092
   9223SM   C6S12368   6.021   0.908  13.408 -0.1341  0.1058 -0.0178
   9223SM   H6S12369   5.960   0.997  13.435  0.8831  0.2769  1.8670
   9223SM   H6T12370   6.125   0.934  13.435  0.2594 -0.9852 -0.4300
   9223SM   C7S12371   5.964   0.787  13.483  0.1805 -0.4731 -0.3612
   9223SM   H7S12372   6.025   0.696  13.464  1.7792  0.4140  0.3195
   9223SM   H7T12373   5.856   0.775  13.458 -1.2923  3.0009  3.2294
   9223SM   C8S12374   5.953   0.805  13.636  0.0216  0.2624 -0.5912
   9223SM   H8S12375   5.886   0.735  13.689  1.1206  0.0122  0.4890
   9223SM   H8T12376   5.909   0.907  13.642  1.3047  0.7526  1.0930
   9223SM   C9S12377   6.085   0.801  13.715 -0.3811 -0.1081  0.2983
   9223SM   H9S12378   6.101   0.899  13.766 -1.2091 -0.9304  2.2514
   9223SM   H9T12379   6.156   0.765  13.638 -1.4164  0.6852 -1.0716
   9223SM  C10S12380   6.081   0.701  13.829 -0.2702  0.7894  0.6693
   9223SM  H10S12381   6.123   0.601  13.802  0.6102  1.1940  0.4900
   9223SM  H10T12382   5.982   0.682  13.873 -0.3210 -0.7256 -0.0247
   9223SM  C11S12383   6.177   0.751  13.939  0.2228  0.0325  0.0072
   9223SM  H11S12384   6.145   0.845  13.988  2.9425  0.3173  1.4157
   9223SM  H11T12385   6.271   0.776  13.885 -0.3208  1.4402 -0.3338
   9223SM  C12S12386   6.213   0.647  14.042  0.1726 -0.1362 -1.0093
   9223SM  H12S12387   6.283   0.575  13.995  0.5537 -0.0831 -0.5298
   9223SM  H12T12388   6.116   0.602  14.073  0.3600 -0.9408 -1.5462
   9223SM  C13S12389   6.271   0.714  14.176 -0.7992  0.1839 -0.3228
   9223SM  H13S12390   6.200   0.787  14.222 -0.2110  0.2202  0.5511
   9223SM  H13T12391   6.363   0.765  14.142 -0.8495  0.4439 -0.0816
   9223SM  C14S12392   6.290   0.605  14.281  0.0956 -0.1444 -1.1446
   9223SM  H14S12393   6.356   0.523  14.246  0.9750 -0.1220  0.3607
   9223SM  H14T12394   6.191   0.557  14.300  0.5607 -0.7468 -0.1590
   9223SM  C15S12395   6.343   0.667  14.410  0.4151 -0.0710 -0.6300
   9223SM  H15S12396   6.265   0.737  14.447  0.6552  0.4626 -1.1301
   9223SM  H15T12397   6.429   0.732  14.386  0.5643  0.4231  1.1419
   9223SM  C16S12398   6.381   0.561  14.512 -0.3601 -0.2884 -0.4248
   9223SM  H16S12399   6.449   0.615  14.581  0.0364  2.8829 -3.0104
   9223SM  H16T12400   6.443   0.484  14.461  0.8955  0.5783 -0.2767
   9223SM  C17S12401   6.269   0.506  14.605 -0.5542 -0.4682  0.4158
   9223SM  H17S12402   6.309   0.435  14.680 -0.9892 -1.8527 -0.6279
   9223SM  H17T12403   6.192   0.451  14.547  0.1469 -0.3241 -0.6801
   9223SM  C18S12404   6.197   0.626  14.673 -0.0883 -0.9188  0.5181
   9223SM  H18S12405   6.273   0.695  14.715  0.2913 -1.1098  0.1485
   9223SM  H18T12406   6.122   0.601  14.751 -0.8770 -0.6671 -0.1361
   9223SM  H18U12407   6.145   0.682  14.592  2.0161  1.0862  0.4458
   9223SM   C1F12408   5.868   0.459  13.145 -0.0250 -0.5949 -0.1183
   9223SM    OF12409   5.906   0.349  13.105 -0.3922 -0.3257  0.2287
   9223SM   C2F12410   5.743   0.467  13.224  0.0474  0.4043 -0.0826
   9223SM   H2F12411   5.661   0.517  13.168  0.4349  0.2593 -0.7803
   9223SM   H2G12412   5.765   0.538  13.307 -1.0159  1.0050 -0.2954
   9223SM   C3F12413   5.686   0.340  13.286 -0.7713 -0.1759  0.6866
   9223SM   H3F12414   5.772   0.285  13.329  0.4522  1.1453  0.0137
   9223SM   H3G12415   5.630   0.282  13.209  0.5536 -1.7349  0.8428
   9223SM   C4F12416   5.591   0.372  13.406  0.5808 -0.2766  0.3710
   9223SM   H4F12417   5.554   0.271  13.434 -2.3323  0.5466 -0.0741
   9223SM   H4G12418   5.504   0.428  13.365  1.0848 -1.2857 -2.2650
   9223SM   C5F12419   5.653   0.438  13.526 -0.3103 -0.1608  0.8828
   9223SM   H5F12420   5.683   0.542  13.500  2.0550 -1.3931 -1.8630
   9223SM   H5G12421   5.756   0.401  13.546  0.3347  0.4358 -1.1184
   9223SM   C6F12422   5.552   0.446  13.638 -0.2908 -0.5632  0.8144
   9223SM   H6F12423   5.518   0.344  13.666  0.8615 -1.4408 -0.8180
   9223SM   H6G12424   5.457   0.496  13.611  0.8449  0.4448 -1.6687
   9223SM   C7F12425   5.621   0.510  13.764  0.2710 -0.3414  0.2220
   9223SM   H7F12426   5.666   0.607  13.731 -0.3444  0.4354  1.5618
   9223SM   H7G12427   5.707   0.448  13.797 -0.5669 -0.5165  2.1958
   9223SM   C8F12428   5.536   0.527  13.886 -0.2191 -0.3710  0.3888
   9223SM   H8F12429   5.591   0.573  13.971 -2.2647  0.0768  1.5356
   9223SM   H8G12430   5.497   0.433  13.931 -0.8816  0.0474  0.7042
   9223SM   C9F12431   5.408   0.606  13.857 -0.1946 -0.2122  0.0522
   9223SM   H9F12432   5.340   0.552  13.788 -0.8892  1.2447 -0.4264
   9223SM   H9G12433   5.433   0.699  13.801 -1.0839  0.4732  0.7565
   9223SM  C10F12434   5.325   0.636  13.978  0.0600 -0.6974 -0.3126
   9223SM  H10F12435   5.375   0.719  14.033  0.1024 -1.4975  0.9027
   9223SM  H10G12436   5.325   0.547  14.045 -1.9079  1.2559  2.5214
   9223SM  C11F12437   5.178   0.681  13.959  0.1853  1.1994 -0.2765
   9223SM  H11F12438   5.122   0.603  13.904 -1.1246  0.5663  1.8197
   9223SM  H11G12439   5.172   0.781  13.911 -1.1591  1.4104  0.2907
   9223SM  C12F12440   5.103   0.700  14.099 -0.5844  0.6703 -0.0593
   9223SM  H12F12441   5.092   0.618  14.172  1.0929  0.3266 -0.1409
   9223SM  H12G12442   4.998   0.712  14.066 -0.8207 -3.4728 -1.2882
   9223SM  C13F12443   5.157   0.817  14.174 -0.4331 -0.1063 -0.3068
   9223SM  H13F12444   5.137   0.901  14.104  2.1137 -0.4551 -1.5659
   9223SM  H13G12445   5.267   0.806  14.187 -0.3958  0.8029  0.2439
   9223SM  C14F12446   5.096   0.838  14.304 -0.1158 -0.4219 -0.3457
   9223SM  H14F12447   5.132   0.770  14.383  0.1243 -1.6203 -1.4603
   9223SM  H14G12448   4.987   0.818  14.302 -0.4135  0.8444  1.0064
   9223SM  C15F12449   5.128   0.982  14.361  0.4035  0.1831 -0.1882
   9223SM  H15F12450   5.115   1.059  14.283 -1.2369  2.1872  1.9087
   9223SM  H15G12451   5.236   0.980  14.386  0.3268 -1.8591  0.1263
   9223SM  C16F12452   5.047   1.033  14.489  0.4496 -0.2310 -0.5361
   9223SM  H16F12453   5.061   0.966  14.577  1.2817 -1.0887 -1.2950
   9223SM  H16G12454   4.942   1.024  14.456  0.6872  2.7648 -2.4417
   9223SM  C17F12455   5.065   1.178  14.529 -0.0416  0.0775 -0.0219
   9223SM  H17F12456   4.977   1.222  14.580 -0.1956 -1.7098  1.3789
   9223SM  H17G12457   5.082   1.236  14.436 -0.6768  0.7503  0.2786
   9223SM  C18F12458   5.189   1.196  14.620  0.5725  0.2805 -0.0908
   9223SM  H18F12459   5.278   1.169  14.559 -0.1846 -1.1605 -0.6070
   9223SM  H18G12460   5.188   1.127  14.707 -0.5524  0.4304  0.0376
   9223SM  C19F12461   5.195   1.340  14.669  0.0241  0.0818 -0.8469
   9223SM  H19F12462   5.103   1.350  14.732  1.0451 -3.3942  1.5147
   9223SM  H19G12463   5.181   1.416  14.590 -0.6295  2.3238  1.2767
   9223SM  C20F12464   5.316   1.382  14.752 -0.2278 -0.1347  0.4053
   9223SM  H20F12465   5.410   1.360  14.697 -0.0647  0.6595  0.3517
   9223SM  H20G12466   5.318   1.327  14.849  0.4917 -1.2690 -0.2422
   9223SM  C21F12467   5.310   1.533  14.785 -0.7450 -0.1579 -0.5214
   9223SM  H21F12468   5.209   1.540  14.831 -2.3194 -1.5648 -3.5029
   9223SM  H21G12469   5.323   1.601  14.698  1.7544 -2.2449 -1.9373
   9223SM  C22F12470   5.431   1.566  14.871 -0.9290 -0.5164  0.0630
   9223SM  H22F12471   5.525   1.546  14.815 -0.3526 -0.9008  1.1377
   9223SM  H22G12472   5.442   1.493  14.954 -0.0754  0.2042  0.6106
   9223SM  C23F12473   5.436   1.714  14.931 -0.3088  0.0507 -0.5697
   9223SM  H23F12474   5.514   1.717  15.010  0.4610  0.3316 -1.3206
   9223SM  H23G12475   5.337   1.726  14.979  0.2396 -1.4971  1.0761
   9223SM  H23H12476   5.433   1.797  14.857 -3.6959  1.6493  1.1657
   9323SM     N12477   6.944   3.865  12.621  0.1742 -0.0049 -0.3942
   9323SM   C1512478   7.015   3.989  12.659 -0.2643 -0.1894 -0.0964
   9323SM  H15A12479   7.098   3.973  12.725 -1.2083 -1.3905  0.8498
   9323SM  H15B12480   6.946   4.063  12.700  0.7589  0.3215  0.7650
   9323SM  H15C12481   7.041   4.045  12.571 -0.5087 -1.4703 -1.0065
   9323SM   C1412482   6.895   3.795  12.748 -0.2433 -0.7619  0.4197
   9323SM  H14A12483   6.838   3.705  12.731  1.0046 -1.1033 -2.7702
   9323SM  H14B12484   6.835   3.866  12.802  1.9505  1.1938  0.4436
   9323SM  H14C12485   6.970   3.768  12.820  0.4772 -1.2130 -0.4761
   9323SM   C1312486   6.832   3.897  12.527  0.2917 -0.7046 -0.7919
   9323SM  H13A12487   6.771   3.810  12.511  0.8550 -1.5327  1.2614
   9323SM  H13B12488   6.872   3.935  12.434  1.3692 -2.2885 -0.9995
   9323SM  H13C12489   6.777   3.983  12.564 -0.8119 -0.6857 -2.3906
   9323SM   C1212490   7.041   3.767  12.549 -0.3273  0.7150 -0.3034
   9323SM  H12A12491   7.066   3.808  12.452  1.4562 -0.8616 -0.5800
   9323SM  H12B12492   6.989   3.676  12.524  3.3740 -2.0533  1.1077
   9323SM   C1112493   7.164   3.717  12.629  0.2125  0.0079 -0.0326
   9323SM  H11A12494   7.228   3.662  12.556 -0.2966 -0.0322 -0.4541
   9323SM  H11B12495   7.125   3.640  12.700 -1.4550 -0.2192 -1.1296
   9323SM     P12496   7.377   3.859  12.670  0.1100  0.1035  0.2201
   9323SM   O1312497   7.392   3.886  12.527 -0.2240 -0.3265 -0.4176
   9323SM   O1412498   7.425   3.971  12.763  0.1475  0.5464 -0.6339
   9323SM   O1112499   7.460   3.730  12.710  0.4941 -0.4748 -0.0679
   9323SM   O1212500   7.230   3.822  12.706  0.3884 -0.0677 -0.3012
   9323SM   C1S12501   7.467   3.706  12.856 -0.2308 -0.3260  0.4090
   9323SM   H1S12502   7.380   3.742  12.915  0.9376  1.2266  1.2630
   9323SM   H1T12503   7.554   3.768  12.886 -0.3573  0.2577 -0.3813
   9323SM    NF12504   7.471   3.525  13.019  0.2353  0.2616  0.0998
   9323SM   HNF12505   7.554   3.489  13.061  1.2859  0.9798 -1.2591
   9323SM   C2S12506   7.480   3.549  12.877  0.2396 -0.4128  0.4608
   9323SM   H2S12507   7.392   3.505  12.824 -0.1785  0.8198  0.0963
   9323SM   C3S12508   7.609   3.495  12.809 -0.4103 -0.6470 -0.0496
   9323SM   H3S12509   7.689   3.554  12.860 -1.1288  1.4771 -1.2860
   9323SM    O312510   7.618   3.519  12.665 -0.2166 -0.1445 -0.7286
   9323SM   HO312511   7.552   3.587  12.646  0.5417  0.0494 -2.9326
   9323SM   C4S12512   7.633   3.350  12.841  0.0641 -0.3406 -0.3793
   9323SM   H4S12513   7.554   3.283  12.803 -0.3548  0.3488 -0.7732
   9323SM   C5S12514   7.743   3.300  12.899 -1.0740  0.7244 -0.0534
   9323SM   H5S12515   7.827   3.362  12.933  0.6982 -0.8253 -1.3820
   9323SM   C6S12516   7.762   3.151  12.915 -0.1369  0.4007 -0.1063
   9323SM   H6S12517   7.850   3.122  12.853  0.7591 -0.6482  1.5637
   9323SM   H6T12518   7.681   3.097  12.862 -1.1110 -0.6056  2.2916
   9323SM   C7S12519   7.779   3.104  13.066 -0.0222  0.9157  0.3582
   9323SM   H7S12520   7.858   3.170  13.107  1.1165  0.8785 -1.6733
   9323SM   H7T12521   7.826   3.004  13.053  0.9492  1.6160 -1.9965
   9323SM   C8S12522   7.654   3.092  13.153  0.6619  0.6280  0.0393
   9323SM   H8S12523   7.595   3.004  13.120  1.8680 -1.6354  3.3753
   9323SM   H8T12524   7.589   3.179  13.130 -0.7977 -0.5945 -0.6225
   9323SM   C9S12525   7.666   3.074  13.306  0.1042  1.0010  0.0303
   9323SM   H9S12526   7.578   3.095  13.370 -0.3920  1.2993 -0.7309
   9323SM   H9T12527   7.747   3.136  13.350 -0.4593  0.7554  1.4527
   9323SM  C10S12528   7.698   2.924  13.339  0.1478 -0.5934  0.4805
   9323SM  H10S12529   7.789   2.897  13.281 -0.3074  0.0526 -0.5660
   9323SM  H10T12530   7.624   2.866  13.280  1.3036 -0.0650 -1.5912
   9323SM  C11S12531   7.700   2.882  13.490  0.0765  0.1437  0.4171
   9323SM  H11S12532   7.777   2.950  13.533 -0.3905 -0.7556  2.7860
   9323SM  H11T12533   7.742   2.779  13.492 -0.0029  0.0738 -0.7198
   9323SM  C12S12534   7.562   2.896  13.562  0.2805 -0.8507  0.6397
   9323SM  H12S12535   7.490   2.836  13.502  1.7354  0.3937 -2.5851
   9323SM  H12T12536   7.529   3.002  13.568 -1.2289 -1.3222  1.0189
   9323SM  C13S12537   7.555   2.844  13.706  0.2864 -0.2561  0.8206
   9323SM  H13S12538   7.631   2.897  13.767  1.4506 -1.7990  0.7585
   9323SM  H13T12539   7.585   2.738  13.721 -0.9665 -0.9369 -1.1649
   9323SM  C14S12540   7.421   2.870  13.781  0.0910  0.6867 -0.2792
   9323SM  H14S12541   7.346   2.803  13.734  0.6656  0.1886 -0.5023
   9323SM  H14T12542   7.376   2.968  13.757 -1.1412  0.3066  0.4258
   9323SM  C15S12543   7.438   2.861  13.934  0.1470  0.0279  0.3455
   9323SM  H15S12544   7.516   2.933  13.968  0.7302 -0.0843 -0.6991
   9323SM  H15T12545   7.341   2.897  13.973 -0.4078  0.1466 -1.0892
   9323SM  C16S12546   7.473   2.720  13.982  0.7238 -0.1687 -0.1035
   9323SM  H16S12547   7.578   2.703  13.948  1.1933 -0.4924  1.4453
   9323SM  H16T12548   7.402   2.656  13.924  0.6883  1.6918 -2.2678
   9323SM  C17S12549   7.461   2.687  14.137 -0.2513 -0.4298  0.6430
   9323SM  H17S12550   7.501   2.584  14.150  0.1887 -0.1412  1.7346
   9323SM  H17T12551   7.364   2.698  14.189  0.5675  2.1436  1.8111
   9323SM  C18S12552   7.571   2.772  14.203 -0.0772  0.6455 -0.4577
   9323SM  H18S12553   7.527   2.871  14.227 -1.8667 -0.0745 -0.5846
   9323SM  H18T12554   7.660   2.790  14.139 -0.7919  0.5397 -1.5055
   9323SM  H18U12555   7.608   2.713  14.290  0.7731  0.9318 -0.6105
   9323SM   C1F12556   7.359   3.535  13.085  0.6678 -0.4936 -0.6126
   9323SM    OF12557   7.256   3.567  13.026  0.0209  0.0553  0.7611
   9323SM   C2F12558   7.354   3.490  13.223 -0.2661 -0.0931  1.0759
   9323SM   H2F12559   7.456   3.496  13.267  0.1859 -0.0051  0.0639
   9323SM   H2G12560   7.315   3.386  13.218  0.2790 -0.2949  0.9243
   9323SM   C3F12561   7.256   3.565  13.305  0.2758  0.2601 -0.5789
   9323SM   H3F12562   7.156   3.553  13.259 -0.4189  0.0707  0.9089
   9323SM   H3G12563   7.276   3.674  13.308 -0.0356  0.3076 -0.0113
   9323SM   C4F12564   7.271   3.519  13.449  0.5148 -0.6691  0.1911
   9323SM   H4F12565   7.373   3.527  13.490  0.4343  0.4173  0.2207
   9323SM   H4G12566   7.237   3.413  13.447 -0.6631 -0.3020 -0.8966
   9323SM   C5F12567   7.181   3.600  13.541  1.0921  0.2655  0.5118
   9323SM   H5F12568   7.073   3.604  13.513  1.4887 -0.8765 -1.3390
   9323SM   H5G12569   7.221   3.703  13.533  0.4119  0.5525  0.7463
   9323SM   C6F12570   7.196   3.546  13.681 -0.3701  0.7307 -0.2995
   9323SM   H6F12571   7.303   3.527  13.704 -0.2067  1.7820 -0.1115
   9323SM   H6G12572   7.137   3.453  13.695 -0.6294  0.5093 -2.4927
   9323SM   C7F12573   7.139   3.643  13.781  0.6476  0.2115  0.0981
   9323SM   H7F12574   7.044   3.688  13.745  0.6259  2.3140  2.5081
   9323SM   H7G12575   7.211   3.724  13.806  1.1879 -0.0499 -0.5898
   9323SM   C8F12576   7.084   3.582  13.916 -0.8285  0.8007  0.6035
   9323SM   H8F12577   7.170   3.548  13.978 -0.2221 -1.0754 -1.1660
   9323SM   H8G12578   7.027   3.490  13.890  0.4187 -0.2396  1.4486
   9323SM   C9F12579   6.998   3.690  13.990 -0.5643 -0.2808  0.5120
   9323SM   H9F12580   6.888   3.675  13.979 -0.4136 -1.3424  0.3009
   9323SM   H9G12581   7.021   3.787  13.941 -1.1330  1.4048  3.3571
   9323SM  C10F12582   7.040   3.705  14.135 -0.6425 -0.2548  0.5232
   9323SM  H10F12583   7.151   3.705  14.128 -0.6350  1.0790  0.5194
   9323SM  H10G12584   7.001   3.626  14.202  1.3903 -2.9930 -1.2563
   9323SM  C11F12585   6.988   3.835  14.198  0.3839  0.3192  0.8550
   9323SM  H11F12586   6.879   3.846  14.184  0.7878  2.1611 -1.4404
   9323SM  H11G12587   7.040   3.912  14.136  1.5775 -1.5736 -0.6168
   9323SM  C12F12588   7.042   3.855  14.345  0.9609  0.6355  0.4701
   9323SM  H12F12589   7.153   3.851  14.344  0.9510  0.2712  0.6839
   9323SM  H12G12590   7.008   3.769  14.407  2.4520  0.8643  1.6878
   9323SM  C13F12591   7.001   3.986  14.402  0.4816  0.3020  0.2811
   9323SM  H13F12592   6.890   3.987  14.405  0.4245  1.2765 -1.1307
   9323SM  H13G12593   7.040   4.071  14.343 -1.4913  2.5546  2.0133
   9323SM  C14F12594   7.068   4.007  14.541  0.0934  0.6473 -0.1504
   9323SM  H14F12595   7.177   4.015  14.524  0.4806 -0.5930  1.4983
   9323SM  H14G12596   7.046   3.922  14.610 -1.6309  0.4028 -0.9341
   9323SM  C15F12597   7.020   4.137  14.602  0.7826 -0.4316 -0.1971
   9323SM  H15F12598   6.911   4.158  14.594  0.6321 -0.2062  1.7460
   9323SM  H15G12599   7.067   4.224  14.552 -0.2315  0.1872 -0.1009
   9323SM  C16F12600   7.048   4.134  14.751  0.1992  0.0365 -0.3711
   9323SM  H16F12601   7.149   4.089  14.764 -0.1240 -0.2112  1.5000
   9323SM  H16G12602   6.971   4.066  14.794 -0.3076  1.6656  1.4522
   9323SM  C17F12603   7.007   4.254  14.831 -0.3089  0.0099 -0.6068
   9323SM  H17F12604   6.899   4.282  14.825 -0.5451 -0.3350  1.5077
   9323SM  H17G12605   7.069   4.339  14.793  1.9916 -0.4612  1.7964
   9323SM  C18F12606   7.052   4.231  14.980  1.1529 -0.1860  0.3704
   9323SM  H18F12607   7.000   4.309  15.040 -1.7052 -1.0165 -0.8475
   9323SM  H18G12608   7.160   4.255  14.990  0.4861  2.1670  3.8934
   9323SM  C19F12609   7.024   4.088  15.034  0.6910 -0.5101 -0.0396
   9323SM  H19F12610   7.080   4.012  14.976 -3.3241 -2.1501 -2.1240
   9323SM  H19G12611   6.918   4.059  15.022  0.3198  0.5590  0.4768
   9323SM  C20F12612   7.066   4.072  15.181 -0.4405 -0.5889  0.3197
   9323SM  H20F12613   7.047   3.965  15.206  1.9752 -1.6539 -1.9614
   9323SM  H20G12614   6.999   4.132  15.247 -0.7788  1.0294 -1.4231
   9323SM  C21F12615   7.214   4.091  15.214 -0.3838 -0.1702  0.1794
   9323SM  H21F12616   7.226   4.090  15.324  0.6341  2.8713  0.1970
   9323SM  H21G12617   7.258   4.190  15.187  2.1621 -0.9526  1.1838
   9323SM  C22F12618   7.304   3.986  15.146 -0.3517  0.7026  0.0507
   9323SM  H22F12619   7.296   3.996  15.036  1.9815 -1.5406 -0.4148
   9323SM  H22G12620   7.247   3.891  15.153  1.2756 -0.4926 -1.8179
   9323SM  C23F12621   7.444   3.964  15.196 -0.7364  0.1645 -0.1657
   9323SM  H23F12622   7.475   3.871  15.143  1.8174 -0.8366  2.7496
   9323SM  H23G12623   7.452   3.947  15.306 -1.3278  0.1405 -0.1223
   9323SM  H23H12624   7.495   4.056  15.161 -0.1212  0.1289  0.6110
   9423SM     N12625   6.339   5.961  12.466 -0.7059  0.2763 -0.3269
   9423SM   C1512626   6.206   5.910  12.422  0.1794  0.0463 -0.7599
   9423SM  H15A12627   6.199   5.805  12.400 -0.6714  0.0595 -0.5713
   9423SM  H15B12628   6.179   5.947  12.325  1.3986  1.7576 -0.4987
   9423SM  H15C12629   6.134   5.939  12.497  0.4287 -3.6455  1.1119
   9423SM   C1412630   6.433   5.933  12.353  0.3193  0.1342 -0.2958
   9423SM  H14A12631   6.443   5.828  12.330  0.9869 -0.3881  2.0681
   9423SM  H14B12632   6.530   5.971  12.380  0.3289  0.8481 -1.2469
   9423SM  H14C12633   6.395   5.985  12.266 -2.1804 -0.1982  0.5168
   9423SM   C1312634   6.322   6.114  12.499  0.2113 -0.4283  0.5891
   9423SM  H13A12635   6.292   6.166  12.410  4.2547  0.0932 -0.6689
   9423SM  H13B12636   6.416   6.162  12.522 -0.5498  1.2421  0.3149
   9423SM  H13C12637   6.257   6.139  12.582  0.2998 -0.4057  0.6520
   9423SM   C1212638   6.380   5.884  12.586  0.4661  0.3732 -0.0971
   9423SM  H12A12639   6.484   5.909  12.604  0.7888  0.0302 -1.3743
   9423SM  H12B12640   6.380   5.779  12.564  1.1833  0.3150  0.1518
   9423SM   C1112641   6.299   5.901  12.719  0.2473 -0.3096  0.0724
   9423SM  H11A12642   6.291   6.009  12.745 -0.1955 -0.4750  0.6538
   9423SM  H11B12643   6.362   5.848  12.793 -1.9488  0.5149  2.7145
   9423SM     P12644   6.165   5.680  12.749 -0.6737  0.4089 -0.2129
   9423SM   O1312645   6.025   5.642  12.751  0.1078  0.4080 -0.4637
   9423SM   O1412646   6.257   5.612  12.656  0.4982 -0.2316 -0.3883
   9423SM   O1112647   6.225   5.655  12.893  0.8810 -0.0428  0.3682
   9423SM   O1212648   6.174   5.836  12.719 -0.0150  0.0057 -0.0445
   9423SM   C1S12649   6.209   5.738  13.011 -0.2090 -0.2610 -0.2722
   9423SM   H1S12650   6.107   5.782  13.015 -0.7516 -1.5814  1.1965
   9423SM   H1T12651   6.279   5.824  12.998  1.6317 -1.6071  0.3463
   9423SM    NF12652   6.249   5.772  13.252  0.0106  0.5078 -0.0323
   9423SM   HNF12653   6.339   5.792  13.290  1.7538 -0.5365 -3.2063
   9423SM   C2S12654   6.251   5.672  13.145  0.4986  0.1399 -0.2560
   9423SM   H2S12655   6.167   5.604  13.171  3.3701 -2.9880  1.6735
   9423SM   C3S12656   6.383   5.591  13.132 -0.0492 -0.3171 -0.3257
   9423SM   H3S12657   6.461   5.656  13.086 -1.7185  1.6647 -0.5191
   9423SM    O312658   6.378   5.495  13.027  0.3530  0.5818 -0.1691
   9423SM   HO312659   6.315   5.537  12.968 -0.3783  0.6736  0.6604
   9423SM   C4S12660   6.446   5.536  13.252 -0.4095  0.9546 -0.7173
   9423SM   H4S12661   6.531   5.595  13.288  2.0607 -2.4869 -0.3606
   9423SM   C5S12662   6.415   5.427  13.331 -0.7983  0.1966 -0.0646
   9423SM   H5S12663   6.337   5.358  13.296  1.0464 -2.3333  0.5210
   9423SM   C6S12664   6.494   5.374  13.448 -0.2781 -0.4962  0.3465
   9423SM   H6S12665   6.593   5.425  13.456 -0.2736 -0.7440  2.6140
   9423SM   H6T12666   6.515   5.266  13.432 -0.0932 -0.2408 -1.2829
   9423SM   C7S12667   6.423   5.399  13.576 -0.1134  0.0498  0.9715
   9423SM   H7S12668   6.412   5.507  13.600  0.1111  0.4958 -0.7995
   9423SM   H7T12669   6.496   5.355  13.646  0.1407 -1.9888 -0.4847
   9423SM   C8S12670   6.293   5.332  13.591  0.2523 -1.0103 -0.2673
   9423SM   H8S12671   6.297   5.230  13.547 -2.2744 -0.8440 -1.0558
   9423SM   H8T12672   6.209   5.379  13.536  0.4359 -1.1778 -0.6939
   9423SM   C9S12673   6.243   5.316  13.734  0.3086 -0.3643 -0.0512
   9423SM   H9S12674   6.194   5.409  13.770  2.4114  1.3299 -1.2907
   9423SM   H9T12675   6.334   5.303  13.797  1.4673  3.2445 -0.7158
   9423SM  C10S12676   6.145   5.200  13.746  0.7273  0.4181  0.4414
   9423SM  H10S12677   6.211   5.111  13.742  0.7989  0.4568  0.7435
   9423SM  H10T12678   6.085   5.183  13.654  0.2868  0.0019  0.7984
   9423SM  C11S12679   6.058   5.200  13.868  0.0889  0.0679  0.6972
   9423SM  H11S12680   6.044   5.307  13.892  1.3105  0.4495 -0.1649
   9423SM  H11T12681   6.121   5.161  13.951 -1.5426 -1.5834  1.2316
   9423SM  C12S12682   5.931   5.110  13.848  0.4594 -0.4974 -0.2112
   9423SM  H12S12683   5.965   5.008  13.820  3.3536 -0.1198  1.6278
   9423SM  H12T12684   5.873   5.157  13.765  0.5282  3.1818  1.6187
   9423SM  C13S12685   5.831   5.102  13.970  0.0807  0.5794 -0.6536
   9423SM  H13S12686   5.890   5.050  14.048 -1.6375 -1.7152 -0.7887
   9423SM  H13T12687   5.740   5.045  13.943  0.1287  1.1476 -2.1326
   9423SM  C14S12688   5.783   5.235  14.028 -0.2706  0.3002 -0.2897
   9423SM  H14S12689   5.736   5.294  13.947 -0.5087  0.5327  0.0165
   9423SM  H14T12690   5.866   5.300  14.064  1.7754 -0.5537 -3.1094
   9423SM  C15S12691   5.672   5.212  14.138  0.2904  0.1316  0.6488
   9423SM  H15S12692   5.643   5.309  14.185 -1.3077  0.2399 -0.4969
   9423SM  H15T12693   5.703   5.136  14.213  1.3887  0.6581  0.7518
   9423SM  C16S12694   5.540   5.161  14.066 -0.1269  0.4311 -0.0105
   9423SM  H16S12695   5.513   5.061  14.106  1.6956  1.2960  3.9456
   9423SM  H16T12696   5.561   5.153  13.958 -0.7269 -2.3540  0.0060
   9423SM  C17S12697   5.423   5.262  14.073 -0.0542  0.0625  0.3553
   9423SM  H17S12698   5.350   5.227  13.997  0.2350  1.5497 -0.6543
   9423SM  H17T12699   5.464   5.358  14.035  0.9564 -0.2477  0.6275
   9423SM  C18S12700   5.357   5.281  14.210  0.1439 -0.2007 -0.2665
   9423SM  H18S12701   5.313   5.186  14.246  2.0071 -0.5216  1.3109
   9423SM  H18T12702   5.285   5.366  14.211 -1.1493 -1.2567  0.1975
   9423SM  H18U12703   5.422   5.313  14.295 -0.2342 -0.7179  0.2260
   9423SM   C1F12704   6.146   5.839  13.291 -0.3123 -0.0374  0.1753
   9423SM    OF12705   6.031   5.807  13.259 -0.7661  0.0060  0.2708
   9423SM   C2F12706   6.175   5.963  13.373  0.9201  0.0159  0.2717
   9423SM   H2F12707   6.248   6.028  13.319  1.5643 -0.1986  0.8780
   9423SM   H2G12708   6.226   5.925  13.464 -0.4871 -1.5277  0.4593
   9423SM   C3F12709   6.042   6.038  13.412 -0.0483 -0.0157  0.2963
   9423SM   H3F12710   5.955   5.970  13.422 -1.2361  1.6323  1.8722
   9423SM   H3G12711   6.015   6.101  13.325  0.4774 -0.3930 -0.1467
   9423SM   C4F12712   6.055   6.118  13.532  0.4959 -0.9773  0.2326
   9423SM   H4F12713   6.145   6.183  13.522 -0.6983  0.5607 -0.9678
   9423SM   H4G12714   6.061   6.041  13.611 -0.7346  0.0036  1.3361
   9423SM   C5F12715   5.939   6.215  13.559  0.3070 -0.2607  0.5707
   9423SM   H5F12716   5.844   6.157  13.563 -0.4591  0.9726  1.0369
   9423SM   H5G12717   5.926   6.287  13.476 -1.2988  1.7128  2.4019
   9423SM   C6F12718   5.971   6.290  13.691 -0.2927 -1.1149  0.8749
   9423SM   H6F12719   5.898   6.373  13.705 -0.2747 -0.7016 -1.2060
   9423SM   H6G12720   6.068   6.342  13.681 -0.6982 -0.7267 -1.6105
   9423SM   C7F12721   5.967   6.195  13.808  0.3034 -0.7152 -0.4268
   9423SM   H7F12722   6.040   6.112  13.799 -1.3651 -2.2936 -0.1761
   9423SM   H7G12723   5.863   6.158  13.824 -0.0528  0.8873  1.3306
   9423SM   C8F12724   5.985   6.262  13.945  0.2508 -0.3278 -0.4939
   9423SM   H8F12725   5.901   6.333  13.960  1.3994  0.7036  1.6135
   9423SM   H8G12726   6.078   6.321  13.937 -0.1299  0.1428 -1.6092
   9423SM   C9F12727   5.990   6.157  14.063  0.3804  0.1384  0.2305
   9423SM   H9F12728   6.079   6.091  14.056  0.8849  0.7240  0.9590
   9423SM   H9G12729   5.904   6.089  14.047  1.7085 -1.6614  0.4294
   9423SM  C10F12730   5.986   6.219  14.204  0.3805 -0.9287  0.7194
   9423SM  H10F12731   5.975   6.135  14.276  1.6729 -1.3422  0.4515
   9423SM  H10G12732   5.895   6.282  14.215  0.9667 -0.0862  0.8243
   9423SM  C11F12733   6.109   6.292  14.242  0.2627  0.3647 -0.2479
   9423SM  H11F12734   6.115   6.374  14.167 -0.6783 -0.6735 -1.5000
   9423SM  H11G12735   6.197   6.225  14.230  0.3375  0.2921  0.6929
   9423SM  C12F12736   6.098   6.339  14.387  0.2646  0.2520  0.2499
   9423SM  H12F12737   6.080   6.252  14.455  0.2611  0.2505  0.2473
   9423SM  H12G12738   6.009   6.406  14.391 -1.3831 -1.8662  1.6337
   9423SM  C13F12739   6.227   6.411  14.443  0.0364 -0.3052  0.4299
   9423SM  H13F12740   6.249   6.502  14.383 -0.6724  0.3901  1.1887
   9423SM  H13G12741   6.316   6.346  14.438  0.6400  0.5309  0.0589
   9423SM  C14F12742   6.219   6.474  14.581 -0.2787  0.2112 -0.0385
   9423SM  H14F12743   6.131   6.537  14.605  0.7283  1.9599 -0.7411
   9423SM  H14G12744   6.311   6.537  14.585 -0.3487  0.3865 -0.9574
   9423SM  C15F12745   6.234   6.375  14.692 -0.5455  0.0145 -0.1102
   9423SM  H15F12746   6.141   6.321  14.719  0.1849 -0.1143  2.4423
   9423SM  H15G12747   6.260   6.431  14.785 -3.2637 -2.0062  2.0567
   9423SM  C16F12748   6.314   6.243  14.671 -0.2512  0.3040 -0.4305
   9423SM  H16F12749   6.412   6.278  14.632 -0.1018 -0.4165 -0.7189
   9423SM  H16G12750   6.268   6.175  14.597 -0.8011 -0.4149  0.5427
   9423SM  C17F12751   6.333   6.169  14.803 -0.9191 -0.0074 -0.2113
   9423SM  H17F12752   6.255   6.091  14.813 -0.1097 -0.7619  0.5100
   9423SM  H17G12753   6.345   6.244  14.884 -0.6058  0.9576 -1.1240
   9423SM  C18F12754   6.474   6.095  14.818  0.0257  0.7736 -0.5944
   9423SM  H18F12755   6.563   6.157  14.796  0.8574 -0.0651  0.3012
   9423SM  H18G12756   6.460   6.016  14.742  0.4007  1.7803 -1.7397
   9423SM  C19F12757   6.502   6.045  14.965 -0.4163  0.3486  0.6132
   9423SM  H19F12758   6.410   5.988  14.988  0.0650  0.3287  2.7639
   9423SM  H19G12759   6.529   6.131  15.031  3.9606 -2.2805  2.7654
   9423SM  C20F12760   6.624   5.954  14.993  1.1447 -0.4400 -0.8518
   9423SM  H20F12761   6.617   5.856  14.939 -0.3074 -1.1659  0.5756
   9423SM  H20G12762   6.627   5.931  15.101 -1.3159  0.5567 -0.4995
   9423SM  C21F12763   6.758   6.003  14.944  0.1106 -0.0440  0.0185
   9423SM  H21F12764   6.764   6.110  14.974  0.0569 -0.3088  1.0159
   9423SM  H21G12765   6.763   6.000  14.833 -0.6710  1.1973 -0.0649
   9423SM  C22F12766   6.878   5.942  15.011 -0.0842  0.1034  0.1678
   9423SM  H22F12767   6.898   5.842  14.968 -1.0007  0.5455 -1.3450
   9423SM  H22G12768   6.866   5.944  15.122 -0.1249 -0.3256  0.1735
   9423SM  C23F12769   7.004   6.032  14.982 -0.1044  0.1869  0.0365
   9423SM  H23F12770   6.977   6.137  15.004 -3.1756  0.0810 -2.3701
   9423SM  H23G12771   7.012   6.052  14.873 -0.6940  1.8486  0.2681
   9423SM  H23H12772   7.092   5.982  15.027 -1.0090 -1.6100 -0.0594
   9523SM     N12773   2.030   1.242  12.816 -0.2484  0.0052  0.0848
   9523SM   C1512774   2.094   1.378  12.808  0.8417  0.5893  0.2278
   9523SM  H15A12775   2.019   1.456  12.817 -0.2625 -0.5663  1.7151
   9523SM  H15B12776   2.151   1.383  12.717 -0.3552 -2.2322 -0.7761
   9523SM  H15C12777   2.162   1.380  12.893 -0.1709  0.0715  1.0788
   9523SM   C1412778   2.146   1.147  12.823  0.4729  0.4725  0.0552
   9523SM  H14A12779   2.215   1.147  12.741  1.1053  1.4487  0.5685
   9523SM  H14B12780   2.106   1.048  12.843 -0.1416  0.8066  0.5198
   9523SM  H14C12781   2.203   1.159  12.914  0.5549  0.5910 -0.0129
   9523SM   C1312782   1.954   1.231  12.942  0.7820  0.7536 -0.5386
   9523SM  H13A12783   2.008   1.264  13.029  1.8524  2.1513 -1.6979
   9523SM  H13B12784   1.910   1.132  12.949 -1.8159  1.8975  0.3780
   9523SM  H13C12785   1.863   1.287  12.928 -1.2175 -2.2570 -0.7206
   9523SM   C1212786   1.939   1.219  12.699 -0.0102 -0.0159 -0.3605
   9523SM  H12A12787   1.903   1.117  12.702 -0.1308  0.0528  1.9572
   9523SM  H12B12788   1.997   1.236  12.609 -0.8084 -0.1370 -0.9096
   9523SM   C1112789   1.819   1.320  12.687  0.4886  0.3587  0.3997
   9523SM  H11A12790   1.784   1.314  12.582 -1.4771  0.6593  0.9935
   9523SM  H11B12791   1.850   1.427  12.679 -1.1070  0.7107 -2.3574
   9523SM     P12792   1.609   1.193  12.755  0.1628 -0.0456  0.1267
   9523SM   O1312793   1.517   1.226  12.647  0.5200 -0.1205  0.5299
   9523SM   O1412794   1.677   1.059  12.747  0.4300 -0.1199 -0.6469
   9523SM   O1112795   1.531   1.199  12.894  0.1276 -0.1521  0.4376
   9523SM   O1212796   1.716   1.307  12.775 -0.1807 -0.1852  0.2337
   9523SM   C1S12797   1.618   1.187  13.002 -0.1865  0.0674  0.3137
   9523SM   H1S12798   1.661   1.285  13.031 -2.4368  1.2498 -0.1174
   9523SM   H1T12799   1.692   1.104  12.992 -0.1087 -0.0758  1.7770
   9523SM    NF12800   1.658   1.107  13.237  0.1798  0.1435 -0.8127
   9523SM   HNF12801   1.675   1.009  13.240  0.3396  0.1329 -1.7919
   9523SM   C2S12802   1.555   1.141  13.135  0.4030 -0.0117  0.5498
   9523SM   H2S12803   1.494   1.229  13.166  0.4121  0.2737 -0.2292
   9523SM   C3S12804   1.452   1.022  13.109  0.2418  0.3565  0.0792
   9523SM   H3S12805   1.508   0.941  13.058  2.0146  1.2561  0.5209
   9523SM    O312806   1.340   1.055  13.029 -0.6270  0.2228  0.4486
   9523SM   HO312807   1.380   1.122  12.974  0.9871 -0.4676  0.7376
   9523SM   C4S12808   1.393   0.969  13.239 -0.5746  0.0465  0.0943
   9523SM   H4S12809   1.306   1.027  13.273 -0.1085  0.9697 -0.2523
   9523SM   C5S12810   1.439   0.868  13.308 -0.3973 -0.4138 -0.5745
   9523SM   H5S12811   1.526   0.809  13.276 -1.9434 -1.1075 -3.8684
   9523SM   C6S12812   1.391   0.841  13.448 -0.5755 -0.5421  0.9819
   9523SM   H6S12813   1.355   0.737  13.459 -1.6262 -0.5317 -1.5378
   9523SM   H6T12814   1.308   0.907  13.481  0.0650 -0.9696  3.6722
   9523SM   C7S12815   1.510   0.868  13.547  0.1749  0.1995  0.5282
   9523SM   H7S12816   1.578   0.954  13.524 -0.4826  0.4633 -0.4710
   9523SM   H7T12817   1.576   0.778  13.544  0.0053  0.0964 -2.0384
   9523SM   C8S12818   1.471   0.877  13.692  0.0532  0.1902  0.0639
   9523SM   H8S12819   1.392   0.804  13.717 -1.1644  1.9580  1.6920
   9523SM   H8T12820   1.419   0.973  13.715  0.3007 -0.1424  2.2860
   9523SM   C9S12821   1.579   0.867  13.810 -0.0237  0.1141  0.5754
   9523SM   H9S12822   1.653   0.947  13.786 -1.4089  1.9177  2.0255
   9523SM   H9T12823   1.626   0.767  13.801 -2.0061 -1.0394  2.3536
   9523SM  C10S12824   1.521   0.883  13.945 -0.7106  0.5040 -0.1714
   9523SM  H10S12825   1.451   0.797  13.951  0.8988 -0.8264  0.2005
   9523SM  H10T12826   1.466   0.978  13.962  0.2098  0.7253  1.8774
   9523SM  C11S12827   1.634   0.871  14.051  0.3189  0.0818 -0.0828
   9523SM  H11S12828   1.710   0.951  14.042  0.5912 -0.0068  1.2139
   9523SM  H11T12829   1.674   0.772  14.021  0.1517  0.4704 -1.6508
   9523SM  C12S12830   1.594   0.858  14.204 -0.5834 -0.6144 -0.5449
   9523SM  H12S12831   1.545   0.762  14.231 -2.8597  0.3223 -1.0844
   9523SM  H12T12832   1.514   0.932  14.222 -0.1409  0.0978 -1.3955
   9523SM  C13S12833   1.717   0.873  14.299  0.3183 -0.1424  0.1489
   9523SM  H13S12834   1.783   0.956  14.267 -1.0378  0.1716 -2.0327
   9523SM  H13T12835   1.781   0.787  14.270  2.0176  1.3373 -0.6929
   9523SM  C14S12836   1.699   0.860  14.454 -0.0039 -0.0864  0.4668
   9523SM  H14S12837   1.797   0.863  14.507 -0.5951 -0.9825  1.6491
   9523SM  H14T12838   1.663   0.756  14.460 -0.5743  0.1701  2.0636
   9523SM  C15S12839   1.608   0.968  14.517 -0.3138  0.0385 -0.1125
   9523SM  H15S12840   1.511   0.964  14.464 -1.8223  0.3543  2.4498
   9523SM  H15T12841   1.650   1.069  14.495 -0.4026 -0.3465 -2.3056
   9523SM  C16S12842   1.573   0.949  14.661 -0.0635 -0.0090  0.4121
   9523SM  H16S12843   1.656   0.915  14.727  0.9922  0.5085 -0.6176
   9523SM  H16T12844   1.494   0.871  14.663  0.0737 -0.2017 -0.9723
   9523SM  C17S12845   1.504   1.065  14.726 -0.2943 -0.5005  0.2494
   9523SM  H17S12846   1.420   1.106  14.666  0.0471  0.2225  0.2510
   9523SM  H17T12847   1.585   1.140  14.741 -1.1378  0.4598  0.1114
   9523SM  C18S12848   1.460   1.034  14.866 -0.3461 -0.3750  0.1753
   9523SM  H18S12849   1.387   0.951  14.862  0.0257 -0.6610 -2.3082
   9523SM  H18T12850   1.403   1.120  14.909 -0.8673  0.1516 -1.5106
   9523SM  H18U12851   1.552   1.008  14.922  0.4107 -0.1387 -0.9366
   9523SM   C1F12852   1.740   1.205  13.282  0.5055  0.6428 -0.2018
   9523SM    OF12853   1.711   1.321  13.273 -0.9846 -0.5428 -0.2059
   9523SM   C2F12854   1.870   1.153  13.338  0.2441 -0.2210  0.1939
   9523SM   H2F12855   1.957   1.177  13.274  0.6054  1.4488  1.2451
   9523SM   H2G12856   1.864   1.043  13.353  2.6252 -0.3283  0.7351
   9523SM   C3F12857   1.894   1.221  13.479 -0.6431 -0.0171  0.4593
   9523SM   H3F12858   1.804   1.229  13.544 -0.9863  0.3936 -0.0557
   9523SM   H3G12859   1.927   1.327  13.469  0.8814 -0.5853 -1.1469
   9523SM   C4F12860   1.990   1.148  13.569  0.0213 -0.1758 -0.3488
   9523SM   H4F12861   2.087   1.126  13.519  1.0983 -0.6850  1.8526
   9523SM   H4G12862   1.953   1.050  13.605  1.9290 -0.2496  1.6126
   9523SM   C5F12863   2.044   1.223  13.698 -0.2136  0.4255  0.4793
   9523SM   H5F12864   2.106   1.311  13.670  0.7389 -0.2732  0.3264
   9523SM   H5G12865   2.112   1.156  13.755 -1.7646  1.0113  3.2253
   9523SM   C6F12866   1.932   1.265  13.799 -0.2276  0.0715 -0.0267
   9523SM   H6F12867   1.885   1.168  13.824 -2.3428  1.2456  0.8316
   9523SM   H6G12868   1.862   1.331  13.742 -0.9297 -0.7470 -0.1317
   9523SM   C7F12869   1.979   1.344  13.915  0.0780 -0.1083 -0.8749
   9523SM   H7F12870   1.894   1.374  13.980  2.4147  1.9566  1.4906
   9523SM   H7G12871   2.016   1.443  13.880  0.5694 -0.9434 -2.8421
   9523SM   C8F12872   2.080   1.262  14.009 -0.2323 -0.5364  0.4775
   9523SM   H8F12873   2.179   1.250  13.959 -0.2846  0.3259  0.1469
   9523SM   H8G12874   2.043   1.158  14.003  0.1326 -0.7163  1.1760
   9523SM   C9F12875   2.099   1.313  14.155  0.0519  0.6747  0.1891
   9523SM   H9F12876   2.009   1.373  14.177  0.0927  0.7617  0.1180
   9523SM   H9G12877   2.185   1.383  14.163  0.1514  0.8873 -2.1426
   9523SM  C10F12878   2.134   1.205  14.260 -0.0819 -0.2002 -0.1315
   9523SM  H10F12879   2.240   1.176  14.238 -0.3497 -0.2279 -1.4767
   9523SM  H10G12880   2.067   1.120  14.236  0.9722 -1.0452 -0.1757
   9523SM  C11F12881   2.125   1.257  14.405  0.3303  0.3860  0.0295
   9523SM  H11F12882   2.167   1.360  14.398 -0.3780  0.6330 -0.7020
   9523SM  H11G12883   2.186   1.191  14.471 -0.8634 -1.2278 -0.4207
   9523SM  C12F12884   1.974   1.263  14.453 -0.2489  0.0989  0.8735
   9523SM  H12F12885   1.935   1.161  14.476  2.4038 -1.1870  0.1049
   9523SM  H12G12886   1.910   1.308  14.374  2.6417 -1.3800 -2.6339
   9523SM  C13F12887   1.952   1.355  14.567  0.0644  0.7214  0.8663
   9523SM  H13F12888   1.955   1.465  14.551  0.1982  0.5545 -0.3212
   9523SM  H13G12889   2.032   1.334  14.641  1.0597  0.9870 -0.0995
   9523SM  C14F12890   1.823   1.322  14.645  0.3275 -0.2267  0.1934
   9523SM  H14F12891   1.830   1.224  14.697  1.5705  0.4616  1.3602
   9523SM  H14G12892   1.739   1.319  14.572  1.5092 -0.2885 -1.2097
   9523SM  C15F12893   1.787   1.438  14.748 -0.0617  1.1242  0.6334
   9523SM  H15F12894   1.752   1.526  14.691  2.1498  0.7189 -1.5025
   9523SM  H15G12895   1.885   1.459  14.796  0.7341 -1.3679  0.2568
   9523SM  C16F12896   1.670   1.394  14.842 -0.1435 -0.0118 -0.0421
   9523SM  H16F12897   1.691   1.300  14.897 -0.5321 -0.9716 -1.4885
   9523SM  H16G12898   1.589   1.366  14.772  1.4591 -0.1898 -1.9289
   9523SM  C17F12899   1.625   1.492  14.943  0.5007  0.2319 -0.1070
   9523SM  H17F12900   1.595   1.585  14.891 -0.3003 -0.5408 -1.0754
   9523SM  H17G12901   1.717   1.514  15.001 -0.2834 -1.1478  1.8047
   9523SM  C18F12902   1.501   1.437  15.027 -0.5420  0.3612  0.0567
   9523SM  H18F12903   1.528   1.336  15.064 -0.2856  0.7779  1.0361
   9523SM  H18G12904   1.418   1.435  14.953  0.6543 -1.3915 -1.3304
   9523SM  C19F12905   1.455   1.526  15.138  0.1768 -0.1157 -0.6648
   9523SM  H19F12906   1.406   1.613  15.089  0.6222  0.5961  0.1116
   9523SM  H19G12907   1.535   1.552  15.212  0.0066  0.3785 -0.6485
   9523SM  C20F12908   1.345   1.455  15.231  0.2120 -0.6362 -0.1077
   9523SM  H20F12909   1.381   1.396  15.318  0.8499  0.8777  0.6937
   9523SM  H20G12910   1.281   1.388  15.169 -1.8455  0.0607  1.1462
   9523SM  C21F12911   1.244   1.559  15.276 -0.5353  0.2719 -0.2130
   9523SM  H21F12912   1.168   1.496  15.327  0.6215 -1.4535 -0.5290
   9523SM  H21G12913   1.202   1.617  15.191  0.1456  0.4469 -0.4339
   9523SM  C22F12914   1.312   1.665  15.373 -0.1018  0.3485  0.9586
   9523SM  H22F12915   1.363   1.745  15.314 -2.5451  1.6294  0.4798
   9523SM  H22G12916   1.398   1.618  15.425  1.7034  2.4561  0.0707
   9523SM  C23F12917   1.213   1.717  15.477 -0.0177 -0.6293  0.4140
   9523SM  H23F12918   1.265   1.782  15.550  0.7328  0.5105 -1.0761
   9523SM  H23G12919   1.160   1.632  15.524  0.2322 -0.2078  1.4936
   9523SM  H23H12920   1.138   1.782  15.427  0.5572 -1.1334 -1.1857
   9623SM     N12921   2.413   6.612  13.046 -0.2160 -0.5045  0.5136
   9623SM   C1512922   2.300   6.701  13.096 -0.2786  0.3022  1.0917
   9623SM  H15A12923   2.288   6.680  13.201 -3.2226 -0.3178  0.7199
   9623SM  H15B12924   2.209   6.687  13.039  0.7219 -1.0966 -0.2463
   9623SM  H15C12925   2.330   6.804  13.080 -1.7390  0.4170 -1.5345
   9623SM   C1412926   2.535   6.638  13.125 -0.4474  0.5936 -0.3409
   9623SM  H14A12927   2.618   6.569  13.116  0.4726  1.4862  0.8554
   9623SM  H14B12928   2.519   6.628  13.231  1.8048 -1.8522 -0.1369
   9623SM  H14C12929   2.579   6.731  13.091  2.2115 -0.3082  0.4017
   9623SM   C1312930   2.373   6.466  13.058 -1.1177 -0.2465 -0.5646
   9623SM  H13A12931   2.314   6.446  13.147 -2.8316 -2.5230 -2.1095
   9623SM  H13B12932   2.455   6.399  13.078 -0.9570  0.7719  3.0405
   9623SM  H13C12933   2.305   6.435  12.980 -2.5789 -0.5031  0.7532
   9623SM   C1212934   2.434   6.639  12.902 -0.6463 -0.1538  0.0539
   9623SM  H12A12935   2.338   6.630  12.853  0.5647 -2.8584 -2.0607
   9623SM  H12B12936   2.506   6.566  12.869  0.9138  0.7861  1.2355
   9623SM   C1112937   2.498   6.785  12.869  0.0308 -0.3737  0.2337
   9623SM  H11A12938   2.448   6.868  12.922 -2.0047  0.4715 -2.7771
   9623SM  H11B12939   2.483   6.800  12.760 -1.8156  1.3938  0.6834
   9623SM     P12940   2.720   6.920  12.848  0.6321 -0.3298 -0.2857
   9623SM   O1312941   2.789   6.882  12.725 -0.7037  0.3607 -0.0684
   9623SM   O1412942   2.614   7.026  12.830  0.1333  0.1033 -0.0838
   9623SM   O1112943   2.819   6.970  12.962 -0.2613 -0.7377  0.3416
   9623SM   O1212944   2.639   6.798  12.900 -0.3416  0.0271 -0.6064
   9623SM   C1S12945   2.882   6.871  13.040 -0.8069 -0.5433 -0.4495
   9623SM   H1S12946   2.979   6.835  13.000 -1.5660 -2.6036 -0.5205
   9623SM   H1T12947   2.818   6.784  13.064 -0.6015 -1.2226 -2.2768
   9623SM    NF12948   3.016   6.852  13.250 -0.6879 -0.2193 -0.3658
   9623SM   HNF12949   2.984   6.803  13.331 -1.0618 -2.0385 -1.5406
   9623SM   C2S12950   2.918   6.925  13.184  0.1992  0.3313 -0.1452
   9623SM   H2S12951   2.972   7.022  13.178  0.7872  0.1738  1.7358
   9623SM   C3S12952   2.787   6.959  13.265 -0.5096 -0.0713 -0.3809
   9623SM   H3S12953   2.730   6.865  13.284 -2.1141  1.0313  0.4682
   9623SM    O312954   2.701   7.045  13.193  0.9060 -0.0084 -0.2253
   9623SM   HO312955   2.739   7.051  13.105 -0.8960  0.3242 -1.0281
   9623SM   C4S12956   2.820   7.009  13.402  0.1240 -0.1406  0.3647
   9623SM   H4S12957   2.820   6.925  13.474  0.9460 -0.8317 -0.4235
   9623SM   C5S12958   2.836   7.137  13.441  0.9403 -0.0614 -0.6564
   9623SM   H5S12959   2.830   7.219  13.368 -0.2006  0.0750 -0.4292
   9623SM   C6S12960   2.860   7.193  13.575  0.7154  0.2801  0.0164
   9623SM   H6S12961   2.774   7.260  13.597  1.8740  2.2113 -1.0404
   9623SM   H6T12962   2.940   7.270  13.565  0.1544  1.3685  2.9147
   9623SM   C7S12963   2.876   7.091  13.690  0.0275 -0.2357 -0.4263
   9623SM   H7S12964   2.966   7.032  13.663  0.0506  0.6757 -2.5282
   9623SM   H7T12965   2.787   7.024  13.691  0.4644 -0.8557 -1.5663
   9623SM   C8S12966   2.893   7.159  13.826  0.7404  0.2456 -0.0346
   9623SM   H8S12967   2.798   7.215  13.831 -0.2286 -1.2704 -0.5093
   9623SM   H8T12968   2.982   7.225  13.819  2.2010 -1.6697 -0.6149
   9623SM   C9S12969   2.894   7.050  13.941 -0.2078 -0.2521  0.7303
   9623SM   H9S12970   2.971   6.972  13.923  0.1524 -0.4168  2.7466
   9623SM   H9T12971   2.797   6.997  13.951 -1.3130  1.7667  1.3300
   9623SM  C10S12972   2.921   7.111  14.080  0.4245  0.1840 -0.2724
   9623SM  H10S12973   2.826   7.157  14.114 -1.0689  0.0368 -3.7925
   9623SM  H10T12974   3.010   7.179  14.076  0.6191 -0.0717 -0.3362
   9623SM  C11S12975   2.952   7.007  14.187  0.1912 -0.0069 -0.4411
   9623SM  H11S12976   3.032   6.935  14.159  0.1535  0.4732 -1.8790
   9623SM  H11T12977   2.863   6.946  14.212  0.0797 -0.1097 -1.0843
   9623SM  C12S12978   3.008   7.083  14.311 -0.0488  0.6124  0.2257
   9623SM  H12S12979   3.104   7.137  14.298  0.1735 -0.2676 -2.1466
   9623SM  H12T12980   3.027   7.004  14.386 -1.6135 -2.1757 -2.1268
   9623SM  C13S12981   2.926   7.186  14.387  0.1845  0.0955 -0.3466
   9623SM  H13S12982   2.820   7.156  14.392  0.2680 -0.1689 -0.1736
   9623SM  H13T12983   2.924   7.282  14.331 -1.4663  0.5559  0.4541
   9623SM  C14S12984   2.984   7.223  14.523  0.2704 -1.0245  0.2297
   9623SM  H14S12985   3.084   7.268  14.512  0.9863 -2.9111 -1.5695
   9623SM  H14T12986   3.003   7.135  14.588  0.5979 -0.6697  0.6218
   9623SM  C15S12987   2.889   7.320  14.596  0.1127 -0.0144 -0.0147
   9623SM  H15S12988   2.798   7.267  14.630  0.1622  0.9384  1.6964
   9623SM  H15T12989   2.868   7.403  14.525  2.0631  0.4451 -0.1161
   9623SM  C16S12990   2.957   7.369  14.724 -0.0646 -0.6164  0.1716
   9623SM  H16S12991   2.890   7.440  14.777  0.2583  1.1620 -1.6725
   9623SM  H16T12992   3.043   7.431  14.693 -1.5403  2.2460  1.3873
   9623SM  C17S12993   2.976   7.254  14.826  0.2904  0.1090 -0.7108
   9623SM  H17S12994   3.075   7.207  14.805 -0.0211 -2.0058  1.9492
   9623SM  H17T12995   2.897   7.176  14.822 -1.3713  1.7619 -1.0784
   9623SM  C18S12996   2.976   7.301  14.972  0.3972  0.4348 -0.7132
   9623SM  H18S12997   2.876   7.336  15.007  0.5656  0.8035 -0.5940
   9623SM  H18T12998   3.044   7.387  14.989 -0.0978  0.3128  2.8393
   9623SM  H18U12999   3.011   7.240  15.059  0.5547  4.0828  2.0511
   9623SM   C1F13000   3.141   6.829  13.213 -1.0704 -0.2621 -0.1185
   9623SM    OF13001   3.186   6.892  13.117  0.1680 -0.2707  0.2851
   9623SM   C2F13002   3.219   6.732  13.302 -0.5586  0.3230  0.0543
   9623SM   H2F13003   3.201   6.626  13.276  0.8248  0.0869 -0.0413
   9623SM   H2G13004   3.179   6.747  13.405 -2.0245  0.4207 -0.5114
   9623SM   C3F13005   3.374   6.758  13.299  0.4759 -0.1772 -0.4647
   9623SM   H3F13006   3.417   6.858  13.315 -1.2053  0.6729 -1.0161
   9623SM   H3G13007   3.412   6.736  13.197 -0.0980 -2.7704 -0.1930
   9623SM   C4F13008   3.443   6.661  13.399 -0.4096 -0.1865 -0.7004
   9623SM   H4F13009   3.552   6.684  13.391 -0.5480  1.0705  0.6857
   9623SM   H4G13010   3.443   6.552  13.376 -0.9679  0.1353 -2.3394
   9623SM   C5F13011   3.420   6.686  13.548  0.1339  0.1946 -0.3661
   9623SM   H5F13012   3.311   6.695  13.570 -0.2151  2.2031 -2.5096
   9623SM   H5G13013   3.475   6.781  13.559  0.0457  0.2771 -0.6360
   9623SM   C6F13014   3.497   6.587  13.640 -0.9123  0.2819  0.1789
   9623SM   H6F13015   3.600   6.573  13.602 -0.5285 -0.2869  1.4159
   9623SM   H6G13016   3.444   6.494  13.611  1.1302 -0.3521 -1.8065
   9623SM   C7F13017   3.483   6.623  13.791 -0.0872 -0.1098 -0.2160
   9623SM   H7F13018   3.381   6.654  13.822  0.1791  2.3161 -1.5394
   9623SM   H7G13019   3.548   6.712  13.798 -0.2676  0.0804 -0.8743
   9623SM   C8F13020   3.541   6.515  13.889  0.0935 -1.2239 -0.2652
   9623SM   H8F13021   3.543   6.558  13.991 -0.4173  1.2369 -1.2054
   9623SM   H8G13022   3.649   6.494  13.873  0.4023 -0.9845  1.3533
   9623SM   C9F13023   3.469   6.383  13.889  0.7774  0.3111  0.2631
   9623SM   H9F13024   3.501   6.323  13.976 -0.7777 -0.8297  0.1049
   9623SM   H9G13025   3.482   6.340  13.787  0.0354  0.1052  0.2472
   9623SM  C10F13026   3.315   6.403  13.915  0.3779  0.7544  0.1673
   9623SM  H10F13027   3.262   6.452  13.830 -0.9402 -2.6688 -1.1708
   9623SM  H10G13028   3.305   6.463  14.008  0.7250  2.2381 -0.7256
   9623SM  C11F13029   3.246   6.269  13.912 -0.8733  0.7509 -0.3957
   9623SM  H11F13030   3.315   6.196  13.958 -0.8784 -0.3074 -1.9798
   9623SM  H11G13031   3.239   6.240  13.805  0.0754  0.1840 -0.3179
   9623SM  C12F13032   3.101   6.263  13.966  0.2283 -0.3284  0.0836
   9623SM  H12F13033   3.078   6.157  13.988 -0.8757 -0.6489 -2.3191
   9623SM  H12G13034   3.046   6.283  13.871  1.2476 -1.1518 -0.7033
   9623SM  C13F13035   3.063   6.353  14.088 -0.1668 -0.0545  0.0370
   9623SM  H13F13036   3.028   6.451  14.049  1.3571 -0.5755 -2.9679
   9623SM  H13G13037   3.148   6.387  14.150  0.0416  0.3971 -0.4890
   9623SM  C14F13038   2.956   6.298  14.177  0.5610  0.1172 -1.1834
   9623SM  H14F13039   3.004   6.212  14.228  3.2019  1.3262 -1.4473
   9623SM  H14G13040   2.873   6.257  14.116  0.8077  1.0345 -2.1833
   9623SM  C15F13041   2.892   6.394  14.272 -0.3979 -0.1310 -0.0037
   9623SM  H15F13042   2.851   6.483  14.219  1.3140 -0.3588 -1.8021
   9623SM  H15G13043   2.966   6.433  14.344  0.9501 -3.0972  0.3468
   9623SM  C16F13044   2.786   6.331  14.366 -0.3176  0.2339  0.7473
   9623SM  H16F13045   2.822   6.237  14.412  3.4555  1.7819  1.3300
   9623SM  H16G13046   2.707   6.306  14.292 -1.5186  1.3886  1.5893
   9623SM  C17F13047   2.732   6.432  14.465  0.2980  0.6017 -0.6281
   9623SM  H17F13048   2.642   6.394  14.518  1.5929 -2.3407 -0.4007
   9623SM  H17G13049   2.697   6.524  14.413 -1.0553 -0.1837 -1.1593
   9623SM  C18F13050   2.827   6.463  14.587 -0.3504 -0.6027  0.2629
   9623SM  H18F13051   2.787   6.545  14.650 -0.1169  0.3202 -0.7588
   9623SM  H18G13052   2.925   6.502  14.551 -1.3181  0.6211 -1.1267
   9623SM  C19F13053   2.865   6.344  14.677  0.0866 -0.2075 -0.5715
   9623SM  H19F13054   2.955   6.364  14.739 -1.0691 -0.8025  1.3721
   9623SM  H19G13055   2.878   6.252  14.616 -0.0366  0.1824 -1.1966
   9623SM  C20F13056   2.743   6.320  14.771 -0.1415 -0.1470  1.0473
   9623SM  H20F13057   2.649   6.339  14.714 -0.2002 -1.1184  0.8032
   9623SM  H20G13058   2.744   6.395  14.853  1.1739  1.2761 -0.2033
   9623SM  C21F13059   2.748   6.180  14.824  0.4166 -0.3936  0.8745
   9623SM  H21F13060   2.686   6.169  14.915 -1.7729  2.3842 -0.1231
   9623SM  H21G13061   2.854   6.163  14.853  1.9085  1.9974 -2.4231
   9623SM  C22F13062   2.709   6.071  14.727 -0.2393  0.1362 -0.9796
   9623SM  H22F13063   2.770   6.075  14.634  1.1816  0.9278 -0.0432
   9623SM  H22G13064   2.601   6.081  14.702 -0.6554 -4.4611 -1.9182
   9623SM  C23F13065   2.739   5.924  14.781  0.4114  0.0784  0.5748
   9623SM  H23F13066   2.849   5.912  14.797  0.5417 -0.6523 -0.7751
   9623SM  H23G13067   2.694   5.839  14.727 -0.6166  0.5458  0.6832
   9623SM  H23H13068   2.687   5.914  14.879  0.1129  2.1092  0.6531
   9723SM     N13069   4.511   6.619  12.426 -0.0843  0.4240 -0.0689
   9723SM   C1513070   4.394   6.537  12.487  0.0880  0.2551 -0.8200
   9723SM  H15A13071   4.419   6.530  12.591  0.1286 -1.8406 -0.9359
   9723SM  H15B13072   4.392   6.440  12.440  1.0262  0.4655 -1.3147
   9723SM  H15C13073   4.304   6.596  12.475 -0.9667 -0.8803  0.9653
   9723SM   C1413074   4.515   6.604  12.271  0.6159 -0.3541 -0.0472
   9723SM  H14A13075   4.538   6.701  12.229 -0.3029  1.0016  2.3873
   9723SM  H14B13076   4.421   6.563  12.238 -0.6325  0.6697  2.0409
   9723SM  H14C13077   4.588   6.527  12.247  0.4805 -0.4699 -0.0910
   9723SM   C1313078   4.491   6.765  12.457 -0.3038  0.9272  0.0857
   9723SM  H13A13079   4.560   6.823  12.398 -0.3453  2.6522  1.6444
   9723SM  H13B13080   4.510   6.794  12.559 -0.0999 -1.0665  0.6437
   9723SM  H13C13081   4.386   6.784  12.439 -0.0047  1.1963 -1.5367
   9723SM   C1213082   4.642   6.579  12.487 -1.3171  0.2534 -0.0139
   9723SM  H12A13083   4.717   6.652  12.461 -0.0234 -1.1766 -0.4385
   9723SM  H12B13084   4.668   6.492  12.429  1.2403  2.1504 -1.9145
   9723SM   C1113085   4.651   6.537  12.633  0.0453 -0.8635  0.1928
   9723SM  H11A13086   4.625   6.628  12.691  1.3202  0.8729 -1.8475
   9723SM  H11B13087   4.758   6.525  12.659 -0.3510 -0.9902  1.8885
   9723SM     P13088   4.622   6.280  12.633 -0.3203 -0.1713 -0.0678
   9723SM   O1313089   4.541   6.239  12.520  0.1898 -0.1172 -0.3587
   9723SM   O1413090   4.767   6.272  12.619  0.2624  0.2677 -0.5834
   9723SM   O1113091   4.574   6.209  12.767 -0.9404  0.4071  0.2031
   9723SM   O1213092   4.574   6.428  12.681 -0.6039 -0.2343 -0.2495
   9723SM   C1S13093   4.647   6.210  12.886 -0.0518  0.1228 -0.0622
   9723SM   H1S13094   4.688   6.310  12.914  1.1984 -0.0469 -1.1858
   9723SM   H1T13095   4.733   6.143  12.869 -0.8389 -0.7144 -0.7855
   9723SM    NF13096   4.645   6.134  13.125 -0.2177 -0.3485  0.0357
   9723SM   HNF13097   4.679   6.047  13.160  1.2236  0.4533  0.7215
   9723SM   C2S13098   4.563   6.140  13.002 -0.3698  0.7565 -0.4797
   9723SM   H2S13099   4.476   6.206  13.020  0.2663  1.3685  0.4029
   9723SM   C3S13100   4.506   6.000  12.959  0.3768  0.1291  0.4437
   9723SM   H3S13101   4.590   5.939  12.918  1.0525  0.5463  1.1917
   9723SM    O313102   4.409   6.009  12.849  0.3309 -0.3080  0.5098
   9723SM   HO313103   4.403   6.102  12.827 -1.3343 -0.4792  0.1394
   9723SM   C4S13104   4.437   5.919  13.072 -0.0744 -0.3407 -0.2679
   9723SM   H4S13105   4.341   5.967  13.097  0.4977 -0.1460  1.6868
   9723SM   C5S13106   4.477   5.810  13.144 -0.3966 -0.3396  0.0909
   9723SM   H5S13107   4.570   5.763  13.110 -0.5363 -1.0816  0.6860
   9723SM   C6S13108   4.408   5.743  13.260 -0.5585 -0.6264 -0.2807
   9723SM   H6S13109   4.478   5.735  13.345 -0.8584  0.2492  0.0593
   9723SM   H6T13110   4.379   5.638  13.237  0.7953 -1.6219  2.2495
   9723SM   C7S13111   4.275   5.808  13.313 -0.4920 -0.4904 -0.8758
   9723SM   H7S13112   4.200   5.788  13.234 -1.5662  1.9814 -0.5830
   9723SM   H7T13113   4.273   5.920  13.315 -0.0913 -0.4703  1.8194
   9723SM   C8S13114   4.227   5.756  13.443  1.0544  0.4231 -0.3048
   9723SM   H8S13115   4.242   5.647  13.459 -0.8157  0.2984  0.9879
   9723SM   H8T13116   4.116   5.765  13.445  1.0801  0.5867  1.0943
   9723SM   C9S13117   4.284   5.832  13.569  0.5931 -0.4293 -0.7000
   9723SM   H9S13118   4.310   5.934  13.533 -0.9594 -1.0773 -4.0227
   9723SM   H9T13119   4.379   5.785  13.603  0.9375  2.2891  2.6643
   9723SM  C10S13120   4.189   5.850  13.692  0.0071 -0.6287  0.9589
   9723SM  H10S13121   4.176   5.752  13.742  1.5782 -2.1796 -1.4406
   9723SM  H10T13122   4.089   5.887  13.659  1.3445  2.1291 -0.3416
   9723SM  C11S13123   4.242   5.934  13.812  0.4074  0.1976  0.3098
   9723SM  H11S13124   4.237   6.041  13.780  3.9778  0.0929 -1.0779
   9723SM  H11T13125   4.349   5.909  13.830  0.0466 -1.6179  0.1219
   9723SM  C12S13126   4.157   5.914  13.940  0.0611 -0.3906  0.7529
   9723SM  H12S13127   4.153   5.808  13.975  0.2943 -0.3988  0.7552
   9723SM  H12T13128   4.050   5.927  13.910  0.1705 -0.1635  0.4529
   9723SM  C13S13129   4.188   6.006  14.059  0.0016 -0.1515 -0.5873
   9723SM  H13S13130   4.139   6.104  14.041  1.2491  0.3816 -1.1593
   9723SM  H13T13131   4.298   6.024  14.056  0.0560 -0.3973 -0.0266
   9723SM  C14S13132   4.138   5.954  14.189 -0.3893  0.3529 -0.7484
   9723SM  H14S13133   4.192   6.008  14.270 -1.5569  2.4155 -1.2866
   9723SM  H14T13134   4.171   5.848  14.193 -0.0453  0.3938 -2.0080
   9723SM  C15S13135   3.990   5.964  14.227 -0.3255 -0.1698  0.0185
   9723SM  H15S13136   3.932   5.900  14.158  2.7116 -0.7402 -2.2178
   9723SM  H15T13137   3.964   6.071  14.213  1.1012  0.1454 -0.4632
   9723SM  C16S13138   3.961   5.913  14.365  0.6384 -0.1298  0.2994
   9723SM  H16S13139   4.004   5.812  14.383 -1.6874 -1.1437  0.5029
   9723SM  H16T13140   3.851   5.899  14.367  0.7277 -0.8724  1.7781
   9723SM  C17S13141   4.022   6.008  14.469  0.2611  0.3813  0.1833
   9723SM  H17S13142   4.133   6.000  14.473  0.2966  0.7145 -0.0755
   9723SM  H17T13143   3.981   5.968  14.565 -1.8402  0.4595 -0.6205
   9723SM  C18S13144   3.976   6.158  14.459 -0.4721  0.3864  0.0654
   9723SM  H18S13145   3.978   6.203  14.560 -2.0599  0.8290 -0.0811
   9723SM  H18T13146   3.874   6.180  14.420 -1.6669 -3.6720  0.3879
   9723SM  H18U13147   4.049   6.211  14.394 -0.8035 -1.1322 -1.6384
   9723SM   C1F13148   4.687   6.242  13.196  0.4461 -0.7830  0.3516
   9723SM    OF13149   4.639   6.349  13.160  0.4560  0.2000 -0.7008
   9723SM   C2F13150   4.779   6.229  13.316  1.1271  0.0063  0.2739
   9723SM   H2F13151   4.870   6.169  13.293  2.4354  1.9334  0.1850
   9723SM   H2G13152   4.731   6.168  13.396  3.2752 -1.0858  0.8097
   9723SM   C3F13153   4.819   6.365  13.362  0.1233  0.9668  0.0787
   9723SM   H3F13154   4.726   6.416  13.395 -0.7044 -1.4225  1.7205
   9723SM   H3G13155   4.870   6.437  13.295 -0.2539  0.3229 -0.9215
   9723SM   C4F13156   4.930   6.338  13.470 -0.2308  0.1234  0.3432
   9723SM   H4F13157   5.011   6.280  13.423 -0.1989 -0.4709  1.1009
   9723SM   H4G13158   4.879   6.273  13.545  0.7549 -0.1988  0.7510
   9723SM   C5F13159   4.960   6.457  13.557  0.2308 -0.1882 -0.4145
   9723SM   H5F13160   5.003   6.539  13.495  1.3663  0.5754  1.3077
   9723SM   H5G13161   5.041   6.436  13.631 -1.8306  1.1905  2.4145
   9723SM   C6F13162   4.843   6.522  13.627  0.1618  0.3946  0.8235
   9723SM   H6F13163   4.767   6.444  13.646  1.0284  0.1314  3.5846
   9723SM   H6G13164   4.789   6.591  13.558 -0.4788 -0.6633  0.2488
   9723SM   C7F13165   4.889   6.602  13.748 -0.2605  0.3056 -0.6062
   9723SM   H7F13166   4.949   6.685  13.706 -2.9035  2.7228  0.0902
   9723SM   H7G13167   4.953   6.536  13.810 -0.9436 -0.0752 -0.2852
   9723SM   C8F13168   4.777   6.648  13.838  0.0618 -0.6243  0.0091
   9723SM   H8F13169   4.752   6.563  13.905 -0.8341 -0.8191 -0.5575
   9723SM   H8G13170   4.686   6.667  13.777 -0.7082  1.6968  1.7360
   9723SM   C9F13171   4.821   6.767  13.922 -0.3593  0.3879  0.6635
   9723SM   H9F13172   4.840   6.848  13.848  0.6238 -0.4978 -0.0789
   9723SM   H9G13173   4.916   6.749  13.978  1.2146  1.7257 -1.4113
   9723SM  C10F13174   4.719   6.807  14.027  0.8821  0.0748  0.0079
   9723SM  H10F13175   4.721   6.738  14.114  1.6309  1.2111  0.9077
   9723SM  H10G13176   4.624   6.811  13.970  2.1916  1.9161 -2.2378
   9723SM  C11F13177   4.749   6.948  14.074 -0.6409  0.0787  0.2415
   9723SM  H11F13178   4.788   7.011  13.991 -0.8700 -0.3439 -0.1901
   9723SM  H11G13179   4.837   6.938  14.141  1.2130  0.5594 -1.9717
   9723SM  C12F13180   4.632   7.020  14.136  0.0673  0.3131 -0.2067
   9723SM  H12F13181   4.538   7.005  14.079 -0.3151 -2.2292  0.9518
   9723SM  H12G13182   4.651   7.128  14.151  0.1191  0.2632  0.0861
   9723SM  C13F13183   4.577   6.963  14.265 -0.0056  0.2921  0.7007
   9723SM  H13F13184   4.544   6.859  14.244  1.9419 -0.0254 -1.1464
   9723SM  H13G13185   4.494   7.035  14.282  0.3227  0.8748 -0.0582
   9723SM  C14F13186   4.673   6.963  14.389  0.1120  0.2414  0.5640
   9723SM  H14F13187   4.717   7.064  14.407 -1.0768  1.0289 -0.7966
   9723SM  H14G13188   4.759   6.895  14.369  0.4629  0.3652  1.5755
   9723SM  C15F13189   4.603   6.921  14.524 -0.0376 -0.8392 -0.0293
   9723SM  H15F13190   4.550   6.826  14.499 -1.4552  0.6607 -3.2032
   9723SM  H15G13191   4.534   7.003  14.550  3.4350  1.5157  2.5645
   9723SM  C16F13192   4.698   6.898  14.642 -0.0283  0.3423  0.1277
   9723SM  H16F13193   4.739   6.995  14.677 -1.4567  1.6889 -1.7019
   9723SM  H16G13194   4.768   6.822  14.599 -2.1859 -2.0974  0.6908
   9723SM  C17F13195   4.646   6.825  14.765  0.4195 -0.6089  0.1794
   9723SM  H17F13196   4.733   6.778  14.817  0.5631 -1.6451 -0.9572
   9723SM  H17G13197   4.583   6.735  14.746 -0.6218  0.0011  0.6255
   9723SM  C18F13198   4.555   6.919  14.847  0.0128 -0.0034 -0.5928
   9723SM  H18F13199   4.477   6.851  14.888  1.2793  0.5777  3.1775
   9723SM  H18G13200   4.507   6.999  14.786  1.9249  1.5008 -0.2290
   9723SM  C19F13201   4.632   6.970  14.961 -0.1364  0.3888 -0.3049
   9723SM  H19F13202   4.719   7.027  14.923  2.4002 -0.2785  3.8949
   9723SM  H19G13203   4.671   6.883  15.018  1.1197 -0.4704 -2.3685
   9723SM  C20F13204   4.562   7.063  15.056  0.0078 -0.1170  0.3382
   9723SM  H20F13205   4.626   7.061  15.147  1.6951  2.1664 -0.7021
   9723SM  H20G13206   4.464   7.017  15.077  0.3005  0.3442  3.1900
   9723SM  C21F13207   4.549   7.213  15.021 -0.5197  0.6430 -0.0859
   9723SM  H21F13208   4.481   7.228  14.935  0.2013 -0.3601 -0.8566
   9723SM  H21G13209   4.646   7.248  14.980 -0.3200  0.6081  0.3492
   9723SM  C22F13210   4.508   7.298  15.141  0.0952 -0.5698  0.2574
   9723SM  H22F13211   4.524   7.404  15.113 -1.6474 -1.0551 -3.1731
   9723SM  H22G13212   4.563   7.258  15.229 -0.0395 -1.9585 -0.2641
   9723SM  C23F13213   4.355   7.296  15.175  0.0139  0.8767  0.3034
   9723SM  H23F13214   4.336   7.201  15.230  1.4407 -0.8421 -1.9538
   9723SM  H23G13215   4.295   7.301  15.081  0.0996 -0.6825  0.1303
   9723SM  H23H13216   4.338   7.386  15.236  0.1712  1.1509 -0.0547
   9823SM     N13217   1.231   5.421  12.806  0.1637  0.5408 -0.2634
   9823SM   C1513218   1.130   5.533  12.797 -0.5051 -0.2104 -0.1642
   9823SM  H15A13219   1.088   5.556  12.700 -0.4937 -3.0391 -0.9179
   9823SM  H15B13220   1.179   5.623  12.832 -1.1534  0.7114 -1.5273
   9823SM  H15C13221   1.046   5.510  12.860  0.5908  1.6902  2.1260
   9823SM   C1413222   1.346   5.459  12.731 -0.3132  0.1090 -0.3651
   9823SM  H14A13223   1.378   5.561  12.747 -1.4884  0.5540 -0.7703
   9823SM  H14B13224   1.347   5.444  12.624  0.2757  0.6305 -0.4454
   9823SM  H14C13225   1.427   5.397  12.767 -1.4082 -2.0374 -1.4471
   9823SM   C1313226   1.260   5.396  12.955  0.1212 -0.3099  0.3790
   9823SM  H13A13227   1.336   5.319  12.966 -0.4924 -1.1286 -0.9166
   9823SM  H13B13228   1.169   5.362  13.002  0.6401 -1.5445  0.5215
   9823SM  H13C13229   1.288   5.492  12.997  0.1683  1.6199 -3.5990
   9823SM   C1213230   1.173   5.289  12.755  1.1359 -0.1295 -0.3622
   9823SM  H12A13231   1.249   5.219  12.785 -1.6542 -2.9849  0.5457
   9823SM  H12B13232   1.181   5.284  12.647  2.3813  1.1435 -0.3614
   9823SM   C1113233   1.026   5.249  12.809 -0.4376  0.8448  0.6345
   9823SM  H11A13234   0.990   5.158  12.758  0.2340  0.7367  0.3450
   9823SM  H11B13235   0.954   5.321  12.766  0.3896  1.3243  0.0198
   9823SM     P13236   1.045   5.093  13.017 -0.3233 -0.1368 -0.0153
   9823SM   O1313237   0.910   5.030  13.034 -0.0147 -0.3006  0.2662
   9823SM   O1413238   1.140   5.008  12.939  0.6142 -0.0414  0.0118
   9823SM   O1113239   1.096   5.126  13.161  0.2638  0.1308 -0.4944
   9823SM   O1213240   1.022   5.234  12.948  0.0520  0.1635 -0.5202
   9823SM   C1S13241   1.056   5.242  13.230  0.1152 -0.3114  0.0954
   9823SM   H1S13242   0.947   5.255  13.214 -0.1412 -1.5553  0.7448
   9823SM   H1T13243   1.108   5.333  13.192  1.5168 -1.1503 -0.0801
   9823SM    NF13244   1.051   5.354  13.443  0.3183 -0.3490  0.0591
   9823SM   HNF13245   1.113   5.429  13.465  1.0813 -1.0751  0.4424
   9823SM   C2S13246   1.095   5.232  13.378 -0.1168 -0.0497  0.3473
   9823SM   H2S13247   1.039   5.145  13.420  0.0749  0.4279  1.6445
   9823SM   C3S13248   1.246   5.204  13.398 -0.1507  0.0753  0.3416
   9823SM   H3S13249   1.301   5.295  13.365 -1.3683  0.6542 -0.1859
   9823SM    O313250   1.296   5.097  13.323  0.9622 -1.2015 -0.1534
   9823SM   HO313251   1.229   5.075  13.258  1.9527  1.1914 -2.1375
   9823SM   C4S13252   1.271   5.181  13.540 -0.7218 -0.5583  0.1589
   9823SM   H4S13253   1.238   5.081  13.568  2.1298 -2.1659 -1.7227
   9823SM   C5S13254   1.314   5.269  13.635  0.5047 -0.7547 -0.6231
   9823SM   H5S13255   1.334   5.375  13.613  1.4233 -1.1799 -1.9404
   9823SM   C6S13256   1.336   5.235  13.784 -0.5221 -0.2906 -0.1123
   9823SM   H6S13257   1.241   5.204  13.833  1.3643 -2.2987  2.5355
   9823SM   H6T13258   1.373   5.324  13.838 -0.3215 -1.3193  1.4959
   9823SM   C7S13259   1.444   5.120  13.810 -0.0443  0.0309 -0.0024
   9823SM   H7S13260   1.528   5.140  13.740  0.6301  0.0585  0.8084
   9823SM   H7T13261   1.409   5.017  13.786 -0.6104  0.5041 -1.3425
   9823SM   C8S13262   1.494   5.114  13.954 -0.3873  0.3466 -0.2923
   9823SM   H8S13263   1.486   5.212  14.004  1.0815  0.7422 -0.8020
   9823SM   H8T13264   1.602   5.093  13.942 -0.0400  2.0767 -0.4394
   9823SM   C9S13265   1.425   5.005  14.035  0.1879  0.2388  0.0462
   9823SM   H9S13266   1.413   4.917  13.968 -0.3479 -0.3592  0.9018
   9823SM   H9T13267   1.326   5.036  14.073  0.2390  0.2396  0.1799
   9823SM  C10S13268   1.514   4.982  14.156 -0.3043  0.3053 -0.9738
   9823SM  H10S13269   1.550   5.074  14.207  1.1331  0.4770 -2.2169
   9823SM  H10T13270   1.600   4.924  14.116 -0.4311 -0.3994 -0.2446
   9823SM  C11S13271   1.472   4.877  14.259 -0.6644 -0.1816  0.1162
   9823SM  H11S13272   1.557   4.864  14.330  0.6769  0.8505 -1.2328
   9823SM  H11T13273   1.437   4.782  14.215  0.3235  0.7486 -2.9357
   9823SM  C12S13274   1.357   4.941  14.343  0.4230 -0.2443  0.5057
   9823SM  H12S13275   1.266   4.937  14.280  0.5419  1.0390  0.2184
   9823SM  H12T13276   1.384   5.043  14.377  0.0870 -0.2943  0.9390
   9823SM  C13S13277   1.319   4.851  14.466 -0.1749 -0.2350  0.2145
   9823SM  H13S13278   1.409   4.846  14.530  1.1177 -0.4054 -1.5562
   9823SM  H13T13279   1.282   4.751  14.435  0.6458  0.1644 -2.2341
   9823SM  C14S13280   1.208   4.921  14.542  0.5139 -0.3732 -0.1754
   9823SM  H14S13281   1.129   4.963  14.477  1.6252 -1.0219 -2.0333
   9823SM  H14T13282   1.259   5.006  14.593  1.0908 -1.4592  1.1382
   9823SM  C15S13283   1.140   4.833  14.652 -0.1174 -0.2777 -0.5248
   9823SM  H15S13284   1.220   4.772  14.700 -0.0350  1.1422  1.2366
   9823SM  H15T13285   1.075   4.763  14.595 -1.2294  0.0687  0.2790
   9823SM  C16S13286   1.072   4.904  14.771  0.6358  0.5221  0.7055
   9823SM  H16S13287   0.968   4.924  14.740  0.9867  0.3188 -0.6935
   9823SM  H16T13288   1.125   5.000  14.791 -0.1285  0.8515  1.1803
   9823SM  C17S13289   1.088   4.819  14.900  0.0764  0.0753  0.7588
   9823SM  H17S13290   1.191   4.776  14.900  0.1312  0.2044  0.7460
   9823SM  H17T13291   1.045   4.719  14.878  0.7256 -0.4485  1.7865
   9823SM  C18S13292   1.040   4.883  15.025  0.2671  0.1853 -0.0111
   9823SM  H18S13293   1.102   4.974  15.044 -1.0097  1.4811 -1.7243
   9823SM  H18T13294   1.041   4.816  15.113  0.0339  0.3567  0.1235
   9823SM  H18U13295   0.935   4.917  15.011 -0.7280 -2.4397  0.5893
   9823SM   C1F13296   0.917   5.372  13.463 -0.4467  0.0007 -0.4444
   9823SM    OF13297   0.829   5.298  13.418 -0.1070  0.3894 -0.3768
   9823SM   C2F13298   0.875   5.488  13.543 -0.2791  0.0638  0.4821
   9823SM   H2F13299   0.831   5.444  13.636  0.1335 -2.8831 -0.6159
   9823SM   H2G13300   0.794   5.526  13.478 -0.4706 -1.5115 -0.2612
   9823SM   C3F13301   0.973   5.591  13.595 -1.2573  0.3963 -0.0379
   9823SM   H3F13302   0.913   5.677  13.631  0.4435  2.1028 -1.1154
   9823SM   H3G13303   1.025   5.641  13.510 -0.9247  0.3143  0.1139
   9823SM   C4F13304   1.082   5.548  13.699 -0.0348 -0.7122 -0.3038
   9823SM   H4F13305   1.140   5.639  13.727 -0.0749 -0.3616 -1.3246
   9823SM   H4G13306   1.153   5.476  13.653 -0.2662 -0.7302 -0.6288
   9823SM   C5F13307   1.016   5.493  13.829  0.5880 -0.2251 -0.1400
   9823SM   H5F13308   0.977   5.392  13.804 -0.7887 -0.4205  2.4196
   9823SM   H5G13309   0.932   5.564  13.847  0.3145 -0.4740 -0.4200
   9823SM   C6F13310   1.107   5.478  13.953  0.1731 -0.1867  0.1006
   9823SM   H6F13311   1.149   5.578  13.978 -2.5807  1.5224 -1.5276
   9823SM   H6G13312   1.185   5.410  13.913 -0.7181  0.3403 -2.7978
   9823SM   C7F13313   1.044   5.415  14.075  0.1041  1.1341 -0.6194
   9823SM   H7F13314   0.982   5.329  14.040  1.5614 -0.9380  1.5155
   9823SM   H7G13315   0.978   5.484  14.132  3.0038  1.5748  2.5736
   9823SM   C8F13316   1.152   5.366  14.171  0.0395  0.6716  0.1468
   9823SM   H8F13317   1.235   5.438  14.159  1.0879 -0.5256  0.0251
   9823SM   H8G13318   1.199   5.272  14.135  0.3328  0.3750  1.2634
   9823SM   C9F13319   1.095   5.360  14.313 -0.2707  0.3042  0.4844
   9823SM   H9F13320   1.020   5.278  14.316  0.8301 -0.9126 -1.8404
   9823SM   H9G13321   1.059   5.463  14.329  2.0441  1.0415  1.3130
   9823SM  C10F13322   1.200   5.346  14.420 -0.1402 -0.2911 -0.4513
   9823SM  H10F13323   1.274   5.422  14.386  0.0530 -1.2556 -2.3162
   9823SM  H10G13324   1.253   5.250  14.406 -2.0285 -1.5538  0.6553
   9823SM  C11F13325   1.157   5.371  14.563  0.2478 -0.1433 -0.2709
   9823SM  H11F13326   1.136   5.480  14.560  0.9835 -0.0192 -0.9704
   9823SM  H11G13327   1.243   5.360  14.632 -0.7363 -1.5186  0.7933
   9823SM  C12F13328   1.043   5.286  14.618  0.2227  0.0756  0.6465
   9823SM  H12F13329   1.063   5.177  14.607 -0.3297  0.2036 -2.1822
   9823SM  H12G13330   0.942   5.296  14.574 -0.3939  1.4296  2.2270
   9823SM  C13F13331   1.024   5.310  14.762 -0.0733 -0.7474  0.0193
   9823SM  H13F13332   1.119   5.291  14.816  0.1480  0.2234 -0.0178
   9823SM  H13G13333   0.960   5.226  14.796  1.6507 -0.9654  3.1367
   9823SM  C14F13334   0.968   5.455  14.800 -0.1535  0.8473  0.4395
   9823SM  H14F13335   0.881   5.475  14.734  0.6509  0.9972 -0.6125
   9823SM  H14G13336   1.041   5.535  14.774  2.0476 -1.3017 -0.2970
   9823SM  C15F13337   0.930   5.461  14.945  0.3016  0.0990 -0.2810
   9823SM  H15F13338   0.876   5.558  14.942 -1.7191 -0.9505  0.4082
   9823SM  H15G13339   1.023   5.465  15.007 -0.7632  2.2710  1.3191
   9823SM  C16F13340   0.822   5.362  14.985  0.1945 -0.7604 -1.1954
   9823SM  H16F13341   0.866   5.260  14.985  2.4698  0.1605  0.1326
   9823SM  H16G13342   0.735   5.364  14.916 -1.7402 -2.6003  0.9848
   9823SM  C17F13343   0.768   5.390  15.127 -0.4480  0.1984  0.3516
   9823SM  H17F13344   0.661   5.366  15.147 -0.4507  0.6327  0.8627
   9823SM  H17G13345   0.788   5.496  15.152 -0.5255 -0.0300  1.4344
   9823SM  C18F13346   0.838   5.299  15.233 -0.7245  0.2132 -0.0367
   9823SM  H18F13347   0.907   5.365  15.289  0.1791  0.1568 -1.0494
   9823SM  H18G13348   0.905   5.223  15.187  0.4354  0.5420  1.0558
   9823SM  C19F13349   0.729   5.227  15.315 -0.0469 -0.3149  0.0534
   9823SM  H19F13350   0.666   5.311  15.350  0.3305 -0.3644  0.8783
   9823SM  H19G13351   0.782   5.187  15.404  0.1519  3.1417  1.6393
   9823SM  C20F13352   0.647   5.111  15.257 -0.1519  0.0687  0.6243
   9823SM  H20F13353   0.716   5.029  15.227 -1.0691 -0.5550  0.1809
   9823SM  H20G13354   0.601   5.146  15.162 -2.2234  1.3722  2.0398
   9823SM  C21F13355   0.542   5.047  15.343 -0.5951  0.5170  0.6093
   9823SM  H21F13356   0.588   4.992  15.428 -1.9740 -0.6127  0.6594
   9823SM  H21G13357   0.501   4.964  15.281  1.1153  1.0239 -1.3121
   9823SM  C22F13358   0.424   5.132  15.379  0.1704  0.5825  0.1825
   9823SM  H22F13359   0.372   5.173  15.290 -0.9152  0.6042  0.8127
   9823SM  H22G13360   0.450   5.221  15.441 -0.6029 -0.3565  1.9252
   9823SM  C23F13361   0.324   5.042  15.452 -0.1594 -0.2107  0.8488
   9823SM  H23F13362   0.235   5.104  15.473 -0.6836 -0.1922 -1.1592
   9823SM  H23G13363   0.372   5.017  15.549 -0.2772  2.1092  1.5535
   9823SM  H23H13364   0.296   4.951  15.395 -0.9776  0.3245  0.3764
   9923SM     N13365   2.025   5.897  12.918 -0.3951  0.7559 -0.7447
   9923SM   C1513366   2.011   5.842  12.786  0.0339  0.2273  0.3697
   9923SM  H15A13367   2.094   5.774  12.777  1.9796  2.6307 -1.9663
   9923SM  H15B13368   2.036   5.912  12.707  4.7400 -3.3157 -1.7424
   9923SM  H15C13369   1.924   5.782  12.766  0.3253  0.2241 -0.9994
   9923SM   C1413370   1.958   5.796  13.012 -0.5360 -0.0740 -0.5829
   9923SM  H14A13371   1.992   5.823  13.110 -1.5361  1.0816 -0.5367
   9923SM  H14B13372   1.993   5.695  12.994 -2.9724 -0.8869 -1.1409
   9923SM  H14C13373   1.851   5.802  13.017 -0.5400 -0.9124  0.6928
   9923SM   C1313374   2.165   5.914  12.949 -0.4069 -0.0609  0.2625
   9923SM  H13A13375   2.218   5.966  12.871  0.3408 -1.9721 -0.5627
   9923SM  H13B13376   2.224   5.823  12.954 -0.5059 -0.0921  1.0000
   9923SM  H13C13377   2.187   5.965  13.041  1.2146 -1.1527  0.5285
   9923SM   C1213378   1.948   6.026  12.921 -0.1380  0.2578  0.3383
   9923SM  H12A13379   1.846   6.016  12.889  0.2105  1.1269 -1.1277
   9923SM  H12B13380   1.994   6.090  12.847  1.3371  0.6826  1.5657
   9923SM   C1113381   1.966   6.101  13.051 -0.3581  0.3538 -0.0181
   9923SM  H11A13382   2.075   6.110  13.072 -0.1640  0.7723 -1.1226
   9923SM  H11B13383   1.927   6.043  13.137  0.7036  0.7987  0.7822
   9923SM     P13384   1.988   6.344  12.991 -0.1502  0.0760 -0.0433
   9923SM   O1313385   2.081   6.302  12.883 -0.0386 -0.3131 -0.2427
   9923SM   O1413386   1.901   6.450  12.950  0.4002  0.2063 -0.1070
   9923SM   O1113387   2.070   6.378  13.125  0.8860  0.1700 -0.1090
   9923SM   O1213388   1.900   6.220  13.034 -0.2374  0.3913 -0.0340
   9923SM   C1S13389   1.992   6.459  13.219  0.3010 -0.1339 -0.2454
   9923SM   H1S13390   1.883   6.456  13.199  0.1351  0.2333  0.5954
   9923SM   H1T13391   2.033   6.562  13.219  4.3027 -1.5367  0.2045
   9923SM    NF13392   1.914   6.469  13.452  0.9481  0.5334  0.1610
   9923SM   HNF13393   1.933   6.541  13.518  0.6732 -0.6779  1.5959
   9923SM   C2S13394   2.017   6.414  13.365  0.5989 -0.1754 -0.7421
   9923SM   H2S13395   1.991   6.306  13.369 -1.2238  0.2262 -0.7887
   9923SM   C3S13396   2.172   6.418  13.412 -0.1639 -0.3602 -0.4434
   9923SM   H3S13397   2.210   6.521  13.399 -1.1891  0.2161  0.9033
   9923SM    O313398   2.250   6.330  13.336 -0.2735 -0.2766  0.4944
   9923SM   HO313399   2.190   6.318  13.262 -0.9650  1.1377  0.7883
   9923SM   C4S13400   2.177   6.375  13.554 -0.1864  0.5724  0.0240
   9923SM   H4S13401   2.137   6.274  13.571 -0.8337  0.2684 -2.8144
   9923SM   C5S13402   2.203   6.462  13.652 -0.1818  0.0784 -0.3071
   9923SM   H5S13403   2.239   6.562  13.624 -0.3928  0.8303  1.9556
   9923SM   C6S13404   2.192   6.437  13.800 -0.2417  0.2954  0.0640
   9923SM   H6S13405   2.288   6.471  13.847  0.0158  0.0457 -0.2790
   9923SM   H6T13406   2.184   6.331  13.830  1.9008 -0.0421 -0.3599
   9923SM   C7S13407   2.080   6.528  13.859  0.2602 -0.7311 -0.0343
   9923SM   H7S13408   1.994   6.516  13.790  1.0347  0.6530 -1.2819
   9923SM   H7T13409   2.122   6.631  13.852 -0.4957 -0.3779  0.5056
   9923SM   C8S13410   2.055   6.495  14.007 -0.1633 -0.1293  0.1279
   9923SM   H8S13411   2.154   6.465  14.047  0.5677  2.4547  0.4087
   9923SM   H8T13412   1.989   6.405  14.012  1.3029 -1.3124 -0.9508
   9923SM   C9S13413   1.999   6.609  14.087  0.3649  0.2747  0.4514
   9923SM   H9S13414   1.926   6.655  14.017  0.0807 -1.3029 -0.3472
   9923SM   H9T13415   2.071   6.693  14.093  0.5983  0.3271 -1.9823
   9923SM  C10S13416   1.941   6.566  14.224 -0.3478  0.4585  0.4289
   9923SM  H10S13417   2.018   6.521  14.290 -0.0241  0.8870  0.3463
   9923SM  H10T13418   1.864   6.488  14.207  0.4643 -0.7773  2.0844
   9923SM  C11S13419   1.877   6.685  14.299 -0.1169  0.6777 -0.4232
   9923SM  H11S13420   1.795   6.724  14.235 -0.6919 -2.0241 -1.4687
   9923SM  H11T13421   1.937   6.778  14.307 -1.4224  1.4504  0.7864
   9923SM  C12S13422   1.824   6.660  14.441  0.1271  0.8951 -0.4278
   9923SM  H12S13423   1.900   6.606  14.500  0.6008  1.8825 -0.1175
   9923SM  H12T13424   1.746   6.582  14.433 -1.1374  2.0585  0.0898
   9923SM  C13S13425   1.769   6.781  14.518 -0.4676  0.0883  0.4071
   9923SM  H13S13426   1.851   6.855  14.523  0.4520 -0.9548  1.4292
   9923SM  H13T13427   1.759   6.753  14.626  0.3730 -0.2517  0.4095
   9923SM  C14S13428   1.634   6.818  14.474 -0.1659  0.4210 -0.3888
   9923SM  H14S13429   1.564   6.733  14.461  1.4810 -0.8245 -1.4923
   9923SM  H14T13430   1.653   6.864  14.375  0.8048 -0.9250 -0.8582
   9923SM  C15S13431   1.563   6.934  14.554 -0.6411 -0.1398 -0.9527
   9923SM  H15S13432   1.650   7.000  14.575 -0.0460 -0.6821 -1.6560
   9923SM  H15T13433   1.513   6.895  14.645  0.9815  2.3493  1.1686
   9923SM  C16S13434   1.477   7.021  14.464  0.4953 -0.6648  0.6623
   9923SM  H16S13435   1.544   7.065  14.388  0.9172 -1.3811  0.6163
   9923SM  H16T13436   1.429   7.100  14.526 -3.2066 -1.2718 -1.1211
   9923SM  C17S13437   1.368   6.949  14.388  0.1450 -0.1360  0.4202
   9923SM  H17S13438   1.418   6.883  14.314 -0.1596 -0.3390  0.3924
   9923SM  H17T13439   1.310   7.026  14.334  2.4434  0.4427 -1.3984
   9923SM  C18S13440   1.266   6.864  14.475 -0.4127 -0.0863  0.3708
   9923SM  H18S13441   1.209   6.928  14.545 -1.0927 -0.0446 -0.2054
   9923SM  H18T13442   1.324   6.779  14.518  0.7123  0.5714  0.1953
   9923SM  H18U13443   1.195   6.811  14.408  1.7476 -1.6375 -0.8553
   9923SM   C1F13444   1.785   6.437  13.438  0.1028 -0.3366 -0.0447
   9923SM    OF13445   1.746   6.325  13.394  0.0249 -0.0222 -0.0666
   9923SM   C2F13446   1.692   6.529  13.507 -0.4444 -0.3652  0.0622
   9923SM   H2F13447   1.605   6.539  13.439 -0.4900  2.1254  0.4242
   9923SM   H2G13448   1.746   6.624  13.524 -2.0770  1.0328 -2.0591
   9923SM   C3F13449   1.643   6.464  13.645 -0.3006  0.0132 -0.1574
   9923SM   H3F13450   1.732   6.463  13.712  0.5624  0.0983 -1.2725
   9923SM   H3G13451   1.608   6.362  13.619 -0.0975 -0.3027  0.7372
   9923SM   C4F13452   1.544   6.545  13.716  0.2353  0.0731 -0.3932
   9923SM   H4F13453   1.461   6.545  13.642 -0.3912  1.2358  0.2669
   9923SM   H4G13454   1.580   6.649  13.729  0.4452 -0.1975  1.4771
   9923SM   C5F13455   1.491   6.496  13.851 -0.0675 -0.3164  0.4347
   9923SM   H5F13456   1.467   6.389  13.837 -0.2066 -0.1360 -0.8200
   9923SM   H5G13457   1.393   6.546  13.870  0.4988  0.4826  1.4119
   9923SM   C6F13458   1.582   6.520  13.974  0.7499 -0.0839  0.4592
   9923SM   H6F13459   1.569   6.627  14.001 -0.4599  0.1199 -0.8438
   9923SM   H6G13460   1.689   6.498  13.955  0.2366 -1.8211 -0.6546
   9923SM   C7F13461   1.530   6.435  14.092  0.0725  0.6915 -0.5993
   9923SM   H7F13462   1.559   6.328  14.087  1.4296  0.9765  0.6406
   9923SM   H7G13463   1.419   6.435  14.084 -0.4056 -1.9174  3.1231
   9923SM   C8F13464   1.553   6.498  14.232 -0.3156  0.0555  0.2002
   9923SM   H8F13465   1.568   6.607  14.214  0.0670  0.1924  1.2575
   9923SM   H8G13466   1.645   6.447  14.267  1.1750  2.5072  0.0853
   9923SM   C9F13467   1.442   6.484  14.339  0.5614  0.1512  0.5561
   9923SM   H9F13468   1.346   6.503  14.287  1.4414 -0.2103 -1.2898
   9923SM   H9G13469   1.453   6.564  14.415 -2.2979  0.2928  0.9353
   9923SM  C10F13470   1.425   6.347  14.401 -0.4479 -0.2277 -1.0277
   9923SM  H10F13471   1.516   6.326  14.460 -1.5375  0.0193  0.8405
   9923SM  H10G13472   1.426   6.275  14.317 -0.4806 -1.5439  0.0657
   9923SM  C11F13473   1.305   6.339  14.498  0.0654 -0.0234  0.3966
   9923SM  H11F13474   1.304   6.427  14.565 -0.6396 -0.1862  0.6048
   9923SM  H11G13475   1.327   6.263  14.576  1.8852  1.3769  1.3175
   9923SM  C12F13476   1.169   6.326  14.429  0.4190 -0.0618  0.5337
   9923SM  H12F13477   1.176   6.226  14.380 -1.6538  0.1983 -0.3836
   9923SM  H12G13478   1.163   6.407  14.353 -1.9941  1.0437  1.8077
   9923SM  C13F13479   1.052   6.337  14.526 -0.5964  0.3636 -0.5285
   9923SM  H13F13480   1.075   6.286  14.622 -1.2406 -0.1424 -0.6396
   9923SM  H13G13481   0.964   6.284  14.483  0.9626 -1.1950 -1.9978
   9923SM  C14F13482   1.023   6.484  14.563  0.2252 -0.5153  0.2609
   9923SM  H14F13483   0.969   6.538  14.482 -0.2865  0.3918  1.1742
   9923SM  H14G13484   1.114   6.548  14.569  0.1182 -0.0600 -1.9704
   9923SM  C15F13485   0.935   6.494  14.684 -0.0444 -0.2489  0.2506
   9923SM  H15F13486   0.853   6.418  14.680 -0.4681  0.2624 -2.2300
   9923SM  H15G13487   0.883   6.591  14.672  1.8412  0.8077  0.3704
   9923SM  C16F13488   1.004   6.499  14.822 -0.6753 -0.5551  0.1760
   9923SM  H16F13489   1.085   6.575  14.831 -0.8216 -0.6441  2.9272
   9923SM  H16G13490   1.054   6.403  14.845  0.5410 -0.1552 -0.6881
   9923SM  C17F13491   0.908   6.532  14.935 -0.4344  0.9965  0.1474
   9923SM  H17F13492   0.813   6.476  14.921  0.4408 -0.7413  0.7740
   9923SM  H17G13493   0.886   6.640  14.944  1.1442  1.2603  1.3237
   9923SM  C18F13494   0.965   6.504  15.072  0.1591 -0.1307 -0.5361
   9923SM  H18F13495   1.064   6.540  15.108  0.8623 -3.0991  0.8191
   9923SM  H18G13496   0.985   6.396  15.058  1.2701  0.0059 -0.1499
   9923SM  C19F13497   0.858   6.530  15.182  0.2543 -0.3040  0.0602
   9923SM  H19F13498   0.773   6.476  15.136 -0.6149  1.2023 -0.1855
   9923SM  H19G13499   0.839   6.640  15.182 -1.4681 -0.5730 -0.6681
   9923SM  C20F13500   0.907   6.477  15.319 -0.0657  0.0632  0.5388
   9923SM  H20F13501   0.990   6.540  15.358 -0.2855  0.2033  0.7829
   9923SM  H20G13502   0.936   6.372  15.300  2.5028  1.0221 -1.5047
   9923SM  C21F13503   0.803   6.483  15.433 -0.1475 -0.3644  0.1188
   9923SM  H21F13504   0.713   6.430  15.394 -0.1288  2.2779 -4.1698
   9923SM  H21G13505   0.782   6.592  15.436  0.0827 -0.1392 -3.1545
   9923SM  C22F13506   0.867   6.439  15.567 -0.0436  0.1049  0.2258
   9923SM  H22F13507   0.960   6.498  15.563  0.5152 -0.8259 -1.3956
   9923SM  H22G13508   0.895   6.332  15.571  0.7802  0.2506 -1.0398
   9923SM  C23F13509   0.783   6.466  15.691  0.1183  0.4732  0.2425
   9923SM  H23F13510   0.691   6.406  15.679 -0.5332  1.2053  1.4251
   9923SM  H23G13511   0.738   6.568  15.687 -1.4487 -0.2196 -0.2239
   9923SM  H23H13512   0.837   6.445  15.786 -0.4276 -0.4811  0.3536
  10023SM     N13513   0.289   5.896  12.904 -0.1271 -0.1323  0.2305
  10023SM   C1513514   0.268   5.789  12.802 -0.2677 -0.5283 -0.1857
  10023SM  H15A13515   0.240   5.832  12.707  1.6595 -0.7387 -0.9019
  10023SM  H15B13516   0.193   5.722  12.840 -1.6574  1.3870  0.5961
  10023SM  H15C13517   0.355   5.731  12.775 -1.8172 -2.8959 -0.3815
  10023SM   C1413518   0.413   5.977  12.872 -0.0829 -0.1216 -0.4322
  10023SM  H14A13519   0.426   6.051  12.949 -1.4203  0.8104 -1.0685
  10023SM  H14B13520   0.414   6.029  12.777 -2.3234  1.3092  0.2424
  10023SM  H14C13521   0.501   5.916  12.882  1.1952  1.6724 -0.3066
  10023SM   C1313522   0.175   5.991  12.891 -0.3691 -0.3576  0.3940
  10023SM  H13A13523   0.075   5.952  12.905 -0.0208 -0.5766  2.8294
  10023SM  H13B13524   0.171   6.035  12.793  0.6852 -1.2216 -0.0561
  10023SM  H13C13525   0.192   6.058  12.974  0.3363 -3.4693  2.9640
  10023SM   C1213526   0.295   5.842  13.042  0.3682 -0.2261  0.4880
  10023SM  H12A13527   0.361   5.756  13.042  1.6286  0.7095  0.9677
  10023SM  H12B13528   0.194   5.820  13.073  0.0878  0.1272 -0.1670
  10023SM   C1113529   0.343   5.935  13.160  0.2386  0.7128 -0.0877
  10023SM  H11A13530   0.451   5.960  13.147  0.4231 -0.3277 -0.6164
  10023SM  H11B13531   0.331   5.888  13.260 -0.0085 -1.2468 -1.0054
  10023SM     P13532   0.312   6.182  13.226 -0.3108 -0.1100  0.4700
  10023SM   O1313533   0.363   6.263  13.115 -0.0291  0.2354  0.2966
  10023SM   O1413534   0.199   6.234  13.298 -0.2224 -0.2178  0.2117
  10023SM   O1113535   0.424   6.142  13.325 -0.2449  0.4068  0.3618
  10023SM   O1213536   0.262   6.051  13.157  0.1734 -0.4210  0.3581
  10023SM   C1S13537   0.517   6.246  13.363  0.2688  0.2456 -0.2859
  10023SM   H1S13538   0.463   6.338  13.395  0.5337  0.5494 -0.7196
  10023SM   H1T13539   0.585   6.282  13.283  2.4099  0.2368  1.4189
  10023SM    NF13540   0.647   6.306  13.568  1.0530 -0.0085  1.1452
  10023SM   HNF13541   0.732   6.347  13.537  0.6954 -0.5819 -0.7214
  10023SM   C2S13542   0.593   6.193  13.487 -0.6258  0.5932 -0.3756
  10023SM   H2S13543   0.522   6.147  13.559  0.0139  1.6286  0.9646
  10023SM   C3S13544   0.688   6.088  13.452  0.2307  0.1735 -0.5625
  10023SM   H3S13545   0.774   6.130  13.395 -1.2132  0.6190 -2.5179
  10023SM    O313546   0.639   5.984  13.370  0.5647  0.1008 -0.1284
  10023SM   HO313547   0.555   6.022  13.343 -1.8839 -3.8789  1.1054
  10023SM   C4S13548   0.750   6.029  13.579 -0.0469  0.7625  0.3049
  10023SM   H4S13549   0.679   5.992  13.654 -0.7502 -1.2332 -1.2524
  10023SM   C5S13550   0.882   6.014  13.608 -0.1869 -0.0920 -1.0329
  10023SM   H5S13551   0.956   6.063  13.543  0.3813  0.4436  0.0041
  10023SM   C6S13552   0.947   5.954  13.732  0.1732 -1.0588 -0.1825
  10023SM   H6S13553   1.018   6.030  13.769  0.6651 -1.0919 -1.0323
  10023SM   H6T13554   1.002   5.860  13.708 -0.9784 -1.7938 -0.0586
  10023SM   C7S13555   0.849   5.899  13.840  0.6876 -0.0120 -0.2774
  10023SM   H7S13556   0.804   5.810  13.792  0.1706  0.1623 -0.1169
  10023SM   H7T13557   0.773   5.976  13.868  0.9959 -0.8241  3.2804
  10023SM   C8S13558   0.922   5.862  13.964 -0.4096  0.4596  0.0517
  10023SM   H8S13559   0.959   5.950  14.019  0.9665  0.7958 -1.3298
  10023SM   H8T13560   1.014   5.802  13.949 -0.2367  0.5912  0.5715
  10023SM   C9S13561   0.836   5.781  14.055 -0.1985 -0.1955  0.4607
  10023SM   H9S13562   0.846   5.673  14.031 -0.0557 -0.1056  0.1108
  10023SM   H9T13563   0.731   5.807  14.030 -0.3880  0.0312  1.4158
  10023SM  C10S13564   0.868   5.785  14.205 -0.4731 -0.1359 -0.2141
  10023SM  H10S13565   0.871   5.885  14.253 -2.1142 -0.2368  0.1395
  10023SM  H10T13566   0.974   5.752  14.210  0.6880  3.1089 -0.8685
  10023SM  C11S13567   0.766   5.708  14.288  0.5339  0.0384 -0.7593
  10023SM  H11S13568   0.729   5.615  14.240 -0.1178 -0.3312  0.4105
  10023SM  H11T13569   0.680   5.776  14.306  1.0821  1.0585 -1.8783
  10023SM  C12S13570   0.820   5.684  14.434 -0.0788 -0.5209  0.3361
  10023SM  H12S13571   0.874   5.774  14.471 -1.0085  0.2995 -0.2132
  10023SM  H12T13572   0.894   5.602  14.434  1.5937  0.9165  1.6979
  10023SM  C13S13573   0.709   5.636  14.535 -0.0107  0.1625 -0.4046
  10023SM  H13S13574   0.762   5.623  14.632 -0.2287  0.9830 -0.1629
  10023SM  H13T13575   0.686   5.531  14.506  3.8887 -1.0758  0.4818
  10023SM  C14S13576   0.588   5.723  14.551 -0.0426 -0.2606 -0.3489
  10023SM  H14S13577   0.531   5.734  14.456 -1.9707  1.8981  0.9452
  10023SM  H14T13578   0.620   5.828  14.569  1.3893 -0.6221 -0.6104
  10023SM  C15S13579   0.498   5.668  14.660  0.3372  0.1024 -0.4326
  10023SM  H15S13580   0.548   5.662  14.758 -0.7689 -3.6409  0.0442
  10023SM  H15T13581   0.469   5.564  14.635  0.4288 -0.1784  0.6106
  10023SM  C16S13582   0.372   5.763  14.679  0.8065  0.2292  0.7254
  10023SM  H16S13583   0.327   5.706  14.762  0.9922 -1.1464 -0.0981
  10023SM  H16T13584   0.300   5.778  14.595 -0.1736  2.7431  1.8854
  10023SM  C17S13585   0.399   5.903  14.737  0.1544  0.5779  1.0755
  10023SM  H17S13586   0.440   5.979  14.667 -3.0525  2.1689  0.7625
  10023SM  H17T13587   0.481   5.889  14.810  0.9108  4.8444  1.2978
  10023SM  C18S13588   0.284   5.960  14.807  0.4358  0.2273  0.2616
  10023SM  H18S13589   0.194   5.971  14.743 -0.0251 -2.9275  0.1935
  10023SM  H18T13590   0.306   6.060  14.849 -0.4758  0.3623  0.4297
  10023SM  H18U13591   0.255   5.896  14.893 -3.0399 -0.1330 -1.0459
  10023SM   C1F13592   0.563   6.388  13.631  0.7131 -0.0157  0.4312
  10023SM    OF13593   0.442   6.366  13.643  0.3936 -0.3402  0.9140
  10023SM   C2F13594   0.627   6.511  13.694  0.7303 -0.7659 -0.3165
  10023SM   H2F13595   0.580   6.607  13.663  1.1878 -0.8080 -1.1786
  10023SM   H2G13596   0.729   6.528  13.652  0.5358 -0.9530 -0.8736
  10023SM   C3F13597   0.623   6.503  13.850  0.7405 -0.7055 -0.6187
  10023SM   H3F13598   0.675   6.409  13.878  0.6469 -0.3744  0.7844
  10023SM   H3G13599   0.516   6.494  13.879  1.2791 -0.1340  1.8236
  10023SM   C4F13600   0.683   6.634  13.920 -0.4715 -0.3242  0.4715
  10023SM   H4F13601   0.655   6.734  13.882  0.6767 -0.7109 -1.4973
  10023SM   H4G13602   0.791   6.634  13.894 -0.4372  0.7616  0.5910
  10023SM   C5F13603   0.689   6.628  14.074 -0.6612  0.8446 -0.4643
  10023SM   H5F13604   0.744   6.539  14.112 -2.2108 -0.1459 -0.4453
  10023SM   H5G13605   0.589   6.626  14.121 -0.2088  0.8036  0.5092
  10023SM   C6F13606   0.772   6.738  14.136 -0.1339  0.6303  0.1407
  10023SM   H6F13607   0.720   6.829  14.099 -0.4529 -0.5055 -2.4523
  10023SM   H6G13608   0.874   6.744  14.092  0.2536 -0.8221  0.7824
  10023SM   C7F13609   0.784   6.725  14.287  0.1474  0.3556 -0.3640
  10023SM   H7F13610   0.845   6.647  14.336  3.1191  2.6179 -0.2044
  10023SM   H7G13611   0.677   6.714  14.316  0.2499 -0.4021 -0.2760
  10023SM   C8F13612   0.827   6.866  14.345 -0.0515 -0.3359 -0.4278
  10023SM   H8F13613   0.754   6.945  14.317  0.2758 -0.0427 -0.4685
  10023SM   H8G13614   0.936   6.879  14.325  0.0914 -1.3818 -0.3527
  10023SM   C9F13615   0.835   6.858  14.497  0.3229 -0.4873 -0.1559
  10023SM   H9F13616   0.926   6.804  14.530 -0.2260 -1.9858 -0.9781
  10023SM   H9G13617   0.742   6.809  14.533  0.4746 -1.4475 -1.0307
  10023SM  C10F13618   0.840   7.001  14.566 -0.1285  0.0890  0.0296
  10023SM  H10F13619   0.764   7.063  14.513  0.4170 -0.3241 -1.3004
  10023SM  H10G13620   0.941   7.048  14.561  0.4455 -0.8115  2.1907
  10023SM  C11F13621   0.806   6.996  14.716  0.8847 -0.8001 -0.2829
  10023SM  H11F13622   0.882   6.945  14.779 -1.2990 -2.0915  1.4839
  10023SM  H11G13623   0.716   6.931  14.726  0.7553 -0.7065 -0.8026
  10023SM  C12F13624   0.782   7.133  14.783 -0.0630 -0.7722 -0.2799
  10023SM  H12F13625   0.713   7.207  14.737  0.4652  0.6669  1.1240
  10023SM  H12G13626   0.881   7.183  14.780 -1.4263  2.2374  0.6772
  10023SM  C13F13627   0.746   7.119  14.934 -0.0118  0.3691 -0.2865
  10023SM  H13F13628   0.790   7.022  14.965  0.0696  1.3975  3.1735
  10023SM  H13G13629   0.636   7.113  14.950 -0.2744  1.3120 -1.5989
  10023SM  C14F13630   0.812   7.229  15.021 -0.8146 -0.2892  0.4217
  10023SM  H14F13631   0.784   7.212  15.127 -0.2526 -1.0028  0.4599
  10023SM  H14G13632   0.771   7.324  14.979  0.1389 -0.2148 -0.3908
  10023SM  C15F13633   0.970   7.229  15.018 -0.4467  0.3258  0.4767
  10023SM  H15F13634   1.007   7.266  14.920 -0.5200 -1.5324 -0.2865
  10023SM  H15G13635   1.007   7.124  15.016 -2.5663 -0.4619 -0.3844
  10023SM  C16F13636   1.040   7.308  15.131  0.4393 -0.2737 -0.0427
  10023SM  H16F13637   0.987   7.291  15.227 -1.3825 -0.0824 -0.9847
  10023SM  H16G13638   1.026   7.416  15.106  0.3376 -0.3570 -0.3467
  10023SM  C17F13639   1.194   7.294  15.152  0.9835  0.0271 -0.2950
  10023SM  H17F13640   1.243   7.298  15.052  1.8822  0.9458  0.1721
  10023SM  H17G13641   1.215   7.190  15.187 -1.7921 -0.4096  0.3018
  10023SM  C18F13642   1.249   7.391  15.249 -0.6890 -0.0197 -0.1403
  10023SM  H18F13643   1.329   7.341  15.309  0.8722  0.3537 -1.8476
  10023SM  H18G13644   1.162   7.424  15.311 -0.7270 -0.4060  0.0164
  10023SM  C19F13645   1.300   7.504  15.167 -0.1989  0.0601  0.1080
  10023SM  H19F13646   1.218   7.551  15.109 -0.2331  0.6056  0.5886
  10023SM  H19G13647   1.379   7.470  15.096  0.3751  0.3682  0.5833
  10023SM  C20F13648   1.350   7.617  15.260 -0.2169  0.3213 -0.0582
  10023SM  H20F13649   1.437   7.584  15.321 -0.5732  0.1949  0.3829
  10023SM  H20G13650   1.267   7.633  15.332 -0.5602  2.4039 -0.8588
  10023SM  C21F13651   1.397   7.739  15.190  0.5010  0.5779  0.0022
  10023SM  H21F13652   1.419   7.819  15.265  0.9522  1.0298 -0.5993
  10023SM  H21G13653   1.315   7.777  15.126 -0.5002  0.2209  1.0377
  10023SM  C22F13654   1.527   7.720  15.099  0.1053 -0.8409 -0.3537
  10023SM  H22F13655   1.526   7.792  15.014  0.1905  0.0070  0.3501
  10023SM  H22G13656   1.516   7.626  15.041 -0.0240 -0.1066 -1.5579
  10023SM  C23F13657   1.662   7.724  15.167 -0.8876  0.0415 -0.0155
  10023SM  H23F13658   1.682   7.817  15.224 -0.2049 -1.4100  2.2822
  10023SM  H23G13659   1.743   7.700  15.095  0.7957 -0.2703  1.8897
  10023SM  H23H13660   1.662   7.635  15.234 -1.1801 -0.7933 -1.1073
  101CHL1    C313661   3.718   3.415  16.629 -0.4934 -0.1868  0.5773
  101CHL1    H313662   3.809   3.358  16.600 -0.2307  0.0290  0.9674
  101CHL1    O313663   3.659   3.335  16.726  0.1462  0.5188 -0.6121
  101CHL1   H3'13664   3.591   3.390  16.766  0.8194  2.2862 -1.7900
  101CHL1    C413665   3.753   3.552  16.688  0.0676 -0.2535 -0.0318
  101CHL1   H4A13666   3.653   3.594  16.713 -1.7570 -3.1119 -1.8795
  101CHL1   H4B13667   3.814   3.548  16.781 -0.7141 -0.8436  0.4677
  101CHL1    C513668   3.821   3.635  16.583  0.0169  0.4943 -0.8037
  101CHL1    C613669   3.932   3.706  16.621  0.0986 -0.1182  0.0920
  101CHL1    H613670   3.971   3.705  16.724 -3.1920  0.3415  1.4896
  101CHL1    C713671   4.018   3.786  16.527 -0.0002  0.3999 -0.6428
  101CHL1   H7A13672   4.052   3.880  16.576 -0.8209 -0.7019  2.3188
  101CHL1   H7B13673   4.107   3.724  16.502 -0.4743  0.0435 -1.4946
  101CHL1    C813674   3.948   3.823  16.398 -0.8453  0.5749  0.4450
  101CHL1    H813675   3.887   3.915  16.411  0.8483  1.8562 -0.3882
  101CHL1   C1413676   4.045   3.860  16.285  0.1413 -0.0985 -1.0242
  101CHL1   H1413677   4.095   3.771  16.242  0.6548  0.4448 -1.5681
  101CHL1   C1513678   4.157   3.956  16.321 -0.4386 -0.0269 -0.1927
  101CHL1  H15A13679   4.115   4.044  16.374 -3.2480 -1.2467 -0.2035
  101CHL1  H15B13680   4.229   3.911  16.393 -0.5696  1.3918  0.8606
  101CHL1   C1613681   4.222   3.984  16.185  0.4475  0.0894 -0.1600
  101CHL1  H16A13682   4.249   4.091  16.183  0.1907  0.1672  0.2669
  101CHL1  H16B13683   4.306   3.919  16.154  1.6925  1.4194  0.3122
  101CHL1   C1713684   4.105   3.953  16.085 -0.4337 -0.8709 -0.3331
  101CHL1   H1713685   4.140   3.855  16.045  0.7079 -0.5440 -0.1920
  101CHL1   C1313686   3.979   3.919  16.166  0.8436  1.2991  0.7364
  101CHL1   C1813687   3.906   4.048  16.190  0.5227 -0.0987 -0.1399
  101CHL1  H18A13688   3.875   4.093  16.093  1.1508 -0.3618 -0.4714
  101CHL1  H18B13689   3.809   4.026  16.239 -1.9768  4.5765 -2.2757
  101CHL1  H18C13690   3.964   4.117  16.255  3.1868 -2.0023 -0.3109
  101CHL1   C1213691   3.891   3.813  16.097 -0.2264 -0.1490  0.3064
  101CHL1  H12A13692   3.837   3.863  16.014 -0.1952  0.4034  0.6211
  101CHL1  H12B13693   3.960   3.735  16.058  1.9426  3.3942 -3.7898
  101CHL1   C1113694   3.793   3.749  16.202 -0.3977  0.7256 -0.0072
  101CHL1  H11A13695   3.717   3.828  16.219 -1.2418 -0.0080 -0.3018
  101CHL1  H11B13696   3.747   3.661  16.152  0.4621 -0.2685  0.8908
  101CHL1    C913697   3.853   3.713  16.339  0.0537  0.3847 -0.6199
  101CHL1    H913698   3.924   3.631  16.316  0.5887 -0.0355  2.1519
  101CHL1   C1013699   3.756   3.640  16.445  0.8917 -0.1075 -0.7765
  101CHL1   C1913700   3.637   3.734  16.450  0.0776  0.4508 -0.6014
  101CHL1  H19A13701   3.658   3.840  16.475  2.1045 -0.0097 -0.1331
  101CHL1  H19B13702   3.578   3.739  16.356  2.6798 -1.2815 -2.4544
  101CHL1  H19C13703   3.568   3.709  16.533  0.3039  0.2388 -0.4780
  101CHL1    C113704   3.713   3.504  16.393  0.6163  0.1332  0.4030
  101CHL1   H1A13705   3.656   3.506  16.298  0.8012 -5.0036 -0.1100
  101CHL1   H1B13706   3.794   3.434  16.366  0.1530  0.2434 -1.3980
  101CHL1    C213707   3.629   3.437  16.511 -0.1340  0.2877  0.1493
  101CHL1   H2A13708   3.576   3.344  16.483 -2.9085  1.4424  1.2305
  101CHL1   H2B13709   3.551   3.509  16.541  0.8249  1.7860 -0.8209
  101CHL1   C2013710   4.111   4.047  15.963  0.0105  0.2258 -0.2173
  101CHL1   H2013711   4.085   4.149  15.997 -0.4022  0.2130 -0.4867
  101CHL1   C2113712   4.014   4.003  15.855 -0.7978  0.0168 -0.1558
  101CHL1  H21A13713   4.020   4.064  15.763 -1.9157  0.0489 -0.2238
  101CHL1  H21B13714   3.910   4.013  15.892 -0.5442  1.3142  0.2711
  101CHL1  H21C13715   4.045   3.898  15.837 -0.6393 -0.1847  1.1917
  101CHL1   C2213716   4.253   4.072  15.902  0.7227 -0.4756 -0.0767
  101CHL1  H22A13717   4.334   4.028  15.965  1.7115 -0.0911 -1.0467
  101CHL1  H22B13718   4.259   4.030  15.799 -1.2919 -0.5657 -0.2012
  101CHL1   C2313719   4.293   4.217  15.884  0.1371 -0.3539  0.2557
  101CHL1  H23A13720   4.285   4.264  15.984  0.5599  0.0778  0.0945
  101CHL1  H23B13721   4.403   4.217  15.868  0.3535 -2.8270  1.3571
  101CHL1   C2413722   4.206   4.283  15.780 -0.5740  0.0728 -0.1953
  101CHL1  H24A13723   4.188   4.242  15.679 -2.0389  1.9631 -0.7755
  101CHL1  H24B13724   4.109   4.301  15.832  0.5589 -0.7338  2.3739
  101CHL1   C2513725   4.242   4.437  15.755 -0.1563  0.5574 -0.2670
  101CHL1   H2513726   4.275   4.490  15.847  0.6869  0.7522 -0.6721
  101CHL1   C2613727   4.357   4.462  15.659  0.2903  0.4714  0.3847
  101CHL1  H26A13728   4.456   4.427  15.694  0.7124  1.4602  0.2368
  101CHL1  H26B13729   4.323   4.424  15.560  2.0891  2.6770 -1.1746
  101CHL1  H26C13730   4.382   4.565  15.626  2.2392 -0.4589 -1.2480
  101CHL1   C2713731   4.117   4.513  15.709  0.0388 -0.1068  0.0912
  101CHL1  H27A13732   4.087   4.466  15.613  2.3674 -2.6507  0.4724
  101CHL1  H27B13733   4.029   4.495  15.774 -1.3719  1.0936 -1.4213
  101CHL1  H27C13734   4.137   4.622  15.706  0.1185 -0.1171  0.2028
  102CHL1    C313735   2.286   3.753  16.556 -0.2746 -0.0828  0.4335
  102CHL1    H313736   2.388   3.797  16.557 -0.8274  1.6220 -3.0759
  102CHL1    O313737   2.234   3.739  16.687 -0.8602  0.7209  0.6468
  102CHL1   H3'13738   2.299   3.675  16.715 -1.0422  0.6990  1.0271
  102CHL1    C413739   2.197   3.838  16.472  0.7951 -0.1796 -0.3006
  102CHL1   H4A13740   2.093   3.799  16.470  1.4770 -2.2249 -3.3117
  102CHL1   H4B13741   2.188   3.940  16.516  2.5128 -1.0059  2.2126
  102CHL1    C513742   2.238   3.853  16.325  0.6276  0.0161 -0.1670
  102CHL1    C613743   2.268   3.976  16.271 -0.2830 -0.6345 -0.1453
  102CHL1    H613744   2.242   4.069  16.324 -2.0041  0.4399 -2.6737
  102CHL1    C713745   2.318   3.994  16.126 -0.2513 -0.1290 -0.6625
  102CHL1   H7A13746   2.262   4.078  16.079 -1.2139 -0.7756 -0.7088
  102CHL1   H7B13747   2.424   4.024  16.136 -0.8255  1.6859  0.4389
  102CHL1    C813748   2.305   3.862  16.044  0.0575  0.8197  0.2205
  102CHL1    H813749   2.200   3.856  16.008 -0.4760  1.0081  1.6665
  102CHL1   C1413750   2.394   3.871  15.922  0.4439  0.3415  0.4175
  102CHL1   H1413751   2.500   3.872  15.955  0.4789 -1.3924  0.4705
  102CHL1   C1513752   2.377   3.998  15.836 -0.8154  0.6498  0.2108
  102CHL1  H15A13753   2.269   4.015  15.816 -0.9387  0.4756  0.7244
  102CHL1  H15B13754   2.409   4.096  15.878 -4.0543  1.2343  1.6324
  102CHL1   C1613755   2.446   3.962  15.706  0.1379  0.4507 -0.0623
  102CHL1  H16A13756   2.381   3.994  15.622 -1.0262  0.0297  0.6664
  102CHL1  H16B13757   2.549   4.004  15.711  0.6940 -0.6096 -1.7900
  102CHL1   C1713758   2.477   3.806  15.710  0.4315  0.0802  0.1178
  102CHL1   H1713759   2.583   3.789  15.738  0.6493  0.3864 -0.5020
  102CHL1   C1313760   2.383   3.754  15.822  0.2293 -0.8980  0.1598
  102CHL1   C1813761   2.240   3.744  15.765  0.7040 -0.4683 -0.4314
  102CHL1  H18A13762   2.205   3.840  15.720 -1.8301 -1.1521 -0.0732
  102CHL1  H18B13763   2.227   3.667  15.687 -0.6636 -0.9768  0.2703
  102CHL1  H18C13764   2.162   3.725  15.842  2.3769  1.1401  1.7885
  102CHL1   C1213765   2.429   3.628  15.896  0.9814 -0.4067 -0.4948
  102CHL1  H12A13766   2.413   3.531  15.844 -2.5496  0.8098 -1.9607
  102CHL1  H12B13767   2.538   3.646  15.910  1.0655 -0.8531 -0.5575
  102CHL1   C1113768   2.349   3.617  16.036 -0.1887 -0.3203 -0.2038
  102CHL1  H11A13769   2.244   3.599  16.007  0.0905 -1.3377 -0.6255
  102CHL1  H11B13770   2.365   3.526  16.097 -1.4224  2.4298  4.7514
  102CHL1    C913771   2.351   3.745  16.125 -0.4066 -0.0270  0.6069
  102CHL1    H913772   2.457   3.766  16.150 -1.5131  3.2775  3.2260
  102CHL1   C1013773   2.268   3.719  16.257 -0.5519 -0.5820 -0.0180
  102CHL1   C1913774   2.125   3.668  16.227  0.0288  0.2130  0.0612
  102CHL1  H19A13775   2.045   3.675  16.304 -0.9151 -2.0180 -0.6493
  102CHL1  H19B13776   2.087   3.706  16.130 -0.5081  0.8722  0.5204
  102CHL1  H19C13777   2.137   3.560  16.206  0.3075  0.4480 -1.0809
  102CHL1    C113778   2.353   3.622  16.352  0.3739 -0.0395 -0.4692
  102CHL1   H1A13779   2.367   3.519  16.311 -0.7896 -0.6787  0.7023
  102CHL1   H1B13780   2.449   3.676  16.370  0.0288  0.8410 -1.2291
  102CHL1    C213781   2.296   3.615  16.495  0.0671  0.5619 -0.8994
  102CHL1   H2A13782   2.372   3.558  16.552  0.3889  1.3740 -0.5044
  102CHL1   H2B13783   2.205   3.552  16.508 -0.8015  1.9466 -0.0501
  102CHL1   C2013784   2.473   3.735  15.574 -0.2331  0.7538 -0.1665
  102CHL1   H2013785   2.369   3.736  15.535 -0.4450 -1.5565  0.1813
  102CHL1   C2113786   2.534   3.595  15.595  0.5111  0.3838 -0.6865
  102CHL1  H21A13787   2.640   3.593  15.628 -0.1079  3.6315  2.0136
  102CHL1  H21B13788   2.519   3.535  15.502  2.1076  0.0106 -0.7353
  102CHL1  H21C13789   2.475   3.538  15.669  1.4691  0.5884  0.2581
  102CHL1   C2213790   2.558   3.809  15.468  0.6848 -0.0796  0.6805
  102CHL1  H22A13791   2.509   3.909  15.460  0.6500 -0.1617 -0.2306
  102CHL1  H22B13792   2.659   3.817  15.513  1.1422  1.7698 -0.5447
  102CHL1   C2313793   2.561   3.746  15.326 -0.7929  0.1700  0.5871
  102CHL1  H23A13794   2.615   3.649  15.331  1.3867  1.3699  2.6839
  102CHL1  H23B13795   2.456   3.732  15.294 -0.6342 -1.7472  0.7914
  102CHL1   C2413796   2.643   3.833  15.226 -0.8776 -0.3745  0.3576
  102CHL1  H24A13797   2.564   3.904  15.194 -1.7175 -1.7055 -0.6531
  102CHL1  H24B13798   2.728   3.891  15.266 -0.9181  1.1433 -1.6072
  102CHL1   C2513799   2.687   3.759  15.099 -0.4585  0.3014  0.4571
  102CHL1   H2513800   2.607   3.712  15.039  0.3693 -0.3324 -0.1806
  102CHL1   C2613801   2.761   3.855  15.010 -0.6095  0.0840  0.1815
  102CHL1  H26A13802   2.787   3.792  14.922  0.3463  0.2220  0.3481
  102CHL1  H26B13803   2.695   3.935  14.971 -1.9165 -2.7902 -4.1970
  102CHL1  H26C13804   2.853   3.891  15.062  0.4993 -2.3389  0.0674
  102CHL1   C2713805   2.778   3.637  15.132  0.8675  0.0528  0.1162
  102CHL1  H27A13806   2.810   3.595  15.035  2.6379  3.6361 -1.0167
  102CHL1  H27B13807   2.861   3.680  15.193  0.2285  1.8867 -0.2480
  102CHL1  H27C13808   2.735   3.557  15.196  1.4542  0.2732  0.8003
  103CHL1    C313809   3.322   1.502  16.483 -0.1500  0.3686  0.3144
  103CHL1    H313810   3.217   1.472  16.461 -0.0510  0.5972 -0.4804
  103CHL1    O313811   3.345   1.476  16.625  0.5683 -0.0366  0.5021
  103CHL1   H3'13812   3.307   1.550  16.674 -0.5029 -1.1229  1.3618
  103CHL1    C413813   3.426   1.422  16.400 -0.2220 -0.4800  0.4087
  103CHL1   H4A13814   3.527   1.458  16.430 -0.4750  0.9064 -0.2839
  103CHL1   H4B13815   3.414   1.317  16.435 -0.7276 -0.7978 -0.7009
  103CHL1    C513816   3.426   1.445  16.249  0.5890 -0.7535  0.4839
  103CHL1    C613817   3.422   1.347  16.160 -0.1737 -0.7193  0.0284
  103CHL1    H613818   3.418   1.238  16.176  0.4558 -0.9924 -1.4586
  103CHL1    C713819   3.419   1.368  16.012  0.2035  0.0068  0.1223
  103CHL1   H7A13820   3.501   1.314  15.960 -0.1212 -1.0485  0.6848
  103CHL1   H7B13821   3.322   1.338  15.967 -0.2017 -0.2533  1.1391
  103CHL1    C813822   3.436   1.518  15.969 -0.0048  0.1099  0.2736
  103CHL1    H813823   3.545   1.538  15.975  0.2874 -1.6862  2.5645
  103CHL1   C1413824   3.393   1.539  15.822  0.8405  0.0940 -0.8651
  103CHL1   H1413825   3.287   1.507  15.819  0.8363  0.1058 -0.8383
  103CHL1   C1513826   3.450   1.452  15.715 -0.1907  0.3279  0.3465
  103CHL1  H15A13827   3.559   1.455  15.693 -0.4310 -0.3166 -1.0390
  103CHL1  H15B13828   3.435   1.345  15.737  1.3314 -0.0036 -0.0795
  103CHL1   C1613829   3.383   1.509  15.588 -0.3088  0.1051 -0.1550
  103CHL1  H16A13830   3.456   1.510  15.505 -1.2703  0.4398 -1.0210
  103CHL1  H16B13831   3.294   1.445  15.569 -0.8758  1.2846 -1.6893
  103CHL1   C1713832   3.340   1.657  15.627  0.4578  0.2959 -0.5890
  103CHL1   H1713833   3.230   1.649  15.640  0.7006 -0.6048  1.1651
  103CHL1   C1313834   3.389   1.682  15.770  0.1550 -0.0040 -1.2041
  103CHL1   C1813835   3.539   1.731  15.767  0.2542 -0.4150  0.7161
  103CHL1  H18A13836   3.545   1.837  15.733  1.6616  0.0487  2.2465
  103CHL1  H18B13837   3.580   1.713  15.868 -1.7838  1.4665  1.9569
  103CHL1  H18C13838   3.593   1.683  15.682 -0.2137 -1.0921  0.7977
  103CHL1   C1213839   3.294   1.767  15.867  0.8129 -0.3616  0.2335
  103CHL1  H12A13840   3.289   1.876  15.843 -3.2799  0.0437  2.0813
  103CHL1  H12B13841   3.188   1.733  15.860  0.4329  0.1907  2.4298
  103CHL1   C1113842   3.341   1.754  16.011  0.9537 -0.7530  0.3106
  103CHL1  H11A13843   3.440   1.802  16.030  0.8207 -0.1180 -0.5398
  103CHL1  H11B13844   3.262   1.800  16.074  0.6285 -0.2824 -0.4271
  103CHL1    C913845   3.362   1.609  16.062  0.0187 -0.0908  0.0062
  103CHL1    H913846   3.258   1.568  16.057 -0.4675  0.8073  1.8783
  103CHL1   C1013847   3.410   1.601  16.218  0.2205 -0.0013  0.9333
  103CHL1   C1913848   3.557   1.680  16.235  0.4301 -0.2698  0.1051
  103CHL1  H19A13849   3.607   1.657  16.332 -0.8961  0.7945  1.0935
  103CHL1  H19B13850   3.621   1.651  16.150 -1.8321 -0.5790 -1.5962
  103CHL1  H19C13851   3.543   1.790  16.228  1.6256 -0.1654 -0.9775
  103CHL1    C113852   3.311   1.679  16.307 -0.4507  0.2055  0.6592
  103CHL1   H1A13853   3.330   1.788  16.291  4.7887 -0.5668 -0.3975
  103CHL1   H1B13854   3.206   1.656  16.280 -0.3064  1.5762 -1.3326
  103CHL1    C213855   3.328   1.653  16.456 -0.2848  0.1580 -0.5771
  103CHL1   H2A13856   3.246   1.697  16.517 -0.5866  0.4384 -1.1705
  103CHL1   H2B13857   3.433   1.675  16.486  0.0379  0.1375 -1.6448
  103CHL1   C2013858   3.367   1.757  15.517  0.0859  0.5126 -0.1219
  103CHL1   H2013859   3.475   1.745  15.493 -0.0341  1.1306 -1.0248
  103CHL1   C2113860   3.334   1.900  15.553  0.8906 -0.1853 -0.1415
  103CHL1  H21A13861   3.348   1.965  15.464  1.3361  0.1516  0.1705
  103CHL1  H21B13862   3.411   1.935  15.625  0.6394 -0.4562  0.2658
  103CHL1  H21C13863   3.230   1.919  15.587  0.6152  0.2117 -1.1538
  103CHL1   C2213864   3.289   1.704  15.380 -0.5221 -0.4576 -0.7142
  103CHL1  H22A13865   3.313   1.597  15.361 -2.3907 -1.7856  3.3636
  103CHL1  H22B13866   3.182   1.713  15.408 -0.4240 -1.8147  0.1671
  103CHL1   C2313867   3.318   1.785  15.251 -1.0087 -0.0019  0.2644
  103CHL1  H23A13868   3.320   1.896  15.258  1.8160  0.0077  0.1235
  103CHL1  H23B13869   3.422   1.752  15.230 -1.4246 -3.0712  2.2809
  103CHL1   C2413870   3.229   1.731  15.142  0.2228 -0.2353 -0.3280
  103CHL1  H24A13871   3.252   1.623  15.137  3.1700  0.3154 -0.2712
  103CHL1  H24B13872   3.123   1.752  15.169  0.6585 -0.3130  1.6028
  103CHL1   C2513873   3.250   1.786  14.997 -0.3974 -0.0777 -0.0173
  103CHL1   H2513874   3.214   1.891  15.000 -1.1907 -0.2926 -1.2353
  103CHL1   C2613875   3.394   1.777  14.943 -0.3211  0.5824 -0.4484
  103CHL1  H26A13876   3.470   1.810  15.018 -0.7414 -0.9932  0.7168
  103CHL1  H26B13877   3.415   1.668  14.944 -0.4620  0.5559  0.5796
  103CHL1  H26C13878   3.407   1.817  14.840 -2.4353 -0.6847 -1.2593
  103CHL1   C2713879   3.162   1.725  14.888  0.0758  0.3071 -0.4271
  103CHL1  H27A13880   3.206   1.625  14.867  1.0123  0.9125 -1.4167
  103CHL1  H27B13881   3.060   1.699  14.923  0.3993  0.2989  0.5626
  103CHL1  H27C13882   3.153   1.786  14.796  1.5041  0.1287 -0.7020
  104CHL1    C313883   6.572   2.944  16.150  0.7327  0.0695 -0.3450
  104CHL1    H313884   6.612   2.845  16.120 -1.0130 -0.7565 -0.0877
  104CHL1    O313885   6.634   2.980  16.265  0.1661 -0.3747  0.1211
  104CHL1   H3'13886   6.627   3.076  16.274  0.9433 -0.0143 -2.3286
  104CHL1    C413887   6.610   3.038  16.035  0.1118 -0.6899 -0.3743
  104CHL1   H4A13888   6.569   3.139  16.057 -0.3955 -0.9978  0.1293
  104CHL1   H4B13889   6.721   3.028  16.028  0.0854 -0.8407 -0.5648
  104CHL1    C513890   6.537   3.002  15.903  0.4891  0.1112  0.2647
  104CHL1    C613891   6.603   2.980  15.787 -0.5661  0.5677  0.2210
  104CHL1    H613892   6.711   3.003  15.788 -0.4883  0.2301  1.9092
  104CHL1    C713893   6.538   2.948  15.662  0.2374  0.1170 -0.1702
  104CHL1   H7A13894   6.578   3.025  15.593 -2.1751  2.1333  0.5502
  104CHL1   H7B13895   6.566   2.843  15.640  0.4860  0.2196 -0.3469
  104CHL1    C813896   6.377   2.961  15.674  0.5299  0.6041 -0.2086
  104CHL1    H813897   6.350   3.068  15.663  0.6879  0.5628 -1.0941
  104CHL1   C1413898   6.310   2.895  15.557 -0.1073 -0.0313  0.0199
  104CHL1   H1413899   6.336   2.787  15.561 -1.2121 -0.4146 -1.9558
  104CHL1   C1513900   6.341   2.959  15.422 -0.3841  0.6204  0.1840
  104CHL1  H15A13901   6.333   3.068  15.442  0.8863  0.6188  0.7573
  104CHL1  H15B13902   6.442   2.939  15.382  0.0741  1.2569  0.9861
  104CHL1   C1613903   6.232   2.899  15.327 -0.8523 -0.0588  0.2510
  104CHL1  H16A13904   6.197   2.991  15.276  1.2517  0.1706 -0.8896
  104CHL1  H16B13905   6.276   2.832  15.251 -1.4782  0.1546 -0.3037
  104CHL1   C1713906   6.131   2.823  15.412 -0.4249  0.0966  0.1742
  104CHL1   H1713907   6.171   2.722  15.433  0.1591  0.7543  2.5889
  104CHL1   C1313908   6.154   2.889  15.554 -0.2391 -0.2420 -0.1880
  104CHL1   C1813909   6.087   3.024  15.549 -0.2180 -0.6940 -0.1292
  104CHL1  H18A13910   6.106   3.076  15.453 -1.4760 -0.3729 -0.2211
  104CHL1  H18B13911   5.976   3.022  15.559 -0.2292  1.0869  0.6228
  104CHL1  H18C13912   6.132   3.087  15.629  1.0644  1.0225 -2.1068
  104CHL1   C1213913   6.121   2.803  15.677 -0.2260 -0.1162 -1.2161
  104CHL1  H12A13914   6.011   2.787  15.685 -0.7903  3.8610  3.2341
  104CHL1  H12B13915   6.160   2.699  15.664 -3.2290 -1.8820  2.1073
  104CHL1   C1113916   6.169   2.871  15.813 -0.5421  0.8777  0.1393
  104CHL1  H11A13917   6.117   2.968  15.823  0.2371  1.3020  0.2133
  104CHL1  H11B13918   6.139   2.803  15.895 -1.6926  0.8401 -0.3097
  104CHL1    C913919   6.322   2.900  15.807  0.1929  0.0321  0.1150
  104CHL1    H913920   6.368   2.799  15.810 -1.2266 -0.6632 -0.4570
  104CHL1   C1013921   6.385   2.973  15.921  0.4291  0.2608 -0.5512
  104CHL1   C1913922   6.312   3.106  15.947 -0.4847 -0.0534 -0.4834
  104CHL1  H19A13923   6.327   3.168  15.856  0.6404 -1.4111 -1.2562
  104CHL1  H19B13924   6.202   3.097  15.960 -0.6010 -0.0018 -1.3740
  104CHL1  H19C13925   6.343   3.163  16.037  0.2368 -2.5960  0.9956
  104CHL1    C113926   6.359   2.878  16.043  0.0368  0.0424  0.4354
  104CHL1   H1A13927   6.251   2.865  16.067  0.2087  0.2461  1.3510
  104CHL1   H1B13928   6.404   2.779  16.019  1.1196  0.5075  0.5151
  104CHL1    C213929   6.420   2.918  16.173 -0.0769 -0.5644  0.2601
  104CHL1   H2A13930   6.405   2.845  16.255  0.5735  0.1108  0.9978
  104CHL1   H2B13931   6.379   3.017  16.202  1.8193  0.1207  0.7958
  104CHL1   C2013932   5.992   2.817  15.346  0.4843 -0.2445  0.2290
  104CHL1   H2013933   5.950   2.919  15.330 -1.8973 -1.0589  0.8831
  104CHL1   C2113934   5.890   2.739  15.432  0.0595 -0.2694 -0.6715
  104CHL1  H21A13935   5.792   2.749  15.381  0.7055  0.5840 -1.8082
  104CHL1  H21B13936   5.879   2.783  15.533 -0.9077 -2.6778  0.3313
  104CHL1  H21C13937   5.925   2.635  15.450 -0.0355  0.0024  1.2267
  104CHL1   C2213938   5.992   2.756  15.203 -0.3841 -0.1533  0.0934
  104CHL1  H22A13939   5.893   2.764  15.154  0.4559 -0.7479 -1.7991
  104CHL1  H22B13940   6.064   2.815  15.141  0.6186  0.9842  2.2164
  104CHL1   C2313941   6.029   2.606  15.193 -0.5107  0.3711 -1.2674
  104CHL1  H23A13942   6.123   2.591  15.251  1.3268  0.8714 -3.9027
  104CHL1  H23B13943   5.947   2.550  15.242 -2.1814  1.6116 -2.5499
  104CHL1   C2413944   6.048   2.565  15.048  0.0370  0.0458 -0.5626
  104CHL1  H24A13945   5.978   2.615  14.977  1.4028 -1.3142 -3.0155
  104CHL1  H24B13946   6.145   2.599  15.006 -1.3532  1.1398 -3.1398
  104CHL1   C2513947   6.039   2.413  15.025  0.2289  0.7267 -0.6231
  104CHL1   H2513948   5.954   2.382  15.090 -0.8763 -0.1595 -2.4033
  104CHL1   C2613949   6.007   2.362  14.880 -0.5280  0.1481 -0.6000
  104CHL1  H26A13950   5.909   2.404  14.848 -0.3281 -0.7797 -2.5760
  104CHL1  H26B13951   6.079   2.400  14.804  0.7391 -0.8303  0.0636
  104CHL1  H26C13952   6.003   2.251  14.883 -0.8709  0.0627  4.3072
  104CHL1   C2713953   6.160   2.334  15.085  0.1228  0.1689  0.1580
  104CHL1  H27A13954   6.182   2.374  15.186  0.5105 -0.7240  0.4410
  104CHL1  H27B13955   6.162   2.223  15.088  2.1777  0.1559  3.8880
  104CHL1  H27C13956   6.248   2.373  15.030  0.6942 -0.1179  0.8566
  105CHL1    C313957   7.052   2.101  16.344 -0.2694 -0.0303 -0.6103
  105CHL1    H313958   7.037   1.991  16.344 -0.5225 -0.1876  3.8791
  105CHL1    O313959   7.071   2.132  16.482  0.4593  0.3413  0.3943
  105CHL1   H3'13960   7.070   2.228  16.482 -0.9552  0.3787  2.1716
  105CHL1    C413961   7.177   2.140  16.265  0.0093  0.2167 -0.2528
  105CHL1   H4A13962   7.209   2.245  16.279  3.4736 -0.7142 -0.2148
  105CHL1   H4B13963   7.263   2.085  16.309 -0.1077  1.1853  1.2436
  105CHL1    C513964   7.152   2.095  16.122 -0.3323 -0.1502  0.1231
  105CHL1    C613965   7.236   2.013  16.055 -0.2438  0.0366  1.0466
  105CHL1    H613966   7.324   1.974  16.108 -0.5978 -1.2723  0.6977
  105CHL1    C713967   7.237   1.988  15.906  0.3828 -0.1274  0.0218
  105CHL1   H7A13968   7.338   1.992  15.859  0.1628 -0.1951 -0.4575
  105CHL1   H7B13969   7.209   1.884  15.880  1.3121 -0.0603 -1.3168
  105CHL1    C813970   7.138   2.078  15.829  0.3027  0.0095 -0.1024
  105CHL1    H813971   7.183   2.180  15.825 -1.4238  0.8571  0.8397
  105CHL1   C1413972   7.108   2.023  15.689  0.5355 -0.0679  0.6995
  105CHL1   H1413973   7.046   1.933  15.710  1.9810 -1.2529  0.0723
  105CHL1   C1513974   7.218   1.970  15.594  0.2395  0.0311  1.0103
  105CHL1  H15A13975   7.299   2.046  15.594 -0.4167  0.7643 -0.0264
  105CHL1  H15B13976   7.258   1.869  15.615  1.5858  0.7242  1.9863
  105CHL1   C1613977   7.158   1.979  15.453 -0.3374  0.3459  0.2798
  105CHL1  H16A13978   7.213   2.046  15.384 -1.9983  2.0953  0.5687
  105CHL1  H16B13979   7.159   1.877  15.409 -1.6811  0.5036 -0.1480
  105CHL1   C1713980   7.017   2.032  15.469  0.5036  0.2594 -0.1246
  105CHL1   H1713981   6.951   1.945  15.490 -0.6782  1.0277 -0.5078
  105CHL1   C1313982   7.013   2.111  15.600 -0.1778 -0.0820  0.6865
  105CHL1   C1813983   7.067   2.254  15.572  0.5065 -0.4704  0.2302
  105CHL1  H18A13984   7.168   2.245  15.525  0.0718  2.3747 -1.4643
  105CHL1  H18B13985   6.998   2.318  15.513 -0.1873  0.0348  1.5514
  105CHL1  H18C13986   7.067   2.309  15.668 -1.1162  0.7458 -0.4267
  105CHL1   C1213987   6.880   2.118  15.680 -0.1591 -0.4966 -0.1269
  105CHL1  H12A13988   6.797   2.168  15.627  0.2628 -0.0134 -0.3431
  105CHL1  H12B13989   6.849   2.011  15.673  1.1622 -0.8262 -1.6582
  105CHL1   C1113990   6.900   2.169  15.826 -0.1926 -0.0248  0.3964
  105CHL1  H11A13991   6.924   2.276  15.811 -0.4872 -0.0350 -0.2000
  105CHL1  H11B13992   6.805   2.168  15.884  0.6595 -2.2445  1.8946
  105CHL1    C913993   7.011   2.100  15.911  0.4980  1.1208  0.2882
  105CHL1    H913994   6.966   1.999  15.922 -0.3778  1.3223 -1.1546
  105CHL1   C1013995   7.031   2.157  16.052  0.3263  0.5661 -0.1739
  105CHL1   C1913996   7.049   2.310  16.026 -0.3996  1.3703 -0.4203
  105CHL1  H19A13997   7.083   2.361  16.119  0.9567 -1.5207  0.8050
  105CHL1  H19B13998   7.126   2.326  15.948  2.0177 -1.3086  1.2187
  105CHL1  H19C13999   6.948   2.351  16.006 -1.0301  0.0406 -0.0194
  105CHL1    C114000   6.906   2.137  16.151  0.1191 -0.2132 -0.3924
  105CHL1   H1A14001   6.823   2.196  16.106  1.3044  2.0827  0.2690
  105CHL1   H1B14002   6.881   2.029  16.153 -2.2788  0.2821  0.5754
  105CHL1    C214003   6.922   2.176  16.297  0.2450  0.7475  0.5824
  105CHL1   H2A14004   6.836   2.130  16.351 -0.5296  0.8949 -0.4950
  105CHL1   H2B14005   6.928   2.287  16.305  0.5385  0.6812  1.3922
  105CHL1   C2014006   6.965   2.099  15.337  0.0572  1.2132 -0.4397
  105CHL1   H2014007   7.024   2.193  15.330 -0.8546  2.0221  1.9141
  105CHL1   C2114008   6.811   2.136  15.351  0.2382 -0.0472  0.2849
  105CHL1  H21A14009   6.764   2.051  15.406 -0.0663  1.0878  1.8711
  105CHL1  H21B14010   6.781   2.164  15.248  0.6445  0.2823  0.2525
  105CHL1  H21C14011   6.789   2.225  15.414 -1.1203  1.0336 -1.6095
  105CHL1   C2214012   6.987   2.015  15.208  0.4196  0.0919 -0.6306
  105CHL1  H22A14013   6.970   2.084  15.122  0.4687  2.5842  1.2304
  105CHL1  H22B14014   7.093   1.985  15.197  0.0456 -0.5292 -3.2844
  105CHL1   C2314015   6.905   1.889  15.204 -0.6362 -0.8009 -0.6437
  105CHL1  H23A14016   6.911   1.848  15.307 -1.7145 -0.7482 -0.5456
  105CHL1  H23B14017   6.795   1.906  15.203 -0.3671  1.9444  1.8492
  105CHL1   C2414018   6.942   1.789  15.106 -0.6237  0.2544  0.4974
  105CHL1  H24A14019   7.046   1.750  15.117 -0.3213  1.2832  1.5391
  105CHL1  H24B14020   6.873   1.704  15.125  0.3249 -1.0195 -1.3834
  105CHL1   C2514021   6.929   1.834  14.956 -0.0769  0.4758 -0.9911
  105CHL1   H2514022   6.966   1.939  14.946 -0.5455  0.7331 -0.1349
  105CHL1   C2614023   6.995   1.727  14.866  0.1429 -0.2524  0.7543
  105CHL1  H26A14024   7.103   1.711  14.886  0.2192 -1.2620 -0.3702
  105CHL1  H26B14025   6.947   1.629  14.887  0.7886 -0.3419  1.9204
  105CHL1  H26C14026   6.978   1.747  14.758 -2.9070 -0.1941  1.1697
  105CHL1   C2714027   6.782   1.841  14.921 -0.2558 -0.2027  0.3009
  105CHL1  H27A14028   6.733   1.926  14.973  0.5869  0.8639 -0.5974
  105CHL1  H27B14029   6.766   1.865  14.814  1.4682 -2.8772 -0.6728
  105CHL1  H27C14030   6.736   1.743  14.948 -0.0209  0.5600  4.0482
  106CHL1    C314031   2.834   0.963  16.598 -0.4715  0.7412 -0.3172
  106CHL1    H314032   2.743   1.023  16.581 -0.6124  0.7176  0.3157
  106CHL1    O314033   2.832   0.925  16.731  0.3048 -0.1745 -1.0003
  106CHL1   H3'14034   2.920   0.894  16.753 -0.4525 -1.6817  0.0867
  106CHL1    C414035   2.829   0.834  16.517 -0.6174  0.0304  0.0494
  106CHL1   H4A14036   2.899   0.764  16.568 -2.3735 -1.3929  0.6393
  106CHL1   H4B14037   2.727   0.793  16.534  0.3692 -2.6935 -0.0424
  106CHL1    C514038   2.858   0.846  16.372  0.4445 -0.3391  0.2111
  106CHL1    C614039   2.780   0.807  16.273  0.2716 -0.2986  0.8946
  106CHL1    H614040   2.686   0.751  16.289  0.7675 -1.2173  0.6721
  106CHL1    C714041   2.812   0.826  16.130  0.9555 -0.0093 -0.4573
  106CHL1   H7A14042   2.782   0.735  16.073 -1.2965  1.0391 -1.0423
  106CHL1   H7B14043   2.755   0.913  16.092 -0.6392 -0.6480  0.3954
  106CHL1    C814044   2.956   0.862  16.101  0.2330 -0.2271 -0.3118
  106CHL1    H814045   3.019   0.771  16.103 -0.5524 -0.7904 -0.7568
  106CHL1   C1414046   2.968   0.916  15.959  0.0551  0.5987 -0.1357
  106CHL1   H1414047   2.915   1.013  15.965  0.0799  0.5742  0.5048
  106CHL1   C1514048   2.904   0.841  15.848  0.7667 -0.2104  0.4992
  106CHL1  H15A14049   2.914   0.732  15.864  0.7265 -0.1126  1.2238
  106CHL1  H15B14050   2.794   0.858  15.848  0.1827 -3.3729 -0.6434
  106CHL1   C1614051   2.975   0.895  15.720 -0.5264 -0.0640  0.1432
  106CHL1  H16A14052   3.027   0.817  15.660  0.7707  1.4723 -0.8082
  106CHL1  H16B14053   2.901   0.938  15.649 -0.9279 -2.1709 -0.7797
  106CHL1   C1714054   3.081   0.999  15.774 -0.0614 -0.0893 -0.0354
  106CHL1   H1714055   3.016   1.087  15.791 -1.4858 -1.3013  1.0374
  106CHL1   C1314056   3.108   0.957  15.917 -0.3749  0.7809  0.2511
  106CHL1   C1814057   3.195   0.833  15.928 -0.2140  0.6915  0.3143
  106CHL1  H18A14058   3.169   0.748  15.862 -3.6936  2.6533 -1.1088
  106CHL1  H18B14059   3.300   0.862  15.904  0.2885 -1.9121 -0.9989
  106CHL1  H18C14060   3.206   0.781  16.026  1.5730 -1.1345 -0.7668
  106CHL1   C1214061   3.147   1.069  16.015  0.0670 -0.0906  0.1789
  106CHL1  H12A14062   3.247   1.113  15.994  0.3223  0.5362  2.4420
  106CHL1  H12B14063   3.077   1.153  15.997  0.7650  0.7267  1.1496
  106CHL1   C1114064   3.144   1.023  16.157 -0.5259 -0.0662  0.8604
  106CHL1  H11A14065   3.226   0.951  16.177  0.4598  0.5597 -0.7189
  106CHL1  H11B14066   3.166   1.117  16.212 -2.1669  1.1709 -0.4936
  106CHL1    C914067   3.008   0.969  16.197  0.1722  0.4921 -0.1646
  106CHL1    H914068   2.941   1.057  16.182  0.5084  0.8232  0.2437
  106CHL1   C1014069   2.991   0.928  16.348  0.5919  0.6506 -0.2149
  106CHL1   C1914070   3.110   0.832  16.389 -0.3665 -0.1969 -0.3196
  106CHL1  H19A14071   3.112   0.739  16.328 -1.3465 -0.0121 -0.6457
  106CHL1  H19B14072   3.208   0.884  16.381 -1.1974  1.4292 -0.2230
  106CHL1  H19C14073   3.105   0.805  16.496  1.2784  3.4079  0.8214
  106CHL1    C114074   2.984   1.063  16.424 -0.1796  0.2452 -0.5946
  106CHL1   H1A14075   3.081   1.115  16.408  0.6249 -1.2739 -0.8088
  106CHL1   H1B14076   2.902   1.132  16.394 -0.5958  1.4079  2.7561
  106CHL1    C214077   2.963   1.050  16.574  0.5761 -0.1016  0.6733
  106CHL1   H2A14078   2.957   1.149  16.623 -0.1948  0.5300 -0.6693
  106CHL1   H2B14079   3.045   1.000  16.630  0.9402  1.1561  1.2783
  106CHL1   C2014080   3.193   1.027  15.677  0.5533 -0.2268  0.2166
  106CHL1   H2014081   3.260   0.939  15.668  1.1535  0.2605 -0.2126
  106CHL1   C2114082   3.282   1.131  15.737 -0.4576  0.1779 -0.4445
  106CHL1  H21A14083   3.364   1.157  15.666  1.2172  1.6845  1.8829
  106CHL1  H21B14084   3.334   1.082  15.822  0.5733  1.9158 -0.0138
  106CHL1  H21C14085   3.233   1.225  15.770 -0.6379  0.2320 -0.8577
  106CHL1   C2214086   3.153   1.062  15.536 -0.0348  0.5130  0.7099
  106CHL1  H22A14087   3.240   1.087  15.471  0.5467 -0.1897  1.2073
  106CHL1  H22B14088   3.104   0.971  15.496  2.3999 -0.0938 -1.1561
  106CHL1   C2314089   3.053   1.170  15.527 -0.0024 -0.1937 -0.1741
  106CHL1  H23A14090   2.950   1.143  15.560 -0.3433  1.0613 -0.1446
  106CHL1  H23B14091   3.084   1.254  15.593 -0.0467  1.2535 -1.9278
  106CHL1   C2414092   3.045   1.237  15.387 -0.3083 -0.6636 -0.4014
  106CHL1  H24A14093   3.145   1.246  15.339 -0.7188 -1.7013 -1.5032
  106CHL1  H24B14094   2.996   1.165  15.317  0.8264 -2.5929  0.7158
  106CHL1   C2514095   2.952   1.368  15.374 -0.5639  0.5174 -0.0112
  106CHL1   H2514096   2.852   1.346  15.416  0.4881 -0.3193  2.2185
  106CHL1   C2614097   3.014   1.486  15.449 -0.1037  0.0146  0.1603
  106CHL1  H26A14098   2.948   1.574  15.433 -1.4569 -1.1394 -0.8982
  106CHL1  H26B14099   3.016   1.466  15.558 -1.8193 -1.4917 -0.0537
  106CHL1  H26C14100   3.111   1.522  15.407 -0.5258  0.3919 -0.5170
  106CHL1   C2714101   2.935   1.420  15.226 -0.4158 -0.5422  0.6876
  106CHL1  H27A14102   2.872   1.350  15.169  1.4956 -1.7372 -0.0469
  106CHL1  H27B14103   2.887   1.520  15.226  2.6399  1.0287  0.7553
  106CHL1  H27C14104   3.035   1.426  15.178 -1.7117 -1.0482 -2.2479
  107CHL1    C314105   4.720   5.906  16.526  0.0685  0.5978  0.2298
  107CHL1    H314106   4.650   5.991  16.516 -0.9704 -0.2147  0.4926
  107CHL1    O314107   4.745   5.869  16.658  0.0145 -0.5257 -0.7044
  107CHL1   H3'14108   4.682   5.804  16.690 -0.5993  0.3078 -0.1683
  107CHL1    C414109   4.666   5.786  16.444 -0.3193 -0.0869 -0.1217
  107CHL1   H4A14110   4.722   5.694  16.471 -0.7074 -0.2914 -0.0096
  107CHL1   H4B14111   4.563   5.773  16.483 -0.0171 -0.3197  0.6144
  107CHL1    C514112   4.674   5.806  16.292 -0.0404  0.5804  0.3714
  107CHL1    C614113   4.558   5.811  16.212 -0.0389  0.0368 -0.2204
  107CHL1    H614114   4.458   5.786  16.252 -0.5173  0.4645 -1.1077
  107CHL1    C714115   4.557   5.832  16.066  0.3668 -0.2859 -0.3795
  107CHL1   H7A14116   4.493   5.760  16.010 -0.3754 -0.2338  0.3880
  107CHL1   H7B14117   4.510   5.928  16.037 -2.2498 -1.1943  0.5106
  107CHL1    C814118   4.698   5.814  16.004 -0.6827  0.1779 -0.3307
  107CHL1    H814119   4.721   5.706  16.000  0.2244  0.2965  0.9379
  107CHL1   C1414120   4.695   5.863  15.859  0.2326 -0.6181  0.6966
  107CHL1   H1414121   4.670   5.971  15.865  1.6235 -0.1612 -1.0111
  107CHL1   C1514122   4.589   5.804  15.769  0.0432  0.5017 -0.1153
  107CHL1  H15A14123   4.570   5.695  15.770  0.4702  0.4266  0.4259
  107CHL1  H15B14124   4.491   5.850  15.790  0.2006  0.7512  0.0818
  107CHL1   C1614125   4.630   5.844  15.628  0.1281 -0.0030 -0.5729
  107CHL1  H16A14126   4.630   5.755  15.562 -0.6477  1.3258 -2.4628
  107CHL1  H16B14127   4.558   5.921  15.593  0.8527  1.2976  0.7039
  107CHL1   C1714128   4.770   5.908  15.647 -0.5838 -1.0765  0.7146
  107CHL1   H1714129   4.750   6.016  15.662 -1.9919 -1.4367  1.6017
  107CHL1   C1314130   4.828   5.849  15.784  0.4654 -0.1883 -0.4471
  107CHL1   C1814131   4.870   5.699  15.768  0.7848 -0.1240  0.1468
  107CHL1  H18A14132   4.967   5.693  15.714  1.1714 -0.7798  0.9037
  107CHL1  H18B14133   4.875   5.651  15.867 -1.8389  1.1988  1.0106
  107CHL1  H18C14134   4.793   5.647  15.707  1.1329 -0.6120  0.1179
  107CHL1   C1214135   4.934   5.924  15.856 -0.7873  0.5194 -0.0313
  107CHL1  H12A14136   5.030   5.896  15.808 -0.6308  1.3435 -0.2214
  107CHL1  H12B14137   4.913   6.033  15.850 -0.8336  0.6914  2.4007
  107CHL1   C1114138   4.945   5.892  16.008 -0.1848  0.5555  0.0956
  107CHL1  H11A14139   4.982   5.787  16.008  0.5802  0.8128 -0.8965
  107CHL1  H11B14140   5.014   5.962  16.060 -1.3345  0.9886  1.0589
  107CHL1    C914141   4.807   5.891  16.082  0.5109 -0.2121  0.8773
  107CHL1    H914142   4.767   5.995  16.082  1.0561  0.0215  2.2926
  107CHL1   C1014143   4.815   5.845  16.232  0.6467  0.8217  0.8519
  107CHL1   C1914144   4.904   5.717  16.247 -0.1547  0.7871  0.4925
  107CHL1  H19A14145   4.910   5.693  16.355  0.8819  2.5931  0.8703
  107CHL1  H19B14146   4.857   5.631  16.194  0.6502  1.7387 -1.9269
  107CHL1  H19C14147   5.007   5.730  16.208 -0.5252 -0.1907 -0.8892
  107CHL1    C114148   4.861   5.973  16.318  0.1798 -0.3381  0.6318
  107CHL1   H1A14149   4.961   6.013  16.287 -0.7869  2.0883  0.3760
  107CHL1   H1B14150   4.797   6.062  16.300  0.6243  0.1389  1.3717
  107CHL1    C214151   4.862   5.943  16.465  0.1325 -0.2563  0.0244
  107CHL1   H2A14152   4.894   6.040  16.510  0.4629 -0.0195 -0.7025
  107CHL1   H2B14153   4.922   5.857  16.501 -1.2137 -0.0047  3.1531
  107CHL1   C2014154   4.855   5.891  15.520 -0.2164  0.7205  0.1802
  107CHL1   H2014155   4.877   5.782  15.511  0.0697  0.8352 -0.6440
  107CHL1   C2114156   4.981   5.973  15.535  0.4122  0.2165  0.1889
  107CHL1  H21A14157   5.049   5.922  15.606 -1.3974 -0.6580  1.3426
  107CHL1  H21B14158   4.960   6.074  15.577 -0.4822  0.8628 -1.7026
  107CHL1  H21C14159   5.030   5.969  15.435 -0.9662 -2.6678 -0.4572
  107CHL1   C2214160   4.773   5.927  15.388 -0.2483 -0.0144 -0.0758
  107CHL1  H22A14161   4.820   5.875  15.302  0.0835 -1.7810  1.1238
  107CHL1  H22B14162   4.671   5.886  15.405  0.4312 -0.5776  3.1430
  107CHL1   C2314163   4.764   6.073  15.359 -0.5031  0.4110  0.2878
  107CHL1  H23A14164   4.731   6.130  15.448 -0.5952  1.0294 -0.1343
  107CHL1  H23B14165   4.868   6.103  15.332 -0.5929 -0.5600 -1.3069
  107CHL1   C2414166   4.682   6.094  15.237  0.3663 -0.4133  0.9086
  107CHL1  H24A14167   4.712   6.027  15.153  0.9866  1.1613 -0.1757
  107CHL1  H24B14168   4.581   6.055  15.263 -0.0043 -0.0389  0.0828
  107CHL1   C2514169   4.655   6.240  15.192  0.2222  0.3181  0.3981
  107CHL1   H2514170   4.612   6.301  15.273  0.8320 -0.9947  1.7551
  107CHL1   C2614171   4.787   6.309  15.146 -0.0631  0.7624 -0.3368
  107CHL1  H26A14172   4.855   6.328  15.232  0.7083  1.0091 -0.9811
  107CHL1  H26B14173   4.843   6.247  15.072  0.7784  1.1212 -0.0168
  107CHL1  H26C14174   4.763   6.410  15.108  1.1752  1.3245  0.3065
  107CHL1   C2714175   4.550   6.227  15.081 -0.2932  0.3974 -0.2264
  107CHL1  H27A14176   4.590   6.146  15.015 -1.8663  0.1545 -0.9359
  107CHL1  H27B14177   4.452   6.187  15.116  0.1369  1.3383  2.1921
  107CHL1  H27C14178   4.546   6.319  15.018 -1.2110 -0.0081 -0.7927
  108CHL1    C314179   6.903   1.517  16.393 -0.3131  0.3276 -0.1121
  108CHL1    H314180   7.011   1.509  16.369  0.7534  0.7233  3.8669
  108CHL1    O314181   6.891   1.541  16.530  0.0151 -0.1996 -0.1689
  108CHL1   H3'14182   6.942   1.474  16.576  0.2002  0.7324  1.0304
  108CHL1    C414183   6.832   1.621  16.310 -0.7921 -0.3664 -0.2423
  108CHL1   H4A14184   6.725   1.628  16.337 -1.1972  0.7418 -1.9716
  108CHL1   H4B14185   6.878   1.716  16.345  1.9771 -1.7068  0.0064
  108CHL1    C514186   6.843   1.597  16.164 -0.1459  0.3463  1.1697
  108CHL1    C614187   6.898   1.689  16.081 -0.7019  0.5080 -0.5971
  108CHL1    H614188   6.933   1.785  16.122  0.6291 -1.4206  3.2227
  108CHL1    C714189   6.916   1.665  15.932  0.3402 -0.6119 -0.2020
  108CHL1   H7A14190   6.897   1.761  15.880  2.5601 -0.6800 -1.2724
  108CHL1   H7B14191   7.015   1.617  15.911  0.1000 -1.2484  0.0972
  108CHL1    C814192   6.815   1.557  15.880 -0.2168 -0.0306 -0.1477
  108CHL1    H814193   6.716   1.606  15.877 -0.5711 -0.7538 -0.5366
  108CHL1   C1414194   6.862   1.527  15.735 -0.2027  0.4010 -0.6995
  108CHL1   H1414195   6.966   1.487  15.744  0.1746  1.3930 -0.5032
  108CHL1   C1514196   6.875   1.648  15.644 -0.1500 -0.1056 -0.2089
  108CHL1  H15A14197   6.789   1.716  15.656 -1.0987 -0.7928 -2.5538
  108CHL1  H15B14198   6.968   1.704  15.669  0.0445 -0.3387 -0.4085
  108CHL1   C1614199   6.866   1.582  15.507  0.0264  0.7991  0.0475
  108CHL1  H16A14200   6.776   1.625  15.459 -3.2936 -3.4564  1.7910
  108CHL1  H16B14201   6.950   1.595  15.436 -0.5436  0.6366 -0.6649
  108CHL1   C1714202   6.838   1.423  15.531  0.1263  0.0186  0.1145
  108CHL1   H1714203   6.938   1.375  15.538  0.0379 -0.0628  1.0210
  108CHL1   C1314204   6.773   1.418  15.667 -0.5394 -0.0433  0.2100
  108CHL1   C1814205   6.629   1.468  15.667  0.2100 -0.1171 -0.4854
  108CHL1  H18A14206   6.619   1.559  15.606 -0.5686  0.5973  0.6628
  108CHL1  H18B14207   6.555   1.396  15.624  1.6636 -0.0526 -3.2440
  108CHL1  H18C14208   6.580   1.496  15.763 -0.1051  0.9943 -0.9558
  108CHL1   C1214209   6.789   1.291  15.749 -0.0198  0.8111 -0.1569
  108CHL1  H12A14210   6.729   1.216  15.694  0.1418  1.3778 -1.1349
  108CHL1  H12B14211   6.896   1.259  15.746 -0.2788 -0.1479  0.5758
  108CHL1   C1114212   6.760   1.310  15.902 -0.4984 -0.0099  0.2812
  108CHL1  H11A14213   6.649   1.313  15.905 -0.5072 -0.0379  0.0390
  108CHL1  H11B14214   6.806   1.226  15.958  3.4812  0.5067 -1.8931
  108CHL1    C914215   6.826   1.432  15.963 -0.0309 -0.3875 -0.1557
  108CHL1    H914216   6.934   1.407  15.953  0.0414 -0.5315  0.8927
  108CHL1   C1014217   6.796   1.461  16.117  0.6279  0.9493  0.6009
  108CHL1   C1914218   6.634   1.463  16.125  0.0293 -0.1289 -0.6705
  108CHL1  H19A14219   6.592   1.538  16.054  0.0031 -2.3444 -3.1527
  108CHL1  H19B14220   6.598   1.370  16.077  0.8361  0.3043 -2.1858
  108CHL1  H19C14221   6.592   1.456  16.228 -2.9653 -0.1941 -1.8015
  108CHL1    C114222   6.851   1.348  16.208 -0.2113  0.1160 -0.8874
  108CHL1   H1A14223   6.791   1.258  16.183  0.2297 -0.1118 -1.1292
  108CHL1   H1B14224   6.961   1.348  16.189  0.1084  1.8084  0.6705
  108CHL1    C214225   6.845   1.377  16.359  0.3850 -0.1896  0.2735
  108CHL1   H2A14226   6.882   1.295  16.425 -1.2229 -1.8418 -0.7708
  108CHL1   H2B14227   6.737   1.384  16.382  0.0772  1.0174 -1.3963
  108CHL1   C2014228   6.763   1.349  15.416  0.7566  0.6486 -0.0422
  108CHL1   H2014229   6.654   1.351  15.436  0.9456 -1.1307  1.3341
  108CHL1   C2114230   6.813   1.199  15.412 -0.2841  0.7583  0.5203
  108CHL1  H21A14231   6.820   1.145  15.509 -2.1142 -2.5705 -1.0392
  108CHL1  H21B14232   6.912   1.189  15.363 -0.6424  0.3490 -0.1291
  108CHL1  H21C14233   6.743   1.138  15.351  2.6683 -1.3106 -1.1029
  108CHL1   C2214234   6.788   1.415  15.277  0.4301 -0.1040  0.2199
  108CHL1  H22A14235   6.762   1.522  15.287 -1.1060 -0.5360  1.2869
  108CHL1  H22B14236   6.898   1.411  15.264  0.2114 -1.2061 -1.4994
  108CHL1   C2314237   6.720   1.342  15.160 -0.1983  0.5180  0.4226
  108CHL1  H23A14238   6.773   1.248  15.136 -1.7718 -0.7922  1.8286
  108CHL1  H23B14239   6.619   1.315  15.197 -0.4004 -0.0774 -0.5144
  108CHL1   C2414240   6.708   1.425  15.031 -0.2352  0.5753 -0.0466
  108CHL1  H24A14241   6.644   1.511  15.063 -0.3094  0.5894 -0.2272
  108CHL1  H24B14242   6.807   1.467  15.005  1.1438 -1.7315  1.1572
  108CHL1   C2514243   6.650   1.360  14.904  0.1625  0.0781 -0.0520
  108CHL1   H2514244   6.547   1.322  14.921  0.4460 -1.2859 -1.1487
  108CHL1   C2614245   6.657   1.451  14.785  0.1338  0.7516 -0.1498
  108CHL1  H26A14246   6.762   1.485  14.773  1.3612 -1.3197  3.3698
  108CHL1  H26B14247   6.629   1.396  14.693  0.8045  0.4653 -0.1875
  108CHL1  H26C14248   6.593   1.542  14.789  0.0278  0.7185 -0.8567
  108CHL1   C2714249   6.726   1.225  14.874  0.9468 -0.3501 -0.0257
  108CHL1  H27A14250   6.665   1.170  14.799  0.2803 -0.5829  0.6770
  108CHL1  H27B14251   6.826   1.234  14.825  1.0232  0.3085  0.2376
  108CHL1  H27C14252   6.738   1.155  14.959  3.5483 -2.1164 -1.7160
  109CHL1    C314253   2.876   4.704  16.446 -0.0766  0.1060  0.5711
  109CHL1    H314254   2.975   4.689  16.398 -0.8674  1.5325 -1.6662
  109CHL1    O314255   2.855   4.620  16.560  0.1991 -0.0587  0.3651
  109CHL1   H3'14256   2.860   4.533  16.520  0.6555  0.5966 -1.0693
  109CHL1    C414257   2.881   4.849  16.490  0.2186  0.3877 -0.0061
  109CHL1   H4A14258   2.783   4.876  16.536 -0.4779 -0.9043 -0.6575
  109CHL1   H4B14259   2.957   4.860  16.570 -0.1442  1.7224  0.1683
  109CHL1    C514260   2.903   4.930  16.358  0.2378  0.3074  0.2467
  109CHL1    C614261   3.012   5.012  16.346 -0.2141  0.5651 -0.1032
  109CHL1    H614262   3.082   5.012  16.431 -0.6026  0.9464  0.2216
  109CHL1    C714263   3.054   5.095  16.226  0.4646  0.0469 -0.3555
  109CHL1   H7A14264   3.082   5.197  16.260 -1.3771  0.7247 -0.7482
  109CHL1   H7B14265   3.141   5.052  16.171  3.2150  2.3311  1.9292
  109CHL1    C814266   2.924   5.113  16.138  0.1497 -0.4497  0.1752
  109CHL1    H814267   2.847   5.185  16.172  0.3115  0.5315 -1.4284
  109CHL1   C1414268   2.976   5.161  16.004 -0.6388 -0.6423  0.3220
  109CHL1   H1414269   3.053   5.091  15.965 -0.3891 -0.5195  0.5919
  109CHL1   C1514270   3.041   5.304  16.008  0.0522  0.7598  0.4522
  109CHL1  H15A14271   2.966   5.359  16.069  0.5912 -1.7038  3.6208
  109CHL1  H15B14272   3.141   5.310  16.056  0.2685  1.2395 -0.0368
  109CHL1   C1614273   3.033   5.343  15.858 -0.0993  0.4313  0.4108
  109CHL1  H16A14274   2.989   5.444  15.848 -1.2081 -0.0726  0.0544
  109CHL1  H16B14275   3.140   5.349  15.826  0.1052 -1.5415  0.5644
  109CHL1   C1714276   2.965   5.235  15.773 -0.4277  0.6414 -0.4421
  109CHL1   H1714277   3.038   5.158  15.742  2.9199  2.5413  2.0745
  109CHL1   C1314278   2.873   5.174  15.885 -1.1182  0.9845 -0.1608
  109CHL1   C1814279   2.755   5.278  15.910  0.0482  0.0849 -0.9424
  109CHL1  H18A14280   2.681   5.268  15.828 -0.0343 -0.2468 -0.8273
  109CHL1  H18B14281   2.713   5.242  16.006  2.5398 -0.1306  0.1292
  109CHL1  H18C14282   2.786   5.384  15.916 -0.2404  0.1175  0.0929
  109CHL1   C1214283   2.806   5.034  15.864  0.0769  0.3608 -0.2806
  109CHL1  H12A14284   2.732   5.025  15.782 -3.7894 -1.0363  3.0812
  109CHL1  H12B14285   2.890   4.962  15.846  0.3993  0.4175  0.9329
  109CHL1   C1114286   2.744   4.976  15.995  0.2976  0.6530  0.0432
  109CHL1  H11A14287   2.657   5.039  16.021 -1.6911 -1.7333 -0.4719
  109CHL1  H11B14288   2.704   4.874  15.978  0.2424  0.9295 -1.6559
  109CHL1    C914289   2.851   4.973  16.113  0.0381  0.4474  0.1231
  109CHL1    H914290   2.926   4.905  16.068  2.1511  0.1209  3.7250
  109CHL1   C1014291   2.802   4.904  16.246  0.0416  0.0273 -0.1142
  109CHL1   C1914292   2.672   4.978  16.284  0.2543 -0.3134 -0.2923
  109CHL1  H19A14293   2.681   5.088  16.301 -0.9381 -0.2913  0.3119
  109CHL1  H19B14294   2.592   4.967  16.208 -0.4664  0.0055  0.4050
  109CHL1  H19C14295   2.629   4.939  16.379 -0.2552  0.4813 -0.1830
  109CHL1    C114296   2.780   4.755  16.214 -0.1213 -0.0451  0.1055
  109CHL1   H1A14297   2.690   4.738  16.151  0.8253  2.7983 -2.2596
  109CHL1   H1B14298   2.863   4.712  16.155  0.1108 -0.4643  0.7265
  109CHL1    C214299   2.765   4.672  16.339  0.4491  0.3989 -0.0886
  109CHL1   H2A14300   2.764   4.568  16.299 -0.4643  0.4927 -0.3282
  109CHL1   H2B14301   2.662   4.682  16.381 -0.8417  1.9604 -3.2984
  109CHL1   C2014302   2.894   5.290  15.641 -0.1427  0.1239  0.1836
  109CHL1   H2014303   2.823   5.366  15.681  0.3625  0.8661 -0.3043
  109CHL1   C2114304   2.830   5.178  15.567 -0.0400  0.7303  0.0976
  109CHL1  H21A14305   2.737   5.147  15.621  0.7716  1.5453  2.0733
  109CHL1  H21B14306   2.894   5.089  15.559 -0.8369  0.1459  0.0829
  109CHL1  H21C14307   2.800   5.204  15.463  0.7948  0.8056 -0.1326
  109CHL1   C2214308   2.994   5.366  15.554  0.1980  0.2512  0.1379
  109CHL1  H22A14309   2.935   5.415  15.474  0.5118  1.0272  0.3696
  109CHL1  H22B14310   3.035   5.450  15.614 -1.6198  0.5874  0.9694
  109CHL1   C2314311   3.124   5.288  15.511  0.6000  0.3729  0.9302
  109CHL1  H23A14312   3.183   5.250  15.597  0.5267 -0.4654  0.6205
  109CHL1  H23B14313   3.100   5.202  15.444  0.1462 -0.1169  1.7115
  109CHL1   C2414314   3.215   5.392  15.437  0.3845  0.3112  0.3500
  109CHL1  H24A14315   3.160   5.435  15.351 -1.4779  4.2151  3.2181
  109CHL1  H24B14316   3.225   5.478  15.506 -1.1641  0.7217  0.1101
  109CHL1   C2514317   3.359   5.347  15.391 -0.0293 -0.3805  0.5548
  109CHL1   H2514318   3.409   5.311  15.484 -0.3619 -0.4444  0.7095
  109CHL1   C2614319   3.361   5.231  15.282  0.2732  0.0990  0.2197
  109CHL1  H26A14320   3.308   5.137  15.309  0.0481 -0.0142 -0.5843
  109CHL1  H26B14321   3.327   5.272  15.184 -0.6183 -1.8362 -0.3190
  109CHL1  H26C14322   3.466   5.200  15.266  0.2590  0.4482 -0.5802
  109CHL1   C2714323   3.424   5.475  15.333 -0.7615  0.5501  0.4924
  109CHL1  H27A14324   3.399   5.564  15.396 -0.1745  0.3231  1.0561
  109CHL1  H27B14325   3.534   5.470  15.320 -0.7570 -0.6032  0.8977
  109CHL1  H27C14326   3.383   5.499  15.233 -0.1632 -0.5052 -0.0176
  110CHL1    C314327   1.271   3.969  16.561 -0.0517 -0.1554 -0.0051
  110CHL1    H314328   1.201   3.885  16.543  2.2480 -2.4574  1.2516
  110CHL1    O314329   1.284   3.989  16.704 -0.3172 -0.2757  0.5761
  110CHL1   H3'14330   1.371   4.027  16.714  0.0488  0.1742 -2.9430
  110CHL1    C414331   1.410   3.939  16.496 -0.0777  0.3931 -0.4088
  110CHL1   H4A14332   1.470   4.028  16.526  1.1990 -0.9713  1.2186
  110CHL1   H4B14333   1.454   3.862  16.562 -0.5650  0.8516  0.4788
  110CHL1    C514334   1.416   3.913  16.352 -0.7087 -0.0376  0.0303
  110CHL1    C614335   1.466   3.802  16.300  0.3242 -0.1926  0.1329
  110CHL1    H614336   1.506   3.727  16.370  1.8277  0.5108  0.0686
  110CHL1    C714337   1.467   3.780  16.154 -0.6934  0.1243  0.3829
  110CHL1   H7A14338   1.565   3.740  16.122 -0.3288  0.8546  0.5798
  110CHL1   H7B14339   1.388   3.706  16.129 -1.1048 -0.3483  2.7655
  110CHL1    C814340   1.440   3.907  16.066 -0.1415  0.4421  0.5131
  110CHL1    H814341   1.533   3.967  16.066  1.4002 -1.7488  2.3188
  110CHL1   C1414342   1.407   3.862  15.924  0.1273  0.1944 -0.2998
  110CHL1   H1414343   1.311   3.807  15.927  0.3781 -0.1838  1.5550
  110CHL1   C1514344   1.502   3.760  15.865  0.4351 -0.3250 -0.0549
  110CHL1  H15A14345   1.604   3.788  15.897 -1.0481  2.0859  3.1077
  110CHL1  H15B14346   1.468   3.657  15.891 -3.1318  0.7478  0.0451
  110CHL1   C1614347   1.487   3.784  15.711 -0.4089  0.5876 -0.6524
  110CHL1  H16A14348   1.595   3.799  15.693 -0.0530 -0.1562  0.7382
  110CHL1  H16B14349   1.444   3.687  15.678 -1.0717 -0.7610  3.4946
  110CHL1   C1714350   1.382   3.893  15.698 -0.1968  0.4139  1.0244
  110CHL1   H1714351   1.283   3.845  15.703 -0.5187  1.0861  1.2134
  110CHL1   C1314352   1.384   3.977  15.827 -0.2099  0.2168  0.6602
  110CHL1   C1814353   1.504   4.077  15.809  0.6172 -0.4773 -0.3097
  110CHL1  H18A14354   1.473   4.169  15.755  1.4112  0.8734  1.4526
  110CHL1  H18B14355   1.535   4.112  15.909 -2.4597  0.3267  0.4600
  110CHL1  H18C14356   1.595   4.027  15.768  0.5189 -0.5667 -0.4198
  110CHL1   C1214357   1.260   4.063  15.866  0.2427  0.3610 -0.2775
  110CHL1  H12A14358   1.234   4.148  15.798 -0.1897  0.4680  0.0126
  110CHL1  H12B14359   1.176   3.991  15.864 -0.0976  0.4967  3.0768
  110CHL1   C1114360   1.268   4.098  16.016  0.0790  0.1426 -0.6120
  110CHL1  H11A14361   1.336   4.184  16.029 -1.0524  0.7423  2.0079
  110CHL1  H11B14362   1.168   4.133  16.052  0.8461  1.0621  0.6865
  110CHL1    C914363   1.320   3.990  16.118  0.1904 -0.0431 -0.2181
  110CHL1    H914364   1.236   3.919  16.131  0.9942 -0.7749  1.1948
  110CHL1   C1014365   1.346   4.021  16.264 -0.3545 -0.2576 -0.3004
  110CHL1   C1914366   1.436   4.147  16.280  0.4466 -0.0313 -0.3962
  110CHL1  H19A14367   1.457   4.168  16.387 -0.6726 -1.7379  0.2019
  110CHL1  H19B14368   1.533   4.138  16.226 -0.1813 -0.9486 -1.4388
  110CHL1  H19C14369   1.381   4.233  16.238  0.6301  0.1393 -0.2850
  110CHL1    C114370   1.203   4.060  16.330 -0.2398  0.3668 -0.7829
  110CHL1   H1A14371   1.160   4.142  16.269 -1.1604  0.5662  0.1064
  110CHL1   H1B14372   1.140   3.969  16.321  1.3921 -0.7553 -1.3520
  110CHL1    C214373   1.213   4.092  16.487 -0.2802  0.1388  1.2482
  110CHL1   H2A14374   1.116   4.122  16.532 -0.4015  1.4308  0.2076
  110CHL1   H2B14375   1.277   4.182  16.501  1.8094 -0.9298 -0.7037
  110CHL1   C2014376   1.385   3.961  15.558  0.5265 -0.0776  1.0558
  110CHL1   H2014377   1.473   4.028  15.553 -0.0053  0.5396 -2.5617
  110CHL1   C2114378   1.266   4.055  15.545 -0.2541 -0.5408  0.7046
  110CHL1  H21A14379   1.274   4.146  15.609  2.5826 -1.1488  1.3119
  110CHL1  H21B14380   1.165   4.009  15.538 -1.0748  1.3104 -0.7705
  110CHL1  H21C14381   1.283   4.112  15.451  1.2594 -2.4290 -0.2335
  110CHL1   C2214382   1.386   3.867  15.432  0.4686  0.3395  0.2227
  110CHL1  H22A14383   1.474   3.803  15.453  2.2877  2.1047 -1.6463
  110CHL1  H22B14384   1.292   3.811  15.415  1.4301 -1.8800  1.6885
  110CHL1   C2314385   1.419   3.937  15.296 -0.6754  0.5114 -0.4407
  110CHL1  H23A14386   1.328   3.991  15.263 -0.8789  0.1977 -0.3922
  110CHL1  H23B14387   1.495   4.015  15.318 -1.3501  0.7425  1.1789
  110CHL1   C2414388   1.449   3.832  15.187  0.5259 -0.3848 -0.6797
  110CHL1  H24A14389   1.499   3.742  15.230  1.7598 -0.3351 -1.9203
  110CHL1  H24B14390   1.353   3.792  15.148  0.5762 -0.3620 -0.8280
  110CHL1   C2514391   1.525   3.883  15.066 -0.2509  0.9704  0.2504
  110CHL1   H2514392   1.528   3.802  14.989 -1.4374  0.3214  0.8721
  110CHL1   C2614393   1.462   4.007  15.000  0.5381  0.2633 -0.3358
  110CHL1  H26A14394   1.355   3.986  14.977  0.7958  1.1327 -2.5372
  110CHL1  H26B14395   1.469   4.101  15.060  2.0150 -0.8543  1.3597
  110CHL1  H26C14396   1.507   4.019  14.900 -0.2209 -2.0302 -0.9913
  110CHL1   C2714397   1.674   3.921  15.104 -0.4327  0.6035 -0.0618
  110CHL1  H27A14398   1.727   3.838  15.155 -0.1850  1.6155  1.3954
  110CHL1  H27B14399   1.724   3.951  15.009 -0.9325 -0.8426 -0.8180
  110CHL1  H27C14400   1.670   4.003  15.178 -0.8643 -0.9086  1.6464
  111CHL1    C314401   3.873   6.714  16.511  0.1492 -0.3531  0.0658
  111CHL1    H314402   3.866   6.822  16.482  1.2415 -0.1532  0.4997
  111CHL1    O314403   3.811   6.700  16.637  0.0858 -1.0588  0.6348
  111CHL1   H3'14404   3.814   6.607  16.661 -3.4844 -1.3554  0.5133
  111CHL1    C414405   3.794   6.625  16.410  0.5794 -1.1230 -0.2530
  111CHL1   H4A14406   3.794   6.519  16.445 -2.2006 -0.7958  1.0162
  111CHL1   H4B14407   3.685   6.645  16.404  0.0815 -3.0197  1.2408
  111CHL1    C514408   3.860   6.645  16.274  0.2741  0.4664  0.3156
  111CHL1    C614409   3.785   6.694  16.175 -0.3866  0.1525 -0.0584
  111CHL1    H614410   3.678   6.717  16.190 -0.5456  1.5624 -2.7751
  111CHL1    C714411   3.829   6.718  16.031 -0.7009  0.4518  0.0521
  111CHL1   H7A14412   3.762   6.672  15.956 -0.7012  0.9920 -0.2823
  111CHL1   H7B14413   3.829   6.823  15.994 -0.1534  0.0084 -1.2410
  111CHL1    C814414   3.975   6.657  16.012 -0.0083  0.1747 -0.4265
  111CHL1    H814415   3.965   6.546  16.009  2.1513 -0.0506 -0.9398
  111CHL1   C1414416   4.035   6.693  15.874 -0.0197 -0.0008 -0.3902
  111CHL1   H1414417   4.058   6.801  15.875 -1.7208  0.3910  0.3365
  111CHL1   C1514418   3.955   6.657  15.753 -0.1691 -0.5575  0.1580
  111CHL1  H15A14419   3.930   6.550  15.770 -0.3877 -0.3847  0.9628
  111CHL1  H15B14420   3.863   6.713  15.727  0.6261  1.1025  0.7619
  111CHL1   C1614421   4.061   6.674  15.643  0.2792  1.1241  0.2505
  111CHL1  H16A14422   4.037   6.587  15.577  0.8907 -0.4428  2.0055
  111CHL1  H16B14423   4.043   6.765  15.582  1.2267 -0.2019 -2.1388
  111CHL1   C1714424   4.203   6.678  15.710 -0.2527 -0.3669 -0.3101
  111CHL1   H1714425   4.243   6.781  15.706 -0.3895 -0.3388 -1.1971
  111CHL1   C1314426   4.173   6.640  15.859 -0.6825 -0.1605 -0.5666
  111CHL1   C1814427   4.180   6.490  15.867  0.1685  0.2582  0.3670
  111CHL1  H18A14428   4.149   6.446  15.769  1.7771 -1.5293  0.6227
  111CHL1  H18B14429   4.282   6.453  15.887 -0.4451 -1.4438  0.4959
  111CHL1  H18C14430   4.106   6.446  15.937  0.1411  1.2195  0.9605
  111CHL1   C1214431   4.257   6.712  15.963 -0.0543 -0.2809  0.2409
  111CHL1  H12A14432   4.364   6.698  15.939 -0.8065 -1.6184 -2.8060
  111CHL1  H12B14433   4.239   6.821  15.965 -0.2499 -0.3152  1.0390
  111CHL1   C1114434   4.220   6.664  16.105  0.2174  0.9554  0.4307
  111CHL1  H11A14435   4.250   6.558  16.111 -1.6924  0.4778  3.1048
  111CHL1  H11B14436   4.281   6.722  16.177 -1.2518  1.2242  1.5075
  111CHL1    C914437   4.070   6.688  16.133 -0.5609 -0.0558  0.7607
  111CHL1    H914438   4.060   6.798  16.146  0.7852  0.1487  0.2630
  111CHL1   C1014439   4.015   6.624  16.264  0.0708 -0.0682 -0.6664
  111CHL1   C1914440   4.035   6.470  16.276 -0.0242  0.0237 -0.0422
  111CHL1  H19A14441   3.993   6.428  16.370  1.8820  0.5414  1.0926
  111CHL1  H19B14442   3.984   6.410  16.198 -0.9808  0.6076  0.1221
  111CHL1  H19C14443   4.144   6.449  16.280 -0.0810 -0.1909  0.6199
  111CHL1    C114444   4.079   6.694  16.389 -0.3911 -0.5928 -0.2020
  111CHL1   H1A14445   4.175   6.643  16.408 -0.6844 -1.7608 -1.6137
  111CHL1   H1B14446   4.093   6.803  16.369  1.5633 -1.0831 -1.8474
  111CHL1    C214447   4.014   6.674  16.530  0.3774  0.3891  0.4025
  111CHL1   H2A14448   4.056   6.736  16.613 -0.8896 -0.0303  1.3892
  111CHL1   H2B14449   4.003   6.568  16.559 -3.6753  0.2525 -0.9477
  111CHL1   C2014450   4.309   6.600  15.626  0.2238  0.1672  0.3494
  111CHL1   H2014451   4.296   6.490  15.639  2.3885 -0.0102  1.6685
  111CHL1   C2114452   4.447   6.625  15.694  0.3993  0.1080 -0.0154
  111CHL1  H21A14453   4.532   6.574  15.644  0.6264 -1.7593  2.1313
  111CHL1  H21B14454   4.444   6.580  15.795  2.1283  0.2626  0.1328
  111CHL1  H21C14455   4.468   6.733  15.708  0.5315 -0.0522  1.0814
  111CHL1   C2214456   4.310   6.636  15.478 -0.9156  0.1085  0.7273
  111CHL1  H22A14457   4.208   6.654  15.438 -0.9113 -1.0173  0.1588
  111CHL1  H22B14458   4.355   6.737  15.474  0.5443 -0.5570 -0.8829
  111CHL1   C2314459   4.384   6.555  15.376  0.3990  0.3927 -0.2380
  111CHL1  H23A14460   4.490   6.553  15.408  1.4048  1.7278 -3.1714
  111CHL1  H23B14461   4.344   6.451  15.381  1.2655  0.0656  0.0129
  111CHL1   C2414462   4.372   6.612  15.235 -0.6612 -0.7873  0.1534
  111CHL1  H24A14463   4.392   6.722  15.243 -3.4101 -0.1929 -0.1553
  111CHL1  H24B14464   4.435   6.561  15.159 -1.8868 -0.8653 -0.8456
  111CHL1   C2514465   4.241   6.593  15.164 -0.1380  0.9280  0.3695
  111CHL1   H2514466   4.158   6.632  15.227 -0.4229 -0.7204  1.0552
  111CHL1   C2614467   4.248   6.666  15.023  0.7262 -0.5927  0.3027
  111CHL1  H26A14468   4.145   6.663  14.980  0.4110  1.5815  0.8112
  111CHL1  H26B14469   4.268   6.775  15.033 -1.9551  0.2021 -1.8493
  111CHL1  H26C14470   4.321   6.621  14.953  1.3685  0.7784  0.0627
  111CHL1   C2714471   4.211   6.443  15.145 -0.3951  0.5809  0.1378
  111CHL1  H27A14472   4.116   6.433  15.089 -0.8131  4.0729 -0.0423
  111CHL1  H27B14473   4.295   6.387  15.098  0.7338  3.0230 -0.9381
  111CHL1  H27C14474   4.198   6.403  15.248  1.7615  1.0559  0.6527
  112CHL1    C314475   4.939   7.335  16.377  0.3017  0.1923  0.1040
  112CHL1    H314476   5.046   7.362  16.362  0.0887  1.1721  0.2806
  112CHL1    O314477   4.924   7.241  16.488 -0.1350 -0.6398  0.0975
  112CHL1   H3'14478   4.834   7.252  16.518  0.3384 -0.6429  1.5836
  112CHL1    C414479   4.859   7.469  16.396  0.3624 -0.2178 -0.2161
  112CHL1   H4A14480   4.769   7.454  16.460  1.1668 -1.1557  0.7287
  112CHL1   H4B14481   4.928   7.527  16.460  0.1210 -0.6677  0.4645
  112CHL1    C514482   4.826   7.543  16.268 -0.6434 -1.1858 -0.3644
  112CHL1    C614483   4.866   7.667  16.264  0.7663  0.0133  0.2711
  112CHL1    H614484   4.908   7.716  16.353  0.5796  1.5071 -0.4431
  112CHL1    C714485   4.841   7.748  16.139 -0.1372  0.7409  0.0791
  112CHL1   H7A14486   4.791   7.843  16.170 -1.0031  0.3111  0.0373
  112CHL1   H7B14487   4.938   7.778  16.094 -0.5428 -1.1389 -2.2444
  112CHL1    C814488   4.752   7.680  16.030  0.1574 -0.2886 -0.3059
  112CHL1    H814489   4.644   7.682  16.058  0.4557  1.2689  0.8329
  112CHL1   C1414490   4.768   7.751  15.891 -0.3529  0.3223  0.0999
  112CHL1   H1414491   4.876   7.745  15.864 -0.3270 -0.8858  0.4082
  112CHL1   C1514492   4.747   7.906  15.884  0.3683  0.7593 -0.1539
  112CHL1  H15A14493   4.651   7.924  15.937 -1.5439  2.4535 -3.8499
  112CHL1  H15B14494   4.834   7.955  15.932  0.9157 -0.0430 -0.3000
  112CHL1   C1614495   4.734   7.936  15.735  0.3581 -0.0239  0.4720
  112CHL1  H16A14496   4.651   8.004  15.710  2.5379  1.5704 -3.3112
  112CHL1  H16B14497   4.826   7.989  15.702  0.5673 -0.5823  0.1392
  112CHL1   C1714498   4.725   7.792  15.666 -0.2739  0.4227  0.7229
  112CHL1   H1714499   4.827   7.761  15.635 -0.1444  2.6312 -1.4378
  112CHL1   C1314500   4.693   7.691  15.774  0.7936 -0.6060 -0.0969
  112CHL1   C1814501   4.542   7.697  15.802  0.3291 -0.5991  0.4035
  112CHL1  H18A14502   4.491   7.791  15.774  2.9483  0.2850 -1.9391
  112CHL1  H18B14503   4.485   7.607  15.770  0.5880 -0.4077 -0.6620
  112CHL1  H18C14504   4.528   7.704  15.912  0.1901  1.5478  0.2869
  112CHL1   C1214505   4.742   7.544  15.759  0.5470  0.7352 -0.0746
  112CHL1  H12A14506   4.696   7.482  15.679  1.0338 -0.6262  0.6622
  112CHL1  H12B14507   4.848   7.528  15.729  0.7170 -0.3628  1.0057
  112CHL1   C1114508   4.714   7.469  15.890  0.0244  0.7958 -0.8318
  112CHL1  H11A14509   4.605   7.449  15.899  0.3120  0.1419  2.2524
  112CHL1  H11B14510   4.767   7.372  15.878 -0.6578  0.0955  1.4341
  112CHL1    C914511   4.785   7.536  16.015  0.1502  0.2685  0.2363
  112CHL1    H914512   4.891   7.542  15.983  0.2367  0.8720  0.6034
  112CHL1   C1014513   4.781   7.461  16.149 -0.0977  0.0440  0.6343
  112CHL1   C1914514   4.638   7.410  16.178  0.1258 -0.0621  0.4677
  112CHL1  H19A14515   4.564   7.488  16.149 -0.4880 -0.4570  0.9511
  112CHL1  H19B14516   4.620   7.323  16.112  1.3237 -1.6326  2.1165
  112CHL1  H19C14517   4.619   7.375  16.282  1.5730 -0.3918  0.6441
  112CHL1    C114518   4.883   7.342  16.134 -0.2766  0.1519 -0.2672
  112CHL1   H1A14519   4.854   7.272  16.053 -1.0875 -1.2764  1.2107
  112CHL1   H1B14520   4.990   7.363  16.110  0.3177 -2.9359 -0.7302
  112CHL1    C214521   4.882   7.257  16.262 -0.2694 -0.7314  0.5882
  112CHL1   H2A14522   4.928   7.157  16.247  1.5053  0.1381  0.0071
  112CHL1   H2B14523   4.778   7.226  16.288 -1.1865  1.9347  0.4072
  112CHL1   C2014524   4.647   7.792  15.532  0.3468  0.8081  0.0019
  112CHL1   H2014525   4.552   7.840  15.562  1.1499  1.5794  1.4487
  112CHL1   C2114526   4.622   7.646  15.480 -0.1365  0.4003 -0.0359
  112CHL1  H21A14527   4.580   7.659  15.378  2.7713  2.6144 -1.1093
  112CHL1  H21B14528   4.559   7.593  15.554 -1.8064  1.8866 -0.3043
  112CHL1  H21C14529   4.719   7.596  15.457 -0.6774  0.0120 -1.6006
  112CHL1   C2214530   4.709   7.875  15.420  0.1966 -0.1192 -0.1281
  112CHL1  H22A14531   4.761   7.964  15.461  1.2496 -0.5725 -0.4377
  112CHL1  H22B14532   4.790   7.816  15.371  2.7463  1.6890  1.6442
  112CHL1   C2314533   4.609   7.909  15.312 -0.8322  0.2384  0.4943
  112CHL1  H23A14534   4.585   7.815  15.258  0.1755  0.8214 -1.0541
  112CHL1  H23B14535   4.520   7.958  15.356 -1.0023 -0.5553  1.0639
  112CHL1   C2414536   4.676   7.993  15.200 -0.1466  0.0693  0.2957
  112CHL1  H24A14537   4.734   8.074  15.248 -2.8985  1.4696  1.4880
  112CHL1  H24B14538   4.743   7.935  15.132 -1.2180 -2.6708  1.3997
  112CHL1   C2514539   4.572   8.062  15.111 -0.4849  0.6020  0.1094
  112CHL1   H2514540   4.622   8.102  15.020  1.2514 -0.0334  0.7511
  112CHL1   C2614541   4.453   7.965  15.083 -0.4345 -0.2890  0.3883
  112CHL1  H26A14542   4.378   8.011  15.015  2.6316  1.8866 -1.7933
  112CHL1  H26B14543   4.496   7.873  15.039 -0.0457  1.7367 -3.9785
  112CHL1  H26C14544   4.405   7.939  15.179 -1.5512  2.8857  0.8100
  112CHL1   C2714545   4.524   8.198  15.172  0.6931  0.0872  0.4650
  112CHL1  H27A14546   4.460   8.254  15.100  0.5680 -1.3113 -0.5583
  112CHL1  H27B14547   4.455   8.163  15.251  0.0926 -2.0799 -0.9403
  112CHL1  H27C14548   4.601   8.266  15.214  0.0004  1.0365  0.2378
  113CHL1    C314549   1.122   3.291  16.603 -0.6646  0.2689 -0.8452
  113CHL1    H314550   1.231   3.276  16.621 -0.3667  1.0220 -1.9368
  113CHL1    O314551   1.055   3.308  16.732 -0.1640  0.2247  0.1391
  113CHL1   H3'14552   1.034   3.220  16.765  1.0597 -0.1753 -0.0954
  113CHL1    C414553   1.108   3.415  16.508 -0.3424  0.0603 -0.0912
  113CHL1   H4A14554   1.002   3.446  16.496  0.5480  2.4249 -3.8608
  113CHL1   H4B14555   1.169   3.499  16.547 -0.1790 -0.5667  1.0349
  113CHL1    C514556   1.162   3.381  16.369  0.2701 -0.1763  0.4018
  113CHL1    C614557   1.240   3.470  16.300  0.0007  0.2904  0.0500
  113CHL1    H614558   1.272   3.567  16.342 -1.8008  1.4269 -1.0361
  113CHL1    C714559   1.275   3.450  16.156  0.1573  0.2664 -0.0331
  113CHL1   H7A14560   1.221   3.527  16.096  0.4982 -0.0372 -0.7461
  113CHL1   H7B14561   1.384   3.433  16.142  0.4860  0.5471  1.9682
  113CHL1    C814562   1.210   3.323  16.086 -0.0864  0.8954  0.3622
  113CHL1    H814563   1.112   3.354  16.042  1.1882  1.1690 -2.5192
  113CHL1   C1414564   1.295   3.268  15.968  0.0570 -0.3377  0.3093
  113CHL1   H1414565   1.378   3.233  16.032  1.8452  1.8816 -0.6651
  113CHL1   C1514566   1.356   3.368  15.861  0.4079  0.6390 -0.2799
  113CHL1  H15A14567   1.292   3.456  15.841 -0.7805  0.0151  0.6190
  113CHL1  H15B14568   1.455   3.407  15.892  1.0215 -1.7932  1.0885
  113CHL1   C1614569   1.368   3.290  15.734  0.1646 -0.3994  0.4322
  113CHL1  H16A14570   1.299   3.320  15.652  2.6316  0.9852 -1.2991
  113CHL1  H16B14571   1.468   3.296  15.685  0.3471 -2.8047  0.3750
  113CHL1   C1714572   1.325   3.145  15.770  0.5774 -0.0119 -0.3067
  113CHL1   H1714573   1.413   3.097  15.818  0.3257 -0.9806 -0.7824
  113CHL1   C1314574   1.228   3.157  15.887  0.4565  0.2241 -0.5821
  113CHL1   C1814575   1.097   3.211  15.835 -0.1147  0.3686 -0.2883
  113CHL1  H18A14576   1.112   3.311  15.789  0.9175  1.5696  2.4165
  113CHL1  H18B14577   1.046   3.140  15.767 -0.2908  2.1142 -2.0793
  113CHL1  H18C14578   1.022   3.222  15.916 -2.3403 -2.7964 -1.7320
  113CHL1   C1214579   1.204   3.033  15.981 -0.2020 -0.0962  0.6480
  113CHL1  H12A14580   1.150   2.953  15.927  0.3340  1.2908 -2.0990
  113CHL1  H12B14581   1.299   2.993  16.021 -0.5710 -1.4305  0.2185
  113CHL1   C1114582   1.122   3.075  16.105 -0.4442 -0.3622 -0.2132
  113CHL1  H11A14583   1.013   3.080  16.084 -0.9234  2.0710  2.3271
  113CHL1  H11B14584   1.126   2.999  16.185  0.4117 -1.4617 -1.2626
  113CHL1    C914585   1.182   3.204  16.177 -0.1763 -1.4770 -0.0885
  113CHL1    H914586   1.278   3.173  16.222 -0.7190 -0.0749  2.1504
  113CHL1   C1014587   1.105   3.251  16.306 -0.3000 -0.7050  0.3030
  113CHL1   C1914588   0.966   3.278  16.266  0.0638  0.2597 -0.2898
  113CHL1  H19A14589   0.972   3.350  16.182  0.4709 -1.8704 -2.2128
  113CHL1  H19B14590   0.913   3.191  16.221 -0.3655  0.7626 -0.7819
  113CHL1  H19C14591   0.894   3.330  16.332  0.1328 -0.9087  0.7377
  113CHL1    C114592   1.117   3.133  16.398  0.1562  0.2962  0.2818
  113CHL1   H1A14593   1.061   3.049  16.352  1.3060  0.7499 -2.1132
  113CHL1   H1B14594   1.221   3.095  16.406  1.2300  2.7218 -1.1518
  113CHL1    C214595   1.060   3.167  16.533  0.1295 -0.5250  0.3326
  113CHL1   H2A14596   1.058   3.082  16.605 -1.4022 -0.0103  0.9402
  113CHL1   H2B14597   0.954   3.199  16.525 -0.6474 -3.0614 -0.3183
  113CHL1   C2014598   1.290   3.052  15.653 -0.5024 -0.1672  0.2469
  113CHL1   H2014599   1.184   3.054  15.619 -0.8418 -0.3769  1.2401
  113CHL1   C2114600   1.340   2.908  15.700  0.1051  0.0657 -0.4944
  113CHL1  H21A14601   1.449   2.889  15.690 -0.0076 -1.1999  0.4837
  113CHL1  H21B14602   1.284   2.835  15.637 -0.7818 -0.5902  1.0145
  113CHL1  H21C14603   1.318   2.894  15.808  1.9634 -0.2809 -0.1319
  113CHL1   C2214604   1.362   3.086  15.514  0.0626  0.4508 -0.0166
  113CHL1  H22A14605   1.338   3.189  15.481 -1.0028 -0.3393 -1.8587
  113CHL1  H22B14606   1.473   3.075  15.519  0.0400 -0.8418 -1.4708
  113CHL1   C2314607   1.303   2.994  15.400 -0.7656  0.2554 -0.4313
  113CHL1  H23A14608   1.340   2.892  15.423 -0.3080  0.6736  0.7629
  113CHL1  H23B14609   1.192   3.004  15.399 -0.7644  0.3659 -2.2281
  113CHL1   C2414610   1.367   3.039  15.272 -0.5794 -0.3520  0.1619
  113CHL1  H24A14611   1.346   3.147  15.258 -0.2326 -0.2666  0.2862
  113CHL1  H24B14612   1.478   3.037  15.278 -0.4334  2.2402 -0.4653
  113CHL1   C2514613   1.333   2.950  15.152  0.5732 -0.6067 -0.1586
  113CHL1   H2514614   1.373   2.852  15.187  0.4358  0.3248  2.9396
  113CHL1   C2614615   1.182   2.933  15.134 -0.4645 -0.8370  0.3212
  113CHL1  H26A14616   1.142   2.888  15.227  1.0927  0.6249  1.7487
  113CHL1  H26B14617   1.154   3.041  15.133  3.0917  0.1948  0.1685
  113CHL1  H26C14618   1.154   2.881  15.040  0.0151 -0.6746  0.0857
  113CHL1   C2714619   1.391   3.003  15.023  0.1118 -0.3172 -0.2403
  113CHL1  H27A14620   1.334   2.951  14.944 -0.1603  0.9848 -0.9404
  113CHL1  H27B14621   1.350   3.104  14.999  0.1048 -0.5244 -1.1364
  113CHL1  H27C14622   1.500   3.002  15.002  0.3849  1.2368  0.9111
  114CHL1    C314623   6.438   5.924  16.217 -0.1155 -0.3086  0.2522
  114CHL1    H314624   6.429   5.838  16.286  3.0860 -1.5243 -0.7000
  114CHL1    O314625   6.487   6.041  16.288  0.2085  0.3505  0.5298
  114CHL1   H3'14626   6.581   6.022  16.292  0.4467 -0.1294 -3.5490
  114CHL1    C414627   6.537   5.883  16.112  0.2992 -0.3682 -0.0600
  114CHL1   H4A14628   6.571   5.969  16.051 -2.2192  0.8877  0.1972
  114CHL1   H4B14629   6.629   5.860  16.171  0.3066  0.5812  0.3217
  114CHL1    C514630   6.481   5.771  16.031  0.0068 -0.7425  0.2787
  114CHL1    C614631   6.543   5.651  16.027 -0.6446  0.3232 -0.0764
  114CHL1    H614632   6.637   5.633  16.082  0.2165 -2.5449 -2.2187
  114CHL1    C714633   6.501   5.544  15.930  0.0031  0.0387 -1.1783
  114CHL1   H7A14634   6.591   5.511  15.875  0.1867 -0.9217 -0.3236
  114CHL1   H7B14635   6.447   5.460  15.978 -0.7299  1.3753  0.4518
  114CHL1    C814636   6.391   5.594  15.828  0.1525 -0.2114 -0.5505
  114CHL1    H814637   6.452   5.658  15.761  0.1465 -0.6352 -0.9687
  114CHL1   C1414638   6.328   5.475  15.766  0.0674  0.0967 -0.0392
  114CHL1   H1414639   6.275   5.416  15.844 -2.2740  0.5157 -1.2464
  114CHL1   C1514640   6.422   5.377  15.702  0.7940  0.0498  0.3605
  114CHL1  H15A14641   6.494   5.432  15.638  1.0209  0.3510  0.8690
  114CHL1  H15B14642   6.475   5.316  15.778  0.2783 -0.6877  0.1450
  114CHL1   C1614643   6.324   5.290  15.612 -0.4881  0.1851 -0.3346
  114CHL1  H16A14644   6.373   5.285  15.513  0.7464  1.3195  0.1880
  114CHL1  H16B14645   6.315   5.188  15.655 -1.3576  0.4588  0.1856
  114CHL1   C1714646   6.183   5.356  15.614 -0.3541 -0.5584  0.3336
  114CHL1   H1714647   6.119   5.301  15.686 -0.1626 -3.2078 -1.3970
  114CHL1   C1314648   6.217   5.498  15.668  0.0031  0.1001 -0.3475
  114CHL1   C1814649   6.262   5.592  15.549  0.6697  0.2432 -0.3466
  114CHL1  H18A14650   6.180   5.620  15.480  1.8211  0.1090 -1.8219
  114CHL1  H18B14651   6.309   5.684  15.590  0.1775  0.0119  0.7538
  114CHL1  H18C14652   6.340   5.549  15.481 -0.9476  0.2020 -2.2664
  114CHL1   C1214653   6.102   5.559  15.754  0.0856 -0.0161  0.5787
  114CHL1  H12A14654   6.021   5.581  15.682 -0.3958  1.1583  1.4582
  114CHL1  H12B14655   6.064   5.491  15.833  0.0308 -2.1477 -1.1856
  114CHL1   C1114656   6.146   5.688  15.824  0.0351  0.9956 -0.1277
  114CHL1  H11A14657   6.154   5.761  15.741  2.4824 -0.3542 -1.1901
  114CHL1  H11B14658   6.068   5.723  15.895 -0.8802  1.3655 -1.2841
  114CHL1    C914659   6.284   5.671  15.904 -0.4100 -0.1068  0.2445
  114CHL1    H914660   6.255   5.605  15.988 -1.1024  1.2939  1.1522
  114CHL1   C1014661   6.343   5.804  15.960  0.0897  0.0673  0.4603
  114CHL1   C1914662   6.345   5.913  15.849 -0.5002 -1.0683  0.1293
  114CHL1  H19A14663   6.430   5.983  15.858 -0.7917 -0.4288 -1.7010
  114CHL1  H19B14664   6.358   5.862  15.751 -0.8926 -0.6954 -0.1236
  114CHL1  H19C14665   6.255   5.978  15.835  0.6143  1.2340  2.6666
  114CHL1    C114666   6.246   5.851  16.071 -0.2555 -0.2835 -0.0292
  114CHL1   H1A14667   6.152   5.881  16.020  0.6999 -0.0835 -1.7637
  114CHL1   H1B14668   6.230   5.771  16.147  0.0995 -0.1963  0.1390
  114CHL1    C214669   6.301   5.965  16.162  0.3457  0.7787 -0.3996
  114CHL1   H2A14670   6.224   5.974  16.242 -0.6794 -0.2469 -1.2406
  114CHL1   H2B14671   6.318   6.054  16.097 -0.3913  1.2707  0.0621
  114CHL1   C2014672   6.107   5.344  15.476 -0.1748 -0.1831  0.0677
  114CHL1   H2014673   6.164   5.410  15.408  1.1149 -0.4658  0.8543
  114CHL1   C2114674   5.958   5.396  15.500 -0.8077  0.3459 -0.2708
  114CHL1  H21A14675   5.974   5.506  15.497  1.5434  0.0447 -1.2375
  114CHL1  H21B14676   5.915   5.376  15.600 -0.6835 -2.1682 -0.6714
  114CHL1  H21C14677   5.885   5.376  15.419 -0.7896 -0.3612 -0.1122
  114CHL1   C2214678   6.100   5.207  15.412  0.2564 -0.2899 -0.7192
  114CHL1  H22A14679   6.202   5.163  15.416 -0.1272 -1.1315  0.2601
  114CHL1  H22B14680   6.033   5.139  15.469  1.6159 -1.9859 -1.0552
  114CHL1   C2314681   6.053   5.189  15.267 -0.1795  0.2079 -0.5019
  114CHL1  H23A14682   6.088   5.085  15.251  1.6007  0.7388 -0.2343
  114CHL1  H23B14683   5.943   5.204  15.271 -0.2235 -0.1513 -0.3976
  114CHL1   C2414684   6.120   5.276  15.160 -0.7249 -0.3437  0.4525
  114CHL1  H24A14685   6.101   5.382  15.185 -0.5968  0.1493 -1.4235
  114CHL1  H24B14686   6.230   5.269  15.149 -0.6254  0.8311  0.6062
  114CHL1   C2514687   6.050   5.260  15.020 -0.2169 -0.6941 -0.3579
  114CHL1   H2514688   6.103   5.327  14.950 -2.8598  0.9582 -0.9246
  114CHL1   C2614689   6.069   5.119  14.970  0.2450 -1.0746 -0.0740
  114CHL1  H26A14690   6.005   5.055  15.034 -2.0403  0.7944 -0.3447
  114CHL1  H26B14691   6.035   5.105  14.865  0.9322 -0.6219 -0.3660
  114CHL1  H26C14692   6.175   5.089  14.983  0.4942  0.0907  0.7115
  114CHL1   C2714693   5.906   5.320  15.009 -0.1717  0.3192 -0.1504
  114CHL1  H27A14694   5.835   5.258  15.068  0.4855 -1.8306 -1.4997
  114CHL1  H27B14695   5.896   5.427  15.036  1.3694 -0.1005  2.5359
  114CHL1  H27C14696   5.869   5.308  14.905 -0.1688  0.9041 -0.2237
  115CHL1    C314697   3.191   7.467  16.210 -0.9070 -0.1518  0.3323
  115CHL1    H314698   3.189   7.577  16.196 -1.3141 -0.3217 -1.1875
  115CHL1    O314699   3.174   7.444  16.348  0.4444 -0.0776 -0.4701
  115CHL1   H3'14700   3.258   7.472  16.384  0.5890  0.4564 -1.1941
  115CHL1    C414701   3.075   7.403  16.128  0.0677 -0.5911 -0.5926
  115CHL1   H4A14702   3.058   7.301  16.167 -0.9016 -0.3595 -0.3914
  115CHL1   H4B14703   2.980   7.452  16.158  1.1469  1.2886 -0.0283
  115CHL1    C514704   3.099   7.401  15.985 -0.6358  0.2741 -0.1671
  115CHL1    C614705   3.005   7.438  15.898 -0.3466 -0.5739 -0.2907
  115CHL1    H614706   2.908   7.475  15.933 -0.9807 -1.8644 -0.6274
  115CHL1    C714707   3.029   7.435  15.748  0.1157  0.3596 -0.3564
  115CHL1   H7A14708   2.937   7.392  15.703 -0.7683 -1.9666  3.2909
  115CHL1   H7B14709   3.056   7.535  15.706  2.9953 -0.1221  0.1485
  115CHL1    C814710   3.144   7.349  15.699  0.5034 -0.2628  0.3861
  115CHL1    H814711   3.099   7.249  15.721 -3.0249  1.1744  0.3580
  115CHL1   C1414712   3.164   7.360  15.553  0.0661  1.0745 -0.1568
  115CHL1   H1414713   3.193   7.465  15.536 -1.0850  1.3394 -0.5822
  115CHL1   C1514714   3.045   7.341  15.462 -0.0473  0.3138 -0.1293
  115CHL1  H15A14715   2.991   7.249  15.494  0.8585  0.5623  2.3291
  115CHL1  H15B14716   2.965   7.417  15.470 -1.9487 -1.2419 -2.7148
  115CHL1   C1614717   3.113   7.333  15.321 -0.2140 -0.6878 -0.4378
  115CHL1  H16A14718   3.063   7.247  15.270 -1.4366  0.5628 -1.4335
  115CHL1  H16B14719   3.105   7.419  15.251  0.8777 -0.1685  0.0559
  115CHL1   C1714720   3.266   7.315  15.358 -0.2111  0.2550 -0.2874
  115CHL1   H1714721   3.298   7.421  15.360  0.3047  0.1489 -1.7114
  115CHL1   C1314722   3.268   7.262  15.506 -0.2228 -0.4949  0.6426
  115CHL1   C1814723   3.234   7.108  15.521 -0.1206  0.9763 -1.4475
  115CHL1  H18A14724   3.308   7.050  15.462 -1.4269 -1.5962 -0.6909
  115CHL1  H18B14725   3.232   7.074  15.627 -1.5148 -1.1558 -2.1018
  115CHL1  H18C14726   3.135   7.090  15.473  0.8435 -0.8371 -2.8633
  115CHL1   C1214727   3.407   7.290  15.575  0.8588  0.5833  1.0546
  115CHL1  H12A14728   3.475   7.208  15.543  3.5776  3.1807 -0.3588
  115CHL1  H12B14729   3.449   7.391  15.553  3.5066 -0.2397  1.9240
  115CHL1   C1114730   3.384   7.278  15.728 -0.3001 -0.5604  0.7299
  115CHL1  H11A14731   3.380   7.170  15.756  0.2605 -1.3525 -1.9320
  115CHL1  H11B14732   3.484   7.306  15.768  1.4603 -0.7053 -3.1398
  115CHL1    C914733   3.271   7.366  15.784  0.2358 -0.3665 -0.3748
  115CHL1    H914734   3.312   7.468  15.767  0.3850 -0.1912  0.9524
  115CHL1   C1014735   3.235   7.346  15.939 -0.6607  0.9074  0.2473
  115CHL1   C1914736   3.224   7.196  15.970 -0.6761  0.1698  0.4863
  115CHL1  H19A14737   3.206   7.176  16.078 -1.4517 -1.1568  0.1224
  115CHL1  H19B14738   3.155   7.135  15.909  0.3582  0.4651 -1.0372
  115CHL1  H19C14739   3.322   7.153  15.942 -0.7821  1.3994 -2.0472
  115CHL1    C114740   3.353   7.405  16.021 -0.3424  0.3598  0.3446
  115CHL1   H1A14741   3.445   7.346  16.001  1.4285  3.2270 -0.6306
  115CHL1   H1B14742   3.375   7.508  15.986 -1.8120  0.3191 -0.7710
  115CHL1    C214743   3.328   7.405  16.174  0.2575  0.2032 -0.1572
  115CHL1   H2A14744   3.405   7.465  16.226 -0.3817  0.8268  0.0914
  115CHL1   H2B14745   3.335   7.302  16.213 -0.7492  0.1893  0.0134
  115CHL1   C2014746   3.340   7.245  15.252 -0.5862 -0.0891  0.0769
  115CHL1   H2014747   3.433   7.211  15.303  0.1836  2.7110  0.7523
  115CHL1   C2114748   3.389   7.356  15.152  0.1669 -0.7958 -0.0248
  115CHL1  H21A14749   3.304   7.413  15.107 -1.0200 -1.1495  1.6496
  115CHL1  H21B14750   3.429   7.298  15.066  0.6383  1.7682 -1.6395
  115CHL1  H21C14751   3.466   7.421  15.198  0.9667 -1.8769  0.1771
  115CHL1   C2214752   3.265   7.123  15.187  0.4724 -0.1993  0.1804
  115CHL1  H22A14753   3.201   7.075  15.264  0.5573  1.0080  1.0407
  115CHL1  H22B14754   3.210   7.166  15.101  0.8542 -1.0430 -0.4997
  115CHL1   C2314755   3.366   7.016  15.132  0.3809 -0.4478  0.2885
  115CHL1  H23A14756   3.439   7.070  15.067 -0.9638  1.4804  0.2903
  115CHL1  H23B14757   3.410   6.978  15.227 -1.2148  0.7325  1.5451
  115CHL1   C2414758   3.299   6.900  15.060  0.8056  0.4339  0.6257
  115CHL1  H24A14759   3.381   6.831  15.030 -0.5054 -0.9301  0.0659
  115CHL1  H24B14760   3.226   6.847  15.126  0.5660  0.7570  0.6200
  115CHL1   C2514761   3.222   6.936  14.929 -0.3067 -0.0990  0.4338
  115CHL1   H2514762   3.140   7.003  14.963 -1.5070 -0.5042 -1.5435
  115CHL1   C2614763   3.327   6.993  14.828 -0.6121 -0.5900 -0.9453
  115CHL1  H26A14764   3.410   6.919  14.833 -2.0271 -2.1338  0.6735
  115CHL1  H26B14765   3.283   6.994  14.726 -1.8930  1.6865 -0.4323
  115CHL1  H26C14766   3.363   7.097  14.845 -4.0776  0.9824 -2.2042
  115CHL1   C2714767   3.162   6.810  14.877 -0.0529 -0.6069 -0.0627
  115CHL1  H27A14768   3.235   6.726  14.877  1.1784  0.4379  0.0936
  115CHL1  H27B14769   3.078   6.771  14.938 -1.4706  0.5971 -1.1526
  115CHL1  H27C14770   3.127   6.822  14.772  1.7358  0.1655 -0.6000
  116CHL1    C314771   3.446   6.331  16.259 -0.1778  0.7425  0.7900
  116CHL1    H314772   3.406   6.430  16.227 -0.4567 -0.1465 -1.8969
  116CHL1    O314773   3.411   6.318  16.395 -0.5680  0.1471 -0.2982
  116CHL1   H3'14774   3.462   6.240  16.419 -1.1297  0.2945  1.5207
  116CHL1    C414775   3.389   6.214  16.179  0.2853  0.4714 -0.8551
  116CHL1   H4A14776   3.430   6.116  16.213  0.0312  0.8046  0.4581
  116CHL1   H4B14777   3.279   6.205  16.192  0.3334 -2.6149 -1.8107
  116CHL1    C514778   3.421   6.226  16.035 -0.4143 -0.1129  0.0341
  116CHL1    C614779   3.330   6.224  15.945 -0.1145  0.5446 -0.4759
  116CHL1    H614780   3.227   6.203  15.977  0.4326 -3.5690 -0.9420
  116CHL1    C714781   3.350   6.244  15.795  0.7165  0.4800 -0.0071
  116CHL1   H7A14782   3.287   6.176  15.734 -0.3415 -0.1488  1.7153
  116CHL1   H7B14783   3.306   6.342  15.767 -1.1882  0.2059  1.7862
  116CHL1    C814784   3.499   6.235  15.747  0.2388  0.5174  0.4828
  116CHL1    H814785   3.524   6.128  15.727  2.5679  0.9847  0.5679
  116CHL1   C1414786   3.523   6.313  15.614  0.0562 -0.1441  0.3762
  116CHL1   H1414787   3.505   6.419  15.643 -1.7461 -1.0656  2.9642
  116CHL1   C1514788   3.428   6.279  15.499 -0.1378  0.7002  0.1018
  116CHL1  H15A14789   3.408   6.174  15.471  0.4119  0.5172  0.3770
  116CHL1  H15B14790   3.327   6.322  15.520 -0.1417 -0.1079  1.9770
  116CHL1   C1614791   3.493   6.359  15.380  0.4280  0.2800 -0.0630
  116CHL1  H16A14792   3.484   6.294  15.291  1.6583 -1.6741  1.1749
  116CHL1  H16B14793   3.440   6.454  15.356  1.2445  0.4141 -1.4297
  116CHL1   C1714794   3.635   6.391  15.423 -0.4396  0.4308  0.8963
  116CHL1   H1714795   3.636   6.498  15.453  0.2209  0.4265  0.9145
  116CHL1   C1314796   3.663   6.306  15.552 -0.3534 -0.0782 -0.3682
  116CHL1   C1814797   3.699   6.162  15.512 -0.4340 -0.4079 -0.0308
  116CHL1  H18A14798   3.705   6.095  15.600 -1.6976 -1.5727 -0.7915
  116CHL1  H18B14799   3.623   6.119  15.443  0.2831  0.0347 -1.1377
  116CHL1  H18C14800   3.799   6.157  15.463 -0.2652 -2.7761  0.4364
  116CHL1   C1214801   3.763   6.361  15.659  0.1236 -0.3029 -0.1841
  116CHL1  H12A14802   3.868   6.348  15.627  0.7244 -1.4529  2.0288
  116CHL1  H12B14803   3.755   6.471  15.674  0.9243 -0.3792  0.9455
  116CHL1   C1114804   3.741   6.293  15.800  0.2733  0.0942 -1.3251
  116CHL1  H11A14805   3.775   6.188  15.785 -0.7689 -0.7185  1.4654
  116CHL1  H11B14806   3.818   6.339  15.865  0.0134 -0.5237 -0.5678
  116CHL1    C914807   3.595   6.294  15.853 -0.4067  0.2224 -0.3875
  116CHL1    H914808   3.565   6.401  15.853  1.1152  0.6722  0.5045
  116CHL1   C1014809   3.568   6.246  15.999  0.5904  0.0947  0.5214
  116CHL1   C1914810   3.635   6.102  16.023  0.2283 -0.2790 -0.1420
  116CHL1  H19A14811   3.600   6.030  15.947  1.9678 -1.1536 -0.1795
  116CHL1  H19B14812   3.746   6.107  16.013  0.1894 -0.7168 -0.8633
  116CHL1  H19C14813   3.617   6.070  16.128  1.5987 -2.8313 -0.5769
  116CHL1    C114814   3.638   6.345  16.094  0.1397 -0.1191  0.9428
  116CHL1   H1A14815   3.748   6.336  16.081  0.0079 -1.1436  0.4081
  116CHL1   H1B14816   3.613   6.450  16.070 -0.4582 -0.8041 -1.9268
  116CHL1    C214817   3.604   6.326  16.243 -0.2086 -0.0919 -0.0077
  116CHL1   H2A14818   3.644   6.407  16.309 -0.2606 -0.4982  0.5320
  116CHL1   H2B14819   3.648   6.236  16.291 -1.2061 -0.1051  0.9295
  116CHL1   C2014820   3.735   6.384  15.305 -0.1105 -1.0020 -0.0669
  116CHL1   H2014821   3.733   6.282  15.262 -1.4802 -0.3197 -1.7359
  116CHL1   C2114822   3.879   6.413  15.363 -0.0206 -0.4662  0.2159
  116CHL1  H21A14823   3.881   6.503  15.427 -0.3757  0.2454 -0.7443
  116CHL1  H21B14824   3.953   6.432  15.283 -0.3128 -1.0595 -0.2019
  116CHL1  H21C14825   3.911   6.321  15.417  0.6381 -0.0363  0.5687
  116CHL1   C2214826   3.712   6.484  15.194 -0.2450  0.1595  0.4258
  116CHL1  H22A14827   3.606   6.487  15.163  0.0870 -0.6339 -0.8871
  116CHL1  H22B14828   3.736   6.588  15.223 -1.4404  0.8913 -1.0831
  116CHL1   C2314829   3.781   6.449  15.058 -0.2172  0.3700 -0.0993
  116CHL1  H23A14830   3.756   6.539  14.998 -0.2163  0.7829  0.5092
  116CHL1  H23B14831   3.891   6.434  15.058 -0.0950  0.0947 -4.5854
  116CHL1   C2414832   3.714   6.332  14.990 -0.0622  0.2081  0.3405
  116CHL1  H24A14833   3.778   6.244  15.013  0.0391 -0.8135 -3.2647
  116CHL1  H24B14834   3.608   6.326  15.025  0.1747  2.1827  1.5319
  116CHL1   C2514835   3.713   6.336  14.836  0.0736 -0.3460 -0.0037
  116CHL1   H2514836   3.688   6.438  14.801  0.5329 -0.3248 -0.2776
  116CHL1   C2614837   3.864   6.321  14.782  0.0335  0.4040 -0.1923
  116CHL1  H26A14838   3.859   6.303  14.672  0.1366 -2.7346  0.2032
  116CHL1  H26B14839   3.937   6.403  14.793 -0.7922  0.8405  2.8992
  116CHL1  H26C14840   3.912   6.229  14.823 -0.6313 -0.4414 -1.2329
  116CHL1   C2714841   3.629   6.226  14.767  0.4795  0.3984  0.2124
  116CHL1  H27A14842   3.687   6.133  14.749 -1.7899 -1.4605  1.9009
  116CHL1  H27B14843   3.540   6.190  14.824 -1.5402  1.1756 -2.2473
  116CHL1  H27C14844   3.584   6.263  14.672 -0.6321 -3.1977 -0.8353
  117CHL1    C314845   5.514   6.440  16.528  0.3491  0.0368  0.1255
  117CHL1    H314846   5.469   6.339  16.538 -0.2798  0.4093  1.1748
  117CHL1    O314847   5.481   6.520  16.644 -0.5755  0.3031  0.2463
  117CHL1   H3'14848   5.469   6.454  16.712  0.2254  0.1326  0.2331
  117CHL1    C414849   5.668   6.418  16.505 -0.1415 -0.4031 -0.6282
  117CHL1   H4A14850   5.705   6.523  16.505 -0.2678 -0.3580 -0.8623
  117CHL1   H4B14851   5.700   6.365  16.597 -1.1328  2.1319  1.2988
  117CHL1    C514852   5.699   6.347  16.374 -0.7622 -0.2003  0.5547
  117CHL1    C614853   5.767   6.235  16.374 -0.1388 -0.0623  0.0109
  117CHL1    H614854   5.793   6.179  16.465 -2.6136  0.3879  1.0764
  117CHL1    C714855   5.807   6.160  16.251  0.1762  0.0546 -0.5184
  117CHL1   H7A14856   5.911   6.121  16.264 -0.6657 -2.6604 -1.1587
  117CHL1   H7B14857   5.749   6.065  16.247  2.0402 -1.1824  0.1262
  117CHL1    C814858   5.796   6.244  16.119 -0.4025 -0.4029  0.3504
  117CHL1    H814859   5.876   6.321  16.118 -1.3226  0.5798  0.6117
  117CHL1   C1414860   5.801   6.158  15.991  0.0038 -0.1539 -0.8696
  117CHL1   H1414861   5.707   6.099  15.993 -0.0508 -0.0535 -0.4098
  117CHL1   C1514862   5.921   6.062  15.981 -0.5132  0.1885  0.3471
  117CHL1  H15A14863   6.010   6.129  15.985 -0.6451  0.3065  2.3060
  117CHL1  H15B14864   5.931   5.983  16.058  2.2925  0.1686  0.0714
  117CHL1   C1614865   5.918   6.032  15.828  0.7260  0.2307  1.2335
  117CHL1  H16A14866   6.021   6.036  15.786  0.7112  0.2312  1.1962
  117CHL1  H16B14867   5.888   5.930  15.799 -1.1345  1.1734 -0.4016
  117CHL1   C1714868   5.813   6.128  15.762 -0.3412  0.6823  0.1093
  117CHL1   H1714869   5.717   6.074  15.748 -1.0247  1.9546 -0.2932
  117CHL1   C1314870   5.798   6.238  15.862  0.3624 -0.1748  0.4148
  117CHL1   C1814871   5.921   6.336  15.854 -0.2063 -0.2104  0.5181
  117CHL1  H18A14872   5.908   6.405  15.940 -2.9916  0.9109 -0.6999
  117CHL1  H18B14873   6.018   6.281  15.857 -0.9341 -1.5800 -0.1992
  117CHL1  H18C14874   5.917   6.383  15.753  0.2856  0.1636  0.6697
  117CHL1   C1214875   5.660   6.307  15.869  0.4036 -0.3324 -0.3208
  117CHL1  H12A14876   5.643   6.368  15.778 -2.0203 -0.2000  0.1542
  117CHL1  H12B14877   5.585   6.225  15.879  1.1892 -0.7472  3.5648
  117CHL1   C1114878   5.629   6.395  15.990 -0.0761 -0.7514  0.4335
  117CHL1  H11A14879   5.705   6.474  15.972 -1.3442  0.0094 -2.0568
  117CHL1  H11B14880   5.524   6.432  15.984 -0.0000 -0.6419 -0.2559
  117CHL1    C914881   5.657   6.316  16.119 -0.3628 -0.6047  0.1323
  117CHL1    H914882   5.579   6.238  16.132 -0.9207 -0.7427 -3.1783
  117CHL1   C1014883   5.636   6.409  16.246 -0.5334 -0.9099 -0.5582
  117CHL1   C1914884   5.693   6.550  16.216  0.8932  0.2308 -0.1518
  117CHL1  H19A14885   5.692   6.616  16.306  1.5353 -0.3304  0.2852
  117CHL1  H19B14886   5.796   6.539  16.176  1.2818  0.1288  0.8430
  117CHL1  H19C14887   5.626   6.594  16.140  0.6514 -1.3229 -0.8783
  117CHL1    C114888   5.483   6.421  16.279  0.4614 -0.2002 -0.8589
  117CHL1   H1A14889   5.424   6.465  16.196  0.3283 -0.5863 -0.9701
  117CHL1   H1B14890   5.439   6.320  16.298  2.1708 -1.0146 -1.0061
  117CHL1    C214891   5.455   6.507  16.403  0.2116  0.3316  0.4297
  117CHL1   H2A14892   5.346   6.520  16.414 -0.2390 -0.5660 -2.2336
  117CHL1   H2B14893   5.509   6.604  16.393  0.8005 -0.1566 -1.7007
  117CHL1   C2014894   5.857   6.164  15.616  0.7365 -0.1686  0.2437
  117CHL1   H2014895   5.950   6.226  15.623  1.4341 -0.9649 -1.3164
  117CHL1   C2114896   5.742   6.243  15.551 -0.5842  0.0416  0.0721
  117CHL1  H21A14897   5.640   6.198  15.553 -0.8112  0.3114 -2.1611
  117CHL1  H21B14898   5.763   6.260  15.443  1.3333 -0.2486  0.3788
  117CHL1  H21C14899   5.736   6.344  15.595 -2.4735  0.1152 -0.2399
  117CHL1   C2214900   5.896   6.041  15.529 -0.3224 -0.7120 -0.0217
  117CHL1  H22A14901   5.920   6.087  15.431 -1.8660 -0.4681 -0.3061
  117CHL1  H22B14902   5.997   6.005  15.559  0.6871  3.0720  1.8384
  117CHL1   C2314903   5.798   5.921  15.518 -0.6043 -0.9567  0.1555
  117CHL1  H23A14904   5.761   5.886  15.617 -2.1367 -0.5091 -0.2364
  117CHL1  H23B14905   5.698   5.941  15.474 -0.6334  2.0863  1.4020
  117CHL1   C2414906   5.872   5.810  15.428 -0.2767  0.0626  0.2623
  117CHL1  H24A14907   5.976   5.787  15.461 -0.6666 -1.7548  0.2940
  117CHL1  H24B14908   5.803   5.726  15.451  1.4072 -0.6635  3.2250
  117CHL1   C2514909   5.885   5.831  15.266 -0.5670 -0.8650  0.2910
  117CHL1   H2514910   5.942   5.926  15.252 -0.9032 -0.6583  0.3065
  117CHL1   C2614911   5.965   5.714  15.197 -0.5700 -0.3495  0.2214
  117CHL1  H26A14912   6.070   5.718  15.233 -0.8606 -1.2999  1.2265
  117CHL1  H26B14913   5.922   5.615  15.224 -0.6453  0.0576  1.6682
  117CHL1  H26C14914   5.969   5.715  15.086  1.0045 -2.7269  0.1819
  117CHL1   C2714915   5.750   5.844  15.197  0.2601  0.3497 -1.0714
  117CHL1  H27A14916   5.756   5.831  15.087  0.4134  3.8104 -1.5943
  117CHL1  H27B14917   5.684   5.762  15.233 -1.1145  1.6351 -0.5925
  117CHL1  H27C14918   5.709   5.946  15.216  2.5655  0.8792  1.8193
  118CHL1    C314919   0.473   0.773  16.209 -0.4991 -0.4619  0.0665
  118CHL1    H314920   0.370   0.731  16.201 -1.0426  0.8961 -0.4674
  118CHL1    O314921   0.516   0.765  16.342 -0.3196 -0.0186 -0.5413
  118CHL1   H3'14922   0.449   0.810  16.395  0.3971 -1.0775  1.3502
  118CHL1    C414923   0.559   0.706  16.103  0.3576 -0.1710  0.2946
  118CHL1   H4A14924   0.663   0.740  16.123  0.6037 -1.7353  2.0509
  118CHL1   H4B14925   0.555   0.598  16.132  0.9961  0.1946  1.8302
  118CHL1    C514926   0.528   0.735  15.958  0.1388  0.7782  0.6503
  118CHL1    C614927   0.495   0.626  15.875  0.1045 -0.6368 -0.1653
  118CHL1    H614928   0.499   0.526  15.920  0.2030 -0.8353 -0.6073
  118CHL1    C714929   0.452   0.630  15.733  0.0690 -0.8529 -0.5241
  118CHL1   H7A14930   0.507   0.553  15.675 -1.5304 -1.7867 -0.8387
  118CHL1   H7B14931   0.344   0.614  15.712  0.2617 -1.9050 -0.7559
  118CHL1    C814932   0.483   0.773  15.679 -0.1408  0.2763  0.8630
  118CHL1    H814933   0.592   0.779  15.662 -0.2012 -0.0758  0.3105
  118CHL1   C1414934   0.408   0.797  15.554  0.3525  0.0778 -0.2803
  118CHL1   H1414935   0.302   0.781  15.584  1.1524 -0.0938  2.8603
  118CHL1   C1514936   0.421   0.697  15.438  0.1704 -0.1404 -0.5835
  118CHL1  H15A14937   0.531   0.691  15.429  0.3426  1.2742  0.2190
  118CHL1  H15B14938   0.374   0.598  15.456  2.2425 -1.3897 -1.6409
  118CHL1   C1614939   0.374   0.765  15.306  0.2390 -0.4061  0.1695
  118CHL1  H16A14940   0.452   0.746  15.229 -0.8389 -1.1482 -0.7666
  118CHL1  H16B14941   0.271   0.735  15.278 -0.1788 -1.2817  2.4723
  118CHL1   C1714942   0.355   0.917  15.349  0.1201 -0.1946 -0.5961
  118CHL1   H1714943   0.252   0.927  15.392  0.7548 -0.6156  1.1201
  118CHL1   C1314944   0.430   0.933  15.487 -0.0511 -0.1266 -0.0201
  118CHL1   C1814945   0.579   0.956  15.447  0.8383 -0.4611  0.3330
  118CHL1  H18A14946   0.604   0.885  15.365 -0.9290 -0.7537 -0.0027
  118CHL1  H18B14947   0.609   1.058  15.416  0.8641 -0.2818  0.9303
  118CHL1  H18C14948   0.648   0.930  15.530  0.3872 -0.8771  0.5889
  118CHL1   C1214949   0.376   1.045  15.574 -0.0573  0.2891 -0.1907
  118CHL1  H12A14950   0.401   1.149  15.545  4.7658 -0.3720  0.7092
  118CHL1  H12B14951   0.265   1.039  15.564 -0.0269  1.2202 -1.2586
  118CHL1   C1114952   0.443   1.031  15.709  0.7072  0.7689  0.0525
  118CHL1  H11A14953   0.549   1.057  15.686  0.1054  2.0884 -1.3267
  118CHL1  H11B14954   0.415   1.113  15.778  0.2441 -0.9888  2.0862
  118CHL1    C914955   0.432   0.887  15.774 -0.0816  1.1243  0.1538
  118CHL1    H914956   0.324   0.867  15.787  0.0528  0.3129  0.0661
  118CHL1   C1014957   0.501   0.878  15.913  0.7460  0.0794  0.4424
  118CHL1   C1914958   0.638   0.949  15.898 -0.3934 -0.2013 -0.3927
  118CHL1  H19A14959   0.680   0.923  15.798 -1.2248 -1.8940 -0.3305
  118CHL1  H19B14960   0.619   1.059  15.902  0.1905 -0.1261  1.2448
  118CHL1  H19C14961   0.712   0.927  15.978 -1.5241  0.9971  1.0578
  118CHL1    C114962   0.419   0.954  16.019  0.4373  0.6682  0.8680
  118CHL1   H1A14963   0.427   1.064  16.002 -0.4186  0.6280  0.1503
  118CHL1   H1B14964   0.314   0.923  16.003  0.9547 -0.4551 -0.5645
  118CHL1    C214965   0.451   0.925  16.172  0.5886  0.1544  0.1402
  118CHL1   H2A14966   0.368   0.965  16.235 -0.6148  1.3521 -2.0679
  118CHL1   H2B14967   0.550   0.968  16.199 -0.8744  3.4518  0.7462
  118CHL1   C2014968   0.361   1.030  15.246 -0.3423 -0.3948  0.4153
  118CHL1   H2014969   0.384   1.130  15.290  0.8831 -0.1947 -0.6325
  118CHL1   C2114970   0.215   1.048  15.197 -1.0516  0.1112  0.2684
  118CHL1  H21A14971   0.146   1.046  15.284 -1.1542 -0.3256  0.1807
  118CHL1  H21B14972   0.207   0.965  15.124  0.3222 -0.8087  1.1063
  118CHL1  H21C14973   0.212   1.150  15.154 -3.2921 -0.1257 -0.3005
  118CHL1   C2214974   0.456   1.007  15.129 -0.5011 -0.8815 -0.1105
  118CHL1  H22A14975   0.551   0.976  15.179  0.3604  0.2648 -0.9593
  118CHL1  H22B14976   0.421   0.936  15.052 -1.2298  0.9258 -1.5043
  118CHL1   C2314977   0.479   1.127  15.046 -1.0424 -0.1407  0.0032
  118CHL1  H23A14978   0.387   1.156  14.991 -0.4402 -0.2700 -1.1089
  118CHL1  H23B14979   0.513   1.218  15.101 -0.0744  0.4453 -1.4921
  118CHL1   C2414980   0.578   1.096  14.927 -0.3724  0.0473  0.0745
  118CHL1  H24A14981   0.685   1.106  14.955  1.1188 -3.8321 -3.1905
  118CHL1  H24B14982   0.562   0.993  14.887  0.6894  0.2550 -0.9373
  118CHL1   C2514983   0.551   1.198  14.815  0.0913 -0.7940 -0.6353
  118CHL1   H2514984   0.443   1.207  14.787  0.3765 -2.8367 -2.8065
  118CHL1   C2614985   0.605   1.339  14.848  0.3163  0.3078  0.6232
  118CHL1  H26A14986   0.585   1.407  14.761 -1.7692  1.0876  1.6300
  118CHL1  H26B14987   0.556   1.391  14.933  0.0504  0.6046  0.2960
  118CHL1  H26C14988   0.714   1.336  14.865  0.1199  1.9036  2.4726
  118CHL1   C2714989   0.621   1.157  14.682 -0.3000 -0.0671  0.1343
  118CHL1  H27A14990   0.606   1.048  14.664 -0.3369  0.3198 -2.5565
  118CHL1  H27B14991   0.591   1.215  14.592 -1.2656 -0.5964  0.0985
  118CHL1  H27C14992   0.729   1.175  14.700 -0.1366 -3.1945  3.4779
  119CHL1    C314993   1.855   7.056  16.603  0.1957 -0.1931 -0.1242
  119CHL1    H314994   1.835   6.947  16.605 -3.3364  0.3630  0.4201
  119CHL1    O314995   1.814   7.117  16.723 -0.5256 -0.0652 -0.4926
  119CHL1   H3'14996   1.834   7.207  16.699  2.3804 -0.2454  0.8293
  119CHL1    C414997   2.002   7.100  16.579  0.2390  0.3330  0.0704
  119CHL1   H4A14998   2.006   7.205  16.615 -0.7530  0.2555  0.4521
  119CHL1   H4B14999   2.067   7.037  16.643  1.6471  1.1155 -0.5630
  119CHL1    C515000   2.045   7.080  16.439  0.0920  0.6015 -0.7328
  119CHL1    C615001   2.166   7.022  16.413 -0.1888 -1.0340  0.5153
  119CHL1    H615002   2.218   6.998  16.507  2.3913  1.7754 -0.0619
  119CHL1    C715003   2.238   7.004  16.278 -0.0165  0.1437 -0.3650
  119CHL1   H7A15004   2.340   7.048  16.273 -0.2779  0.6344 -3.0639
  119CHL1   H7B15005   2.243   6.894  16.260 -0.6339  0.1044 -0.3116
  119CHL1    C815006   2.151   7.085  16.181  0.0293  0.4238  0.5880
  119CHL1    H815007   2.196   7.186  16.196  3.1334 -0.9399  1.2968
  119CHL1   C1415008   2.195   7.049  16.040  0.2783  0.4734  0.2797
  119CHL1   H1415009   2.176   6.939  16.031 -2.6851  1.0488 -2.9578
  119CHL1   C1515010   2.347   7.062  16.006  0.4717 -0.2458 -0.1714
  119CHL1  H15A15011   2.380   7.160  16.047 -0.9392  0.9899 -1.8437
  119CHL1  H15B15012   2.407   6.979  16.048  0.6353 -0.0748 -0.0665
  119CHL1   C1615013   2.355   7.062  15.848  0.0030  0.3671  0.5390
  119CHL1  H16A15014   2.432   7.137  15.819  1.1582 -1.1106 -0.3494
  119CHL1  H16B15015   2.397   6.969  15.803  0.3183 -0.0458  1.6500
  119CHL1   C1715016   2.208   7.081  15.797 -0.3456 -0.3301 -0.4038
  119CHL1   H1715017   2.171   6.981  15.768 -1.7568  1.0749 -4.1147
  119CHL1   C1315018   2.124   7.123  15.918  0.2575  0.2509  0.1874
  119CHL1   C1815019   2.134   7.277  15.938  0.2066 -0.1432  0.2834
  119CHL1  H18A15020   2.071   7.307  16.025 -1.7003  0.2057 -1.1395
  119CHL1  H18B15021   2.237   7.314  15.956  0.1750 -0.8452  2.0505
  119CHL1  H18C15022   2.079   7.324  15.853  0.6216  0.8705  0.5560
  119CHL1   C1215023   1.981   7.072  15.929  0.0720  0.2825  0.2026
  119CHL1  H12A15024   1.926   7.125  15.849  1.1584  1.1624  0.0176
  119CHL1  H12B15025   1.976   6.961  15.916 -2.7205  0.1626  1.4466
  119CHL1   C1115026   1.918   7.099  16.067  0.2984  0.3392  0.1992
  119CHL1  H11A15027   1.881   7.204  16.064  2.2693  1.1262 -3.4107
  119CHL1  H11B15028   1.828   7.034  16.068  0.3688  0.1422 -1.7077
  119CHL1    C915029   2.003   7.069  16.193  0.2327  0.2869  0.3925
  119CHL1    H915030   1.990   6.959  16.202 -1.7575  0.4203 -0.2596
  119CHL1   C1015031   1.951   7.123  16.324 -0.1424  0.3432 -0.5451
  119CHL1   C1915032   1.950   7.281  16.318 -0.1157  0.2986 -0.0116
  119CHL1  H19A15033   1.877   7.303  16.237 -0.9886 -1.5837  0.1947
  119CHL1  H19B15034   1.916   7.328  16.413  0.7216  1.5802 -0.3275
  119CHL1  H19C15035   2.051   7.321  16.292 -0.3125  0.0536 -1.2151
  119CHL1    C115036   1.806   7.080  16.350 -0.9648 -0.2041  0.1343
  119CHL1   H1A15037   1.746   7.129  16.270  0.3283  0.0346 -0.7231
  119CHL1   H1B15038   1.789   6.971  16.333 -1.5473 -0.2158  0.7661
  119CHL1    C215039   1.758   7.120  16.491  0.5924  0.6545  0.1950
  119CHL1   H2A15040   1.654   7.084  16.506  1.0077 -1.3544 -1.2624
  119CHL1   H2B15041   1.764   7.230  16.509  0.4278  0.3222  2.7217
  119CHL1   C2015042   2.212   7.163  15.665  0.3161 -0.8388  0.2507
  119CHL1   H2015043   2.243   7.268  15.685  0.6074 -0.9188  0.2192
  119CHL1   C2115044   2.073   7.152  15.604  0.4842  0.0955  0.6050
  119CHL1  H21A15045   2.040   7.047  15.587 -1.2849  1.0961 -3.2507
  119CHL1  H21B15046   2.061   7.197  15.503 -2.9194  1.0032  1.2944
  119CHL1  H21C15047   2.017   7.200  15.687  2.3965 -0.5079  2.3386
  119CHL1   C2215048   2.323   7.120  15.564 -0.7720 -1.0454  0.1512
  119CHL1  H22A15049   2.414   7.143  15.624 -2.9613  1.8913  2.5953
  119CHL1  H22B15050   2.318   7.012  15.539  2.3824 -1.5659  1.2233
  119CHL1   C2315051   2.335   7.210  15.440  0.1037  0.4053 -0.2529
  119CHL1  H23A15052   2.242   7.197  15.380  0.2215 -0.2529 -0.2961
  119CHL1  H23B15053   2.337   7.313  15.483 -0.8380  0.1915  0.3445
  119CHL1   C2415054   2.452   7.174  15.358 -0.3238 -1.0170 -0.0172
  119CHL1  H24A15055   2.541   7.190  15.421  0.6678 -0.0746 -1.5775
  119CHL1  H24B15056   2.442   7.069  15.323  0.4675 -1.1272  0.0688
  119CHL1   C2515057   2.477   7.250  15.228 -0.1159  0.0357 -0.3053
  119CHL1   H2515058   2.491   7.354  15.265  1.7933 -0.0586 -0.6471
  119CHL1   C2615059   2.609   7.213  15.160  0.2660  0.2152 -0.8134
  119CHL1  H26A15060   2.595   7.106  15.135 -0.2118 -0.4064  1.8349
  119CHL1  H26B15061   2.634   7.278  15.073  0.8827  1.6528  0.3969
  119CHL1  H26C15062   2.684   7.219  15.242 -1.9002 -2.2285  1.5302
  119CHL1   C2715063   2.352   7.239  15.146  0.1806  0.9979  0.1938
  119CHL1  H27A15064   2.377   7.272  15.043 -1.4070 -1.0054 -0.8946
  119CHL1  H27B15065   2.319   7.134  15.135 -0.1067  1.0466  0.5581
  119CHL1  H27C15066   2.270   7.299  15.193 -1.2148 -1.2079  0.7155
  120CHL1    C315067   1.033   6.905  16.271 -0.0698 -0.2026 -0.0990
  120CHL1    H315068   1.144   6.912  16.272  0.0153  0.6177 -3.5359
  120CHL1    O315069   0.978   6.917  16.403  0.1620  0.3220 -0.5169
  120CHL1   H3'15070   0.888   6.884  16.402  1.1032 -2.5847 -3.1348
  120CHL1    C415071   0.974   7.016  16.187 -0.0396  0.4218  0.2191
  120CHL1   H4A15072   0.864   7.005  16.183 -0.2160  1.1325  2.1557
  120CHL1   H4B15073   0.995   7.111  16.241 -0.7194  0.2918  0.7151
  120CHL1    C515074   1.027   7.013  16.048 -0.9383 -0.0071  0.1387
  120CHL1    C615075   1.092   7.116  15.992 -0.3254  0.5490 -0.7873
  120CHL1    H615076   1.119   7.208  16.046 -2.1028 -0.4483  1.9801
  120CHL1    C715077   1.146   7.115  15.856  0.2612  0.5966  1.1549
  120CHL1   H7A15078   1.124   7.213  15.808  1.8649 -0.3211 -1.7040
  120CHL1   H7B15079   1.256   7.099  15.858  0.1351 -0.4995  0.2731
  120CHL1    C815080   1.100   7.005  15.760  0.2627  0.1340 -0.4636
  120CHL1    H815081   1.004   7.033  15.712  0.8353  4.4402  0.4628
  120CHL1   C1415082   1.196   6.986  15.644  0.3698  0.3287  0.0888
  120CHL1   H1415083   1.299   6.972  15.684  1.8039 -0.1940 -3.3941
  120CHL1   C1515084   1.206   7.107  15.553 -0.1211 -0.5478  0.4991
  120CHL1  H15A15085   1.114   7.158  15.520 -0.2060 -0.4929  0.8188
  120CHL1  H15B15086   1.273   7.182  15.600  3.4611 -2.2618 -1.4571
  120CHL1   C1615087   1.283   7.045  15.436 -0.2471 -0.3323  0.2143
  120CHL1  H16A15088   1.232   7.074  15.341  0.6605  2.2461  0.4377
  120CHL1  H16B15089   1.387   7.082  15.424 -0.6304  0.7365  0.0291
  120CHL1   C1715090   1.281   6.892  15.451  0.0803  0.5348 -0.0090
  120CHL1   H1715091   1.367   6.854  15.510 -0.1343 -0.3521 -0.2674
  120CHL1   C1315092   1.164   6.869  15.554 -0.4931 -0.1551  0.1656
  120CHL1   C1815093   1.031   6.882  15.486 -0.1762 -0.1196 -0.0931
  120CHL1  H18A15094   0.940   6.880  15.550 -0.1509  1.2253  0.0140
  120CHL1  H18B15095   1.015   6.980  15.436 -2.3070 -0.7625 -0.8065
  120CHL1  H18C15096   1.012   6.800  15.414 -0.5983  0.9852 -1.2737
  120CHL1   C1215097   1.170   6.744  15.641 -0.9266  0.4016  0.3053
  120CHL1  H12A15098   1.147   6.656  15.577  2.5996 -0.1311 -0.4727
  120CHL1  H12B15099   1.269   6.728  15.688 -0.6190 -1.8843 -0.9515
  120CHL1   C1115100   1.061   6.749  15.753  0.9488  0.3461 -0.1000
  120CHL1  H11A15101   0.959   6.752  15.709  0.8934 -0.0370 -0.0019
  120CHL1  H11B15102   1.059   6.653  15.809  0.3048  0.2224 -0.3235
  120CHL1    C915103   1.097   6.868  15.842 -0.3868 -0.1844 -0.5764
  120CHL1    H915104   1.199   6.841  15.877 -0.5211  0.8660  0.7027
  120CHL1   C1015105   1.011   6.877  15.973  0.7618 -1.2353  0.5709
  120CHL1   C1915106   0.863   6.871  15.916  0.4311 -0.1326 -0.0292
  120CHL1  H19A15107   0.781   6.876  15.991 -1.0118  2.4540 -1.6483
  120CHL1  H19B15108   0.841   6.948  15.839 -2.4367 -1.4651 -0.6633
  120CHL1  H19C15109   0.853   6.770  15.871 -0.3951 -0.2936  0.4972
  120CHL1    C115110   1.035   6.753  16.066  0.1051  0.7577  0.2409
  120CHL1   H1A15111   0.997   6.660  16.019 -3.3435  3.2722 -2.4730
  120CHL1   H1B15112   1.145   6.742  16.079  0.3020  1.0315 -1.0802
  120CHL1    C215113   0.982   6.771  16.214 -0.0877  0.3429  0.2540
  120CHL1   H2A15114   1.025   6.685  16.271  1.9834  1.1523  0.0019
  120CHL1   H2B15115   0.872   6.765  16.203 -0.4282  1.7946  2.3165
  120CHL1   C2015116   1.261   6.814  15.327  0.4002  0.3573  0.0520
  120CHL1   H2015117   1.160   6.821  15.280  0.6577 -2.0220 -0.9994
  120CHL1   C2115118   1.276   6.665  15.358 -0.0836 -0.3078  0.2239
  120CHL1  H21A15119   1.364   6.633  15.419 -1.6780 -0.4509  2.6010
  120CHL1  H21B15120   1.280   6.597  15.271  0.2903 -0.4661  0.3643
  120CHL1  H21C15121   1.177   6.633  15.399 -0.8481  0.6081 -0.8558
  120CHL1   C2215122   1.364   6.851  15.214  0.4208  0.6396 -0.5881
  120CHL1  H22A15123   1.355   6.957  15.182  0.5470  0.6630 -0.5469
  120CHL1  H22B15124   1.470   6.840  15.246  0.5806  1.2964 -0.8633
  120CHL1   C2315125   1.362   6.769  15.082 -0.2308  0.0099  0.5267
  120CHL1  H23A15126   1.264   6.718  15.070  0.2025 -0.8239  0.4226
  120CHL1  H23B15127   1.382   6.835  14.996  0.5440  0.0460  0.7294
  120CHL1   C2415128   1.464   6.655  15.066  0.0901  0.5599  0.2020
  120CHL1  H24A15129   1.569   6.690  15.070 -0.3237  2.0296 -0.8948
  120CHL1  H24B15130   1.447   6.595  15.158  0.5775  0.0365 -0.0422
  120CHL1   C2515131   1.441   6.562  14.940  0.2697 -0.6043 -0.6043
  120CHL1   H2515132   1.330   6.549  14.935  0.2636 -1.2014  0.6060
  120CHL1   C2615133   1.495   6.630  14.815  0.4884 -0.4868 -0.0414
  120CHL1  H26A15134   1.447   6.730  14.802  1.3575 -0.1521 -0.7650
  120CHL1  H26B15135   1.603   6.644  14.839  0.1114 -1.1393  2.3580
  120CHL1  H26C15136   1.465   6.566  14.730  0.8120 -0.5230 -0.1309
  120CHL1   C2715137   1.506   6.429  14.953  0.2597  0.8563 -1.2117
  120CHL1  H27A15138   1.474   6.377  15.045  0.5023  2.6307 -0.0867
  120CHL1  H27B15139   1.481   6.364  14.866 -0.8354 -0.3102 -0.0630
  120CHL1  H27C15140   1.615   6.448  14.949  0.3870  0.3541 -0.2534
  121CHL1    C315141   5.306   3.352  13.287  0.4766  0.0657 -0.2022
  121CHL1    H315142   5.344   3.249  13.304  1.3095  0.0068 -2.1495
  121CHL1    O315143   5.294   3.372  13.149 -0.4079 -0.2290 -0.2260
  121CHL1   H3'15144   5.256   3.460  13.142 -0.1676 -0.0962  0.1522
  121CHL1    C415145   5.162   3.367  13.343 -0.2915  0.2067 -0.1026
  121CHL1   H4A15146   5.114   3.457  13.299 -0.8033 -0.5572 -1.1410
  121CHL1   H4B15147   5.109   3.278  13.303  1.3186 -1.3413  1.0803
  121CHL1    C515148   5.152   3.381  13.495 -0.1015  0.2073  0.2537
  121CHL1    C615149   5.071   3.307  13.566  0.5519 -0.1408 -0.4684
  121CHL1    H615150   5.005   3.241  13.508  0.4395  1.3346 -2.0973
  121CHL1    C715151   5.040   3.323  13.714  0.4369 -0.2301  0.1173
  121CHL1   H7A15152   4.931   3.320  13.737  0.5478  0.9633  0.9197
  121CHL1   H7B15153   5.092   3.236  13.759  1.3279  0.0429 -0.3460
  121CHL1    C815154   5.096   3.461  13.764 -0.2624  0.4828 -0.3175
  121CHL1    H815155   5.027   3.539  13.724 -0.5225  0.6441  0.4318
  121CHL1   C1415156   5.102   3.456  13.918 -0.2390  0.5757 -0.3398
  121CHL1   H1415157   5.184   3.388  13.951 -0.9225  0.5946  1.5357
  121CHL1   C1515158   4.977   3.403  13.998  0.3921 -0.2890 -0.0557
  121CHL1  H15A15159   4.877   3.433  13.961 -0.9769 -1.4136  2.5286
  121CHL1  H15B15160   4.962   3.293  13.995 -1.5853 -0.0564  0.3088
  121CHL1   C1615161   4.998   3.449  14.146  0.4556 -0.7948  0.4850
  121CHL1  H16A15162   4.905   3.491  14.190  0.9925  2.2346 -0.9935
  121CHL1  H16B15163   5.035   3.366  14.210  1.7813  0.6285  1.6400
  121CHL1   C1715164   5.112   3.560  14.133  1.1067 -0.6634 -0.1112
  121CHL1   H1715165   5.207   3.509  14.160  0.2433 -1.6525  1.1549
  121CHL1   C1315166   5.127   3.589  13.980 -0.4001 -0.5452 -0.2231
  121CHL1   C1815167   5.017   3.687  13.934 -0.1228  0.3354 -0.4525
  121CHL1  H18A15168   4.914   3.652  13.958 -0.0302 -0.1578 -0.7618
  121CHL1  H18B15169   5.034   3.785  13.983  0.9323  0.1745 -0.4756
  121CHL1  H18C15170   5.026   3.707  13.826 -0.9025 -1.0435 -0.8024
  121CHL1   C1215171   5.271   3.626  13.930 -0.1865 -0.5411 -0.5668
  121CHL1  H12A15172   5.302   3.729  13.960  1.0645 -1.1867  0.4929
  121CHL1  H12B15173   5.341   3.559  13.984 -0.1562  1.4548  2.0935
  121CHL1   C1115174   5.294   3.623  13.777 -0.2384  0.4465  0.1717
  121CHL1  H11A15175   5.251   3.720  13.743  0.0401  0.5710  0.1671
  121CHL1  H11B15176   5.404   3.622  13.761 -0.2187 -1.1215  0.2791
  121CHL1    C915177   5.235   3.495  13.708 -0.1759 -0.2890 -0.7531
  121CHL1    H915178   5.299   3.413  13.746 -1.1109 -0.2096  1.1153
  121CHL1   C1015179   5.237   3.493  13.553 -0.5708 -0.7835  0.1376
  121CHL1   C1915180   5.184   3.629  13.496  0.0239  0.0312  0.2309
  121CHL1  H19A15181   5.178   3.627  13.385 -2.2930 -1.0385  0.3245
  121CHL1  H19B15182   5.078   3.645  13.525 -0.7390 -2.3160 -0.9883
  121CHL1  H19C15183   5.253   3.713  13.520  1.4881 -1.0221 -0.0897
  121CHL1    C115184   5.388   3.472  13.506  0.3260  0.2312 -1.0393
  121CHL1   H1A15185   5.442   3.561  13.543 -1.1607  0.8848 -0.3716
  121CHL1   H1B15186   5.425   3.377  13.551 -1.2051 -0.3109 -0.8648
  121CHL1    C215187   5.398   3.460  13.353  0.0031 -0.1416 -0.5939
  121CHL1   H2A15188   5.500   3.437  13.315 -0.6319 -0.3248 -2.2949
  121CHL1   H2B15189   5.367   3.547  13.291  2.1528  0.2562 -1.1969
  121CHL1   C2015190   5.089   3.682  14.224  0.4739  1.0461 -0.0801
  121CHL1   H2015191   4.997   3.733  14.188  0.7201  2.5763  1.3399
  121CHL1   C2115192   5.190   3.788  14.194  0.2546  0.0280 -0.0673
  121CHL1  H21A15193   5.293   3.770  14.231 -1.1640 -2.6032  2.9506
  121CHL1  H21B15194   5.160   3.880  14.250 -0.4869  1.1043 -2.1127
  121CHL1  H21C15195   5.193   3.825  14.089  2.0126 -0.6755 -0.2985
  121CHL1   C2215196   5.071   3.649  14.375  0.1634 -1.2891  0.1037
  121CHL1  H22A15197   5.058   3.741  14.435  1.8189 -1.5048  0.8396
  121CHL1  H22B15198   4.978   3.591  14.390 -1.5833  1.8390  2.7895
  121CHL1   C2315199   5.192   3.577  14.431  0.2911  0.0625  1.3885
  121CHL1  H23A15200   5.209   3.491  14.362 -0.4665  1.4824 -0.6932
  121CHL1  H23B15201   5.281   3.642  14.425  0.1911  0.0680 -1.1508
  121CHL1   C2415202   5.162   3.514  14.568  0.4103  0.1416 -0.3841
  121CHL1  H24A15203   5.144   3.605  14.629  2.5424  1.8264 -2.0745
  121CHL1  H24B15204   5.067   3.458  14.563 -0.2091  0.9032  1.8026
  121CHL1   C2515205   5.286   3.433  14.620  0.5456 -0.5143  0.3106
  121CHL1   H2515206   5.381   3.484  14.592  0.3172 -0.2882 -0.0598
  121CHL1   C2615207   5.281   3.443  14.769  0.3905 -0.2089  0.7236
  121CHL1  H26A15208   5.348   3.376  14.826 -1.3427 -1.1704  1.7044
  121CHL1  H26B15209   5.305   3.545  14.808  0.9727 -0.1511  0.2360
  121CHL1  H26C15210   5.181   3.411  14.802  0.3054 -0.4757  0.2119
  121CHL1   C2715211   5.279   3.293  14.570  0.4274 -0.3203 -0.2344
  121CHL1  H27A15212   5.366   3.232  14.601 -0.3506 -1.7748 -0.8183
  121CHL1  H27B15213   5.193   3.229  14.598  0.2239  0.9059  2.2534
  121CHL1  H27C15214   5.278   3.288  14.459 -0.9857  0.2033 -0.2708
  122CHL1    C315215   3.858   2.003  13.247  0.3030  0.7296  1.0611
  122CHL1    H315216   3.969   2.000  13.246  0.4284  3.0987  0.7724
  122CHL1    O315217   3.805   2.012  13.116 -0.8221 -0.4872 -0.0630
  122CHL1   H3'15218   3.724   2.060  13.137 -0.5208 -0.0483  0.1287
  122CHL1    C415219   3.805   1.875  13.320  0.3333 -0.2550  0.1738
  122CHL1   H4A15220   3.694   1.878  13.312  0.2316  2.6354  1.3220
  122CHL1   H4B15221   3.853   1.799  13.255  1.0092  0.2755  0.0449
  122CHL1    C515222   3.830   1.874  13.467  0.2754 -0.6713 -0.1423
  122CHL1    C615223   3.888   1.767  13.524  0.2878 -0.6196  0.7593
  122CHL1    H615224   3.914   1.684  13.457  3.5121  1.6882 -1.0969
  122CHL1    C715225   3.896   1.755  13.672 -0.0020  0.0999  0.3455
  122CHL1   H7A15226   3.862   1.658  13.712 -0.6554  1.1763  2.5562
  122CHL1   H7B15227   4.005   1.756  13.694  0.0215  1.6402  0.3112
  122CHL1    C815228   3.819   1.860  13.752 -0.2592 -0.2504  0.3264
  122CHL1    H815229   3.711   1.833  13.751  0.1121 -1.8924  1.0165
  122CHL1   C1415230   3.873   1.852  13.896 -0.3842  0.2545 -0.5870
  122CHL1   H1415231   3.982   1.869  13.885 -0.5031  0.8447 -0.8715
  122CHL1   C1515232   3.866   1.723  13.974 -0.2921  0.1374  0.0622
  122CHL1  H15A15233   3.770   1.675  13.946 -0.3526  0.9414 -1.1821
  122CHL1  H15B15234   3.947   1.649  13.958 -0.3217  0.0066  0.4873
  122CHL1   C1615235   3.873   1.763  14.122  0.3943 -0.4687 -0.0145
  122CHL1  H16A15236   3.777   1.732  14.171  0.1814 -1.1723 -0.8568
  122CHL1  H16B15237   3.966   1.730  14.173  0.8004  0.4440 -0.1424
  122CHL1   C1715238   3.885   1.923  14.122  0.2043 -0.4490  0.3325
  122CHL1   H1715239   3.994   1.940  14.107 -0.0511  0.8033 -0.2338
  122CHL1   C1315240   3.818   1.961  13.989 -0.1299  0.1865  0.2295
  122CHL1   C1815241   3.664   1.941  14.003  0.2184  0.1482  0.1863
  122CHL1  H18A15242   3.640   1.844  14.051  2.1695 -0.1683  0.6062
  122CHL1  H18B15243   3.613   2.020  14.062 -1.0372 -0.5175  0.0242
  122CHL1  H18C15244   3.616   1.952  13.903  1.0087  0.8377 -0.1283
  122CHL1   C1215245   3.846   2.104  13.930 -0.9919  0.7370  0.5928
  122CHL1  H12A15246   3.820   2.200  13.980  1.1215  1.7620 -0.1374
  122CHL1  H12B15247   3.957   2.118  13.925 -0.6411 -1.4558  1.3142
  122CHL1   C1115248   3.789   2.114  13.780 -0.1338  0.3072  0.0150
  122CHL1  H11A15249   3.679   2.103  13.781 -0.1788  0.5528 -0.9376
  122CHL1  H11B15250   3.827   2.208  13.735 -1.0329 -0.1705 -1.8889
  122CHL1    C915251   3.836   1.998  13.688  0.3135  0.0136  0.4106
  122CHL1    H915252   3.947   2.007  13.684  0.1943  2.2633  0.9101
  122CHL1   C1015253   3.787   2.003  13.542 -0.3420  0.1869 -0.1701
  122CHL1   C1915254   3.633   1.999  13.539 -0.1166 -0.7550 -0.5918
  122CHL1  H19A15255   3.600   2.081  13.608  2.3625  0.2077 -0.4515
  122CHL1  H19B15256   3.585   2.018  13.441 -0.6969  0.5633 -0.0892
  122CHL1  H19C15257   3.595   1.906  13.587 -0.9513  0.0209  0.3052
  122CHL1    C115258   3.845   2.124  13.473 -0.1941  0.2123  0.0322
  122CHL1   H1A15259   3.802   2.215  13.520 -0.3876 -1.2725  2.9305
  122CHL1   H1B15260   3.955   2.136  13.486 -0.3626  1.3728  0.5435
  122CHL1    C215261   3.819   2.129  13.317  0.2109  0.8717  0.3814
  122CHL1   H2A15262   3.873   2.216  13.273  0.8958  0.4838  0.4375
  122CHL1   H2B15263   3.711   2.149  13.300  0.3776 -0.8237 -3.8630
  122CHL1   C2015264   3.840   1.981  14.260 -0.3321  0.4465  0.3442
  122CHL1   H2015265   3.736   1.941  14.271 -0.0510 -0.3663  0.1087
  122CHL1   C2115266   3.841   2.135  14.251  0.1672 -0.0934 -0.0178
  122CHL1  H21A15267   3.763   2.166  14.179  1.8307  0.9894 -1.4375
  122CHL1  H21B15268   3.944   2.165  14.222  0.3119  0.5491  1.1004
  122CHL1  H21C15269   3.817   2.175  14.352  0.7786  0.0996  0.0511
  122CHL1   C2215270   3.930   1.916  14.371 -0.4619 -0.0984  0.2517
  122CHL1  H22A15271   3.940   1.805  14.370  4.0994  0.0711 -2.0527
  122CHL1  H22B15272   4.036   1.946  14.355 -0.5629  0.9806  1.4895
  122CHL1   C2315273   3.899   1.961  14.518 -0.3136  0.5018 -0.0076
  122CHL1  H23A15274   3.961   2.051  14.536 -2.0034  1.3989  1.6875
  122CHL1  H23B15275   3.792   1.992  14.523  0.0373  1.7809 -0.2134
  122CHL1   C2415276   3.943   1.864  14.623 -0.5100  0.6853 -0.6615
  122CHL1  H24A15277   3.881   1.774  14.605 -0.2358  0.5452 -0.9150
  122CHL1  H24B15278   4.052   1.841  14.618 -0.7546 -0.4507 -0.8200
  122CHL1   C2515279   3.913   1.905  14.772 -0.4040  0.0540 -0.3121
  122CHL1   H2515280   3.943   1.826  14.844  1.0087 -1.4506 -2.3969
  122CHL1   C2615281   3.998   2.037  14.809  0.4385 -0.2150  0.6981
  122CHL1  H26A15282   3.966   2.063  14.912  1.6875  0.5935  0.9131
  122CHL1  H26B15283   4.109   2.023  14.805  0.3948 -0.5123  0.4758
  122CHL1  H26C15284   3.967   2.122  14.744 -2.2408  0.2701  2.4846
  122CHL1   C2715285   3.770   1.944  14.794  0.0774  0.4570 -0.2574
  122CHL1  H27A15286   3.766   1.998  14.890  3.1097 -1.0662  0.8689
  122CHL1  H27B15287   3.733   2.021  14.723 -1.2219  0.7380  0.6897
  122CHL1  H27C15288   3.712   1.850  14.781  3.0039 -1.8397  1.8637
  123CHL1    C315289   6.495   3.168  13.057  0.1080 -0.7171  0.5866
  123CHL1    H315290   6.585   3.232  13.074  1.1083 -2.1202  0.7251
  123CHL1    O315291   6.498   3.131  12.922 -0.2200 -0.6025 -0.1634
  123CHL1   H3'15292   6.412   3.090  12.909 -0.2195 -0.9832  0.9531
  123CHL1    C415293   6.503   3.046  13.149  0.1655 -0.1814  0.3055
  123CHL1   H4A15294   6.418   2.978  13.126 -0.5427  1.5338 -2.8278
  123CHL1   H4B15295   6.596   2.988  13.130  0.5166 -0.2825  2.1749
  123CHL1    C515296   6.481   3.079  13.296  1.2992  0.2201  0.0871
  123CHL1    C615297   6.565   3.038  13.390  0.0367 -0.3804 -0.0889
  123CHL1    H615298   6.658   2.983  13.368  0.8877  0.7400  0.6275
  123CHL1    C715299   6.555   3.075  13.534 -0.0573 -0.3830 -0.2667
  123CHL1   H7A15300   6.581   2.983  13.590  0.3254 -0.5356 -0.6824
  123CHL1   H7B15301   6.637   3.144  13.563 -0.9403  0.1028  1.1503
  123CHL1    C815302   6.414   3.131  13.567 -0.4353 -0.1947 -0.4505
  123CHL1    H815303   6.347   3.041  13.570 -0.9793  0.1929 -0.7925
  123CHL1   C1415304   6.409   3.192  13.705 -0.3927 -0.5264 -0.5906
  123CHL1   H1415305   6.462   3.290  13.701 -0.4508 -0.4406  0.3893
  123CHL1   C1515306   6.488   3.113  13.814  0.0138 -0.1294 -0.5522
  123CHL1  H15A15307   6.466   3.005  13.810 -2.0250  0.0087  2.7863
  123CHL1  H15B15308   6.599   3.122  13.813  0.1124 -1.2626 -0.7921
  123CHL1   C1615309   6.433   3.176  13.943 -0.3292  0.5487 -0.2962
  123CHL1  H16A15310   6.391   3.097  14.009 -0.9220 -0.1324 -1.4493
  123CHL1  H16B15311   6.519   3.217  13.999 -0.9645  0.1193  1.0322
  123CHL1   C1715312   6.322   3.279  13.904  0.2286 -0.3137  0.8502
  123CHL1   H1715313   6.367   3.379  13.884  0.2079 -0.5913 -0.6706
  123CHL1   C1315314   6.268   3.235  13.763  0.3149 -0.1961 -0.1964
  123CHL1   C1815315   6.157   3.123  13.779 -0.8356  0.5876 -0.4302
  123CHL1  H18A15316   6.054   3.163  13.790 -0.9720  0.5156 -1.4112
  123CHL1  H18B15317   6.168   3.063  13.686  1.9032  0.8247 -0.3415
  123CHL1  H18C15318   6.182   3.048  13.858  1.1883  0.7623 -0.8543
  123CHL1   C1215319   6.221   3.343  13.661  0.3861  0.4642  0.1969
  123CHL1  H12A15320   6.124   3.389  13.688 -1.0335 -2.6042  0.7213
  123CHL1  H12B15321   6.300   3.421  13.658  1.9772 -1.0883 -0.3959
  123CHL1   C1115322   6.220   3.289  13.514  0.7443 -0.3567  0.1966
  123CHL1  H11A15323   6.147   3.206  13.521  1.8178 -1.3499 -0.0624
  123CHL1  H11B15324   6.176   3.371  13.452  0.2668  0.5510  1.6935
  123CHL1    C915325   6.354   3.230  13.466 -0.1736  0.3948 -0.2085
  123CHL1    H915326   6.430   3.310  13.484  1.6699 -1.6670  1.7934
  123CHL1   C1015327   6.357   3.175  13.322  1.1178  0.2485  0.5404
  123CHL1   C1915328   6.233   3.092  13.300  0.5060 -0.1632 -0.3494
  123CHL1  H19A15329   6.142   3.153  13.285 -0.7428 -1.9622 -0.3232
  123CHL1  H19B15330   6.237   3.041  13.202 -0.7202  2.1080 -1.6581
  123CHL1  H19C15331   6.209   3.018  13.379  1.5819 -0.9756 -0.7630
  123CHL1    C115332   6.354   3.290  13.225 -0.2723 -0.3242 -0.2218
  123CHL1   H1A15333   6.255   3.337  13.248  0.3814  0.6372  0.7032
  123CHL1   H1B15334   6.443   3.350  13.253 -1.4050  0.3847  2.1468
  123CHL1    C215335   6.370   3.250  13.075  0.2344  0.4121  0.2070
  123CHL1   H2A15336   6.390   3.346  13.022  1.7250  0.1520  0.2393
  123CHL1   H2B15337   6.277   3.205  13.035  0.7861 -0.0017 -0.6344
  123CHL1   C2015338   6.227   3.321  14.017 -0.1198  0.3044 -0.2841
  123CHL1   H2015339   6.170   3.238  14.064 -1.7524  2.4430  1.7963
  123CHL1   C2115340   6.132   3.429  13.961  0.3045 -0.1555  0.2789
  123CHL1  H21A15341   6.176   3.508  13.897 -0.1512 -0.8496 -0.9363
  123CHL1  H21B15342   6.079   3.480  14.044 -0.2098 -2.4304  1.4407
  123CHL1  H21C15343   6.049   3.386  13.901  0.7901  0.4083 -0.8194
  123CHL1   C2215344   6.313   3.372  14.139  0.0565 -0.4363  0.5655
  123CHL1  H22A15345   6.388   3.296  14.172  0.6504 -0.0484  0.1206
  123CHL1  H22B15346   6.378   3.452  14.099  0.4106 -0.5214  0.9601
  123CHL1   C2315347   6.231   3.431  14.252  0.2489  0.2804  0.2623
  123CHL1  H23A15348   6.165   3.517  14.230 -0.3055 -0.1103  0.3932
  123CHL1  H23B15349   6.162   3.348  14.278 -2.5442  1.8971 -1.5092
  123CHL1   C2415350   6.308   3.462  14.380 -0.0423 -0.1543  0.2401
  123CHL1  H24A15351   6.365   3.369  14.400 -0.3029 -0.6929 -1.3467
  123CHL1  H24B15352   6.381   3.545  14.372  1.1446 -1.1946 -0.0326
  123CHL1   C2515353   6.210   3.483  14.495 -0.1930 -0.2332 -0.4188
  123CHL1   H2515354   6.143   3.393  14.496  0.0873 -0.4748 -1.7738
  123CHL1   C2615355   6.278   3.497  14.624 -0.6134 -0.0431 -0.6947
  123CHL1  H26A15356   6.206   3.516  14.706 -0.4836  0.6596 -0.7385
  123CHL1  H26B15357   6.338   3.405  14.640  0.5520  0.5141 -1.7011
  123CHL1  H26C15358   6.348   3.583  14.629 -1.6111  0.7448  2.7431
  123CHL1   C2715359   6.109   3.596  14.487  0.8298  0.0788  0.1552
  123CHL1  H27A15360   6.055   3.601  14.390 -0.2071 -0.4994  0.6898
  123CHL1  H27B15361   6.025   3.578  14.557  2.0321 -1.7227  1.2019
  123CHL1  H27C15362   6.151   3.695  14.516 -0.2049  0.8033 -0.7303
  124CHL1    C315363   4.587   4.794  13.523  0.1720 -0.4586  0.4349
  124CHL1    H315364   4.497   4.728  13.516 -0.9900  1.1556 -0.5120
  124CHL1    O315365   4.642   4.789  13.393  0.1978 -0.0432 -0.4844
  124CHL1   H3'15366   4.703   4.863  13.394 -2.4214  2.3095  0.8729
  124CHL1    C415367   4.552   4.939  13.558 -0.6379  0.3051  0.4975
  124CHL1   H4A15368   4.655   4.980  13.562  1.6407 -4.7787  1.1447
  124CHL1   H4B15369   4.491   4.983  13.477 -0.5098 -0.6817 -0.1557
  124CHL1    C515370   4.495   4.951  13.702 -0.1071  1.1498  0.0086
  124CHL1    C615371   4.370   4.999  13.727 -0.3706  0.2247 -0.1986
  124CHL1    H615372   4.305   5.032  13.645 -0.2379 -0.8277 -0.7524
  124CHL1    C715373   4.313   5.002  13.868  0.1957  0.3951  0.4602
  124CHL1   H7A15374   4.256   5.096  13.887 -1.5707 -0.5257 -0.0450
  124CHL1   H7B15375   4.248   4.913  13.882 -2.3987  1.9448 -0.7265
  124CHL1    C815376   4.420   4.989  13.982  0.4795  0.3034 -0.5032
  124CHL1    H815377   4.478   5.084  13.980  1.3421 -0.2025 -0.1636
  124CHL1   C1415378   4.347   4.977  14.115  0.7737 -0.4344  0.4765
  124CHL1   H1415379   4.283   4.887  14.101  1.0454 -0.3249 -1.7839
  124CHL1   C1515380   4.245   5.094  14.148 -0.4087 -0.1893  0.2221
  124CHL1  H15A15381   4.290   5.191  14.120 -2.6743  0.8652  0.0113
  124CHL1  H15B15382   4.150   5.077  14.092  0.9795  0.0270 -2.3648
  124CHL1   C1615383   4.228   5.069  14.299  0.0174 -0.1548 -0.4065
  124CHL1  H16A15384   4.241   5.158  14.365  1.1006  1.1176 -2.2514
  124CHL1  H16B15385   4.124   5.032  14.312 -0.0812 -0.6534 -2.3238
  124CHL1   C1715386   4.329   4.961  14.350  0.6935  0.4914 -0.1276
  124CHL1   H1715387   4.266   4.870  14.345 -0.8775  1.3504  2.1330
  124CHL1   C1315388   4.435   4.955  14.238  0.3901  0.3690  0.0593
  124CHL1   C1815389   4.536   5.071  14.254  0.1974 -0.5114  0.1532
  124CHL1  H18A15390   4.621   5.079  14.184 -0.1721  0.6492 -0.2039
  124CHL1  H18B15391   4.495   5.175  14.248 -1.2904 -1.0611  0.2384
  124CHL1  H18C15392   4.587   5.060  14.351  0.6556  0.7253  0.0708
  124CHL1   C1215393   4.521   4.825  14.217 -0.4481 -0.4267  0.5321
  124CHL1  H12A15394   4.587   4.817  14.306  1.4136  1.3437 -0.6160
  124CHL1  H12B15395   4.448   4.741  14.216  0.9198 -1.6943 -1.6920
  124CHL1   C1115396   4.597   4.832  14.085  0.0660  0.0259  0.1405
  124CHL1  H11A15397   4.683   4.903  14.083  0.3339 -0.2841  0.4988
  124CHL1  H11B15398   4.638   4.730  14.067 -0.9294 -0.4064  0.2994
  124CHL1    C915399   4.503   4.868  13.959  0.0709  0.5013  1.5401
  124CHL1    H915400   4.427   4.789  13.941 -1.1760  0.9706  4.3237
  124CHL1   C1015401   4.581   4.892  13.819 -0.1761 -0.3090 -0.2751
  124CHL1   C1915402   4.690   4.997  13.847  0.0038  0.3249  0.7840
  124CHL1  H19A15403   4.736   5.016  13.747 -0.1578  0.5898  0.7591
  124CHL1  H19B15404   4.665   5.097  13.888  1.8732  1.3092 -0.3622
  124CHL1  H19C15405   4.772   4.953  13.908  0.3612  0.3191  0.3052
  124CHL1    C115406   4.630   4.753  13.766  0.0198 -0.0636  0.2339
  124CHL1   H1A15407   4.699   4.713  13.843 -1.4865 -0.8707  1.2062
  124CHL1   H1B15408   4.536   4.694  13.773 -0.1995 -0.0286 -1.8121
  124CHL1    C215409   4.682   4.739  13.626  0.3205 -0.2751 -0.1534
  124CHL1   H2A15410   4.723   4.637  13.607  0.4802 -0.4887  1.2103
  124CHL1   H2B15411   4.780   4.792  13.619  0.5593 -0.8001 -1.0536
  124CHL1   C2015412   4.387   4.985  14.495 -0.3633  0.0748 -0.0218
  124CHL1   H2015413   4.455   5.072  14.490  1.0366 -0.9557  0.4419
  124CHL1   C2115414   4.479   4.872  14.536 -0.4708  0.0921 -0.4110
  124CHL1  H21A15415   4.578   4.884  14.487  1.1207 -0.0388  2.5664
  124CHL1  H21B15416   4.437   4.773  14.507 -0.5918  0.5128 -1.7373
  124CHL1  H21C15417   4.504   4.865  14.644  0.5750 -2.0995 -0.7425
  124CHL1   C2215418   4.278   4.999  14.602  0.8985 -0.4489  0.4537
  124CHL1  H22A15419   4.329   5.000  14.701 -1.0226  0.0860  1.4854
  124CHL1  H22B15420   4.226   5.096  14.590  2.7428  0.3421 -2.1176
  124CHL1   C2315421   4.171   4.884  14.619 -0.0778 -1.0666 -0.7190
  124CHL1  H23A15422   4.100   4.875  14.534 -0.6121 -0.9386 -0.2957
  124CHL1  H23B15423   4.225   4.787  14.611 -1.0271 -1.5238 -1.9382
  124CHL1   C2415424   4.091   4.881  14.754 -0.3348 -0.0736 -0.1524
  124CHL1  H24A15425   4.154   4.858  14.843  0.1934  1.5561 -0.0788
  124CHL1  H24B15426   4.039   4.977  14.774  0.1651 -0.1229  1.5616
  124CHL1   C2515427   3.977   4.775  14.745  0.2274 -0.5530 -0.4196
  124CHL1   H2515428   3.904   4.806  14.668 -0.8395 -0.6371  0.5182
  124CHL1   C2615429   4.032   4.633  14.718  0.3951 -0.0002 -0.4686
  124CHL1  H26A15430   4.082   4.617  14.620  0.5474 -0.9449 -0.2522
  124CHL1  H26B15431   4.089   4.596  14.805 -0.5886  0.7747  0.5323
  124CHL1  H26C15432   3.944   4.565  14.717  1.1571 -1.0231 -0.0026
  124CHL1   C2715433   3.904   4.774  14.880 -0.3109  0.3246  0.4507
  124CHL1  H27A15434   3.832   4.690  14.891 -1.5908  1.4719  1.0128
  124CHL1  H27B15435   3.972   4.767  14.967 -0.0475  3.1258  0.5646
  124CHL1  H27C15436   3.840   4.864  14.894  0.3849  0.6446  1.6857
  125CHL1    C315437   4.351   4.375  13.521 -0.3565 -0.5519  0.9090
  125CHL1    H315438   4.242   4.357  13.532 -0.3812 -0.2644  1.1592
  125CHL1    O315439   4.388   4.390  13.385  0.2320 -0.4517  0.0861
  125CHL1   H3'15440   4.377   4.308  13.336 -0.5341 -1.5499  1.9577
  125CHL1    C415441   4.382   4.501  13.598  0.4567 -0.5836  0.2937
  125CHL1   H4A15442   4.491   4.519  13.598  0.4979 -0.7730  1.4141
  125CHL1   H4B15443   4.328   4.587  13.552 -1.3451 -0.9495  1.6050
  125CHL1    C515444   4.342   4.490  13.744  0.2210 -0.3110 -0.0457
  125CHL1    C615445   4.251   4.576  13.793  0.1611  0.6940 -0.7820
  125CHL1    H615446   4.209   4.660  13.737 -0.4351  0.3812 -0.8071
  125CHL1    C715447   4.197   4.555  13.931  0.6112  0.2679 -0.8227
  125CHL1   H7A15448   4.170   4.651  13.979  1.8317 -0.6801  1.9801
  125CHL1   H7B15449   4.112   4.483  13.929  2.1145 -1.6196 -0.5893
  125CHL1    C815450   4.289   4.466  14.025 -0.1880  0.0961  0.4770
  125CHL1    H815451   4.383   4.525  14.036 -1.4454  2.6724 -1.4738
  125CHL1   C1415452   4.230   4.433  14.160  0.1207 -0.3775  0.5139
  125CHL1   H1415453   4.147   4.360  14.147 -0.2938 -0.1638  1.8350
  125CHL1   C1515454   4.183   4.555  14.242  0.8782  0.9724 -0.1464
  125CHL1  H15A15455   4.213   4.660  14.226 -1.0926  1.7833  1.1216
  125CHL1  H15B15456   4.074   4.557  14.221  1.2554 -0.7300 -2.7711
  125CHL1   C1615457   4.185   4.503  14.387  0.5344  0.3036 -0.0003
  125CHL1  H16A15458   4.263   4.563  14.440  2.3140 -1.0941 -0.8997
  125CHL1  H16B15459   4.089   4.517  14.440  1.1235  1.8834  0.7084
  125CHL1   C1715460   4.237   4.357  14.377  0.2734  0.3270 -0.2775
  125CHL1   H1715461   4.150   4.292  14.353  0.7471 -0.4219  0.0291
  125CHL1   C1315462   4.322   4.353  14.251  0.1746  0.0899 -0.0632
  125CHL1   C1815463   4.456   4.431  14.270 -0.2922  0.1284  0.3284
  125CHL1  H18A15464   4.502   4.456  14.172  1.8632  1.1817  1.5409
  125CHL1  H18B15465   4.430   4.530  14.314 -0.6865 -0.3663  1.2583
  125CHL1  H18C15466   4.525   4.375  14.338  1.5233  3.4261  1.4099
  125CHL1   C1215467   4.352   4.222  14.186 -0.3071  0.7586 -0.3341
  125CHL1  H12A15468   4.414   4.155  14.250 -0.9618 -0.9014 -1.3514
  125CHL1  H12B15469   4.261   4.162  14.164  1.4885 -2.4984  0.3835
  125CHL1   C1115470   4.419   4.238  14.048  0.5457  0.4183  0.2576
  125CHL1  H11A15471   4.522   4.273  14.069  0.9608 -0.0911 -0.8574
  125CHL1  H11B15472   4.421   4.142  13.992 -0.5888  1.0995 -1.0455
  125CHL1    C915473   4.334   4.336  13.953 -0.4151 -0.4874  0.1398
  125CHL1    H915474   4.239   4.280  13.946 -0.7470  0.0263  0.4741
  125CHL1   C1015475   4.400   4.367  13.817  0.1665 -0.6394 -0.6607
  125CHL1   C1915476   4.555   4.392  13.828  0.3652  0.1765  0.1798
  125CHL1  H19A15477   4.598   4.403  13.726  0.2208 -0.5175  0.0391
  125CHL1  H19B15478   4.585   4.478  13.892 -3.2651  1.6420  0.1556
  125CHL1  H19C15479   4.613   4.304  13.863  2.9463  2.5242  2.3077
  125CHL1    C115480   4.379   4.243  13.728 -0.1064  0.0614 -0.0942
  125CHL1   H1A15481   4.446   4.161  13.763 -1.5984 -1.6768 -1.1646
  125CHL1   H1B15482   4.276   4.202  13.723 -0.0050 -0.0261 -1.9860
  125CHL1    C215483   4.419   4.255  13.583 -0.4704 -0.3473 -0.4736
  125CHL1   H2A15484   4.407   4.161  13.526  3.9942  0.2396 -2.8028
  125CHL1   H2B15485   4.528   4.279  13.578 -0.4763 -0.2689 -0.2570
  125CHL1   C2015486   4.290   4.288  14.500  0.0868 -0.6430  0.2943
  125CHL1   H2015487   4.350   4.203  14.460  0.5434  0.7992 -2.3286
  125CHL1   C2115488   4.165   4.228  14.578 -0.5849  0.2074 -0.5931
  125CHL1  H21A15489   4.213   4.154  14.646 -0.6172  0.2629 -0.5113
  125CHL1  H21B15490   4.096   4.175  14.510  1.4008 -0.1018 -2.4808
  125CHL1  H21C15491   4.111   4.301  14.642  2.2320  0.8321  1.2656
  125CHL1   C2215492   4.375   4.373  14.592  0.2273 -0.3084  0.4445
  125CHL1  H22A15493   4.472   4.395  14.544  0.0651 -1.3982 -0.4135
  125CHL1  H22B15494   4.318   4.466  14.611 -1.2340 -1.1146  0.1801
  125CHL1   C2315495   4.418   4.296  14.726  0.8162 -0.4387  0.9099
  125CHL1  H23A15496   4.488   4.363  14.779 -0.1430  0.0644  1.5710
  125CHL1  H23B15497   4.330   4.278  14.791  0.5626  0.0999  0.7126
  125CHL1   C2415498   4.486   4.166  14.706  0.0877 -0.3305  0.5792
  125CHL1  H24A15499   4.414   4.090  14.671 -1.8240  1.4353  0.5195
  125CHL1  H24B15500   4.565   4.186  14.631  0.0129 -1.7763  0.0849
  125CHL1   C2515501   4.560   4.113  14.832 -0.1214 -0.1470 -0.0099
  125CHL1   H2515502   4.599   4.014  14.800  0.1647  0.1654 -0.6579
  125CHL1   C2615503   4.687   4.196  14.876 -0.1270  0.1132  0.2250
  125CHL1  H26A15504   4.652   4.289  14.926  2.0465 -0.8256  3.9049
  125CHL1  H26B15505   4.742   4.137  14.952  1.7291 -1.1669 -1.9821
  125CHL1  H26C15506   4.757   4.211  14.792 -1.8234  0.2281 -1.2305
  125CHL1   C2715507   4.456   4.090  14.938 -0.1470 -0.7737 -0.2796
  125CHL1  H27A15508   4.429   4.190  14.978  0.8319 -0.1369 -1.1575
  125CHL1  H27B15509   4.362   4.045  14.898 -1.3413  0.5536  0.8722
  125CHL1  H27C15510   4.493   4.021  15.016 -0.4641  0.8410  1.3759
  126CHL1    C315511   4.013   4.044  13.347 -0.4424  0.5569 -0.5729
  126CHL1    H315512   4.061   3.955  13.392 -0.1440  0.5801 -0.8447
  126CHL1    O315513   4.038   4.034  13.205  0.0951 -0.1091 -0.0125
  126CHL1   H3'15514   4.016   4.121  13.171 -1.5757 -0.7898 -0.7878
  126CHL1    C415515   3.861   4.040  13.375  0.3717 -0.2260 -0.2230
  126CHL1   H4A15516   3.816   4.130  13.330  1.2780 -0.0200 -0.7443
  126CHL1   H4B15517   3.817   3.960  13.312 -2.2027  0.3329  0.7626
  126CHL1    C515518   3.825   4.030  13.524  0.6191 -0.2902  0.2506
  126CHL1    C615519   3.756   3.929  13.579 -0.2802 -0.2718 -0.0188
  126CHL1    H615520   3.713   3.849  13.517  2.5834  0.0421 -2.6664
  126CHL1    C715521   3.728   3.931  13.728  0.6082  0.0326 -0.4138
  126CHL1   H7A15522   3.621   3.906  13.742  0.3942  0.8498 -0.5185
  126CHL1   H7B15523   3.790   3.853  13.777 -0.5061 -1.1157 -0.7909
  126CHL1    C815524   3.750   4.070  13.801  0.3059  0.3033  0.6143
  126CHL1    H815525   3.657   4.131  13.791 -0.1567  0.0090  2.6189
  126CHL1   C1415526   3.754   4.041  13.953 -0.1631  0.0532  0.7257
  126CHL1   H1415527   3.837   3.971  13.977 -3.0146 -3.6976  0.5448
  126CHL1   C1515528   3.630   3.968  14.017 -0.2821 -0.1283  0.5922
  126CHL1  H15A15529   3.540   4.005  13.963  0.8041  0.0807 -1.1541
  126CHL1  H15B15530   3.643   3.858  14.004  0.0759  0.1289 -1.7162
  126CHL1   C1615531   3.624   4.003  14.170 -0.0740  0.5540 -0.0290
  126CHL1  H16A15532   3.525   4.050  14.188 -0.7651 -0.9611  0.3121
  126CHL1  H16B15533   3.632   3.910  14.229  1.9524  0.7561  0.0971
  126CHL1   C1715534   3.750   4.101  14.183  0.4736  0.8120 -0.2865
  126CHL1   H1715535   3.835   4.040  14.222  0.1918  1.1806  0.9324
  126CHL1   C1315536   3.779   4.159  14.041 -0.1545  0.2234 -0.9488
  126CHL1   C1815537   3.670   4.273  14.009 -0.3263 -0.0230  0.3663
  126CHL1  H18A15538   3.688   4.362  14.072 -0.0167 -1.4528  2.4084
  126CHL1  H18B15539   3.668   4.297  13.901  0.7610 -0.3930  0.2541
  126CHL1  H18C15540   3.567   4.236  14.028 -0.5820  1.0574  1.1265
  126CHL1   C1215541   3.922   4.210  14.006  0.1966 -0.8794 -0.7217
  126CHL1  H12A15542   3.944   4.306  14.057  0.5712 -1.4697  0.2489
  126CHL1  H12B15543   3.989   4.125  14.028 -1.6668 -2.6893 -1.5925
  126CHL1   C1115544   3.934   4.241  13.852 -0.3659  0.3197 -0.2133
  126CHL1  H11A15545   3.864   4.325  13.832 -0.2807  0.8552  1.5264
  126CHL1  H11B15546   4.034   4.279  13.822 -0.1610 -0.8865 -1.1569
  126CHL1    C915547   3.885   4.127  13.757  0.0519 -0.4882  0.0083
  126CHL1    H915548   3.961   4.047  13.774  2.0657  1.4304  0.5026
  126CHL1   C1015549   3.887   4.150  13.603 -0.2788  0.5831  0.5904
  126CHL1   C1915550   3.808   4.284  13.572  0.3042  0.7710  0.1719
  126CHL1  H19A15551   3.707   4.288  13.618 -0.0704  0.5213 -0.6148
  126CHL1  H19B15552   3.854   4.372  13.621 -0.5680  2.1853 -1.4355
  126CHL1  H19C15553   3.812   4.309  13.464  2.4437  0.6974  0.1991
  126CHL1    C115554   4.037   4.171  13.560 -0.4054 -0.4628  0.3637
  126CHL1   H1A15555   4.071   4.266  13.605  2.3617 -1.0634 -0.2967
  126CHL1   H1B15556   4.109   4.103  13.609  1.1743  1.3401  0.6492
  126CHL1    C215557   4.073   4.175  13.410  0.6415  0.1631  0.4209
  126CHL1   H2A15558   4.182   4.161  13.391 -0.1632 -2.8633 -3.3379
  126CHL1   H2B15559   4.032   4.262  13.354 -0.6050 -0.1898  0.7654
  126CHL1   C2015560   3.720   4.204  14.296 -0.3069  0.4908 -0.1008
  126CHL1   H2015561   3.654   4.282  14.252 -0.9878  0.1014  0.2243
  126CHL1   C2115562   3.853   4.274  14.339 -0.1714 -0.7165 -0.7210
  126CHL1  H21A15563   3.836   4.333  14.431  3.0116 -0.1892 -0.3605
  126CHL1  H21B15564   3.906   4.327  14.258  1.1677 -0.2901  0.4110
  126CHL1  H21C15565   3.925   4.194  14.366  0.3860  0.0162  0.0168
  126CHL1   C2215566   3.646   4.149  14.423  0.2923  0.1178  0.1154
  126CHL1  H22A15567   3.638   4.238  14.489  3.9363  0.3383  0.4153
  126CHL1  H22B15568   3.540   4.120  14.401  0.3301 -0.2153  0.3617
  126CHL1   C2315569   3.722   4.042  14.501 -0.0924 -0.8687 -0.6094
  126CHL1  H23A15570   3.746   3.960  14.430  1.9607 -1.6370  0.8794
  126CHL1  H23B15571   3.824   4.076  14.530 -0.2236  0.6490 -1.7534
  126CHL1   C2415572   3.642   4.001  14.631  0.0287 -0.0150 -0.7152
  126CHL1  H24A15573   3.590   4.089  14.672  2.1949  0.5699  0.9673
  126CHL1  H24B15574   3.565   3.935  14.587 -0.8359 -0.6830  1.6644
  126CHL1   C2515575   3.715   3.912  14.735  0.3394 -0.0297 -0.1937
  126CHL1   H2515576   3.774   3.844  14.670  0.9904  0.7431 -0.4305
  126CHL1   C2615577   3.824   3.978  14.822 -0.1007 -0.0713  0.5847
  126CHL1  H26A15578   3.769   4.043  14.893 -0.4179 -0.3691  0.6139
  126CHL1  H26B15579   3.891   3.904  14.870  0.8544  1.6492  2.0328
  126CHL1  H26C15580   3.885   4.038  14.751 -1.9727 -1.8444 -2.7972
  126CHL1   C2715581   3.620   3.827  14.819 -0.6407 -0.0208 -0.4245
  126CHL1  H27A15582   3.678   3.749  14.873 -2.9554 -0.2778  1.9391
  126CHL1  H27B15583   3.584   3.889  14.904 -0.0123  2.1985 -1.6841
  126CHL1  H27C15584   3.536   3.789  14.758 -2.4049 -0.8688  2.3269
  127CHL1    C315585   3.704   5.673  13.474  0.9022  0.1705 -0.1669
  127CHL1    H315586   3.623   5.729  13.525  1.2542 -1.4960  2.3956
  127CHL1    O315587   3.714   5.718  13.344  0.0830  0.2698  0.6693
  127CHL1   H3'15588   3.795   5.679  13.310 -1.3932 -2.5674  0.0959
  127CHL1    C415589   3.838   5.691  13.538  0.1199  0.1044 -0.8209
  127CHL1   H4A15590   3.919   5.633  13.489  1.0555 -0.0917  0.8812
  127CHL1   H4B15591   3.871   5.797  13.535  0.8089  0.0025  1.1698
  127CHL1    C515592   3.815   5.648  13.684 -0.2348 -0.2472  0.0631
  127CHL1    C615593   3.830   5.733  13.786 -0.4729 -0.4937  0.0986
  127CHL1    H615594   3.860   5.835  13.755  0.5336 -0.4698  1.0918
  127CHL1    C715595   3.828   5.700  13.930  0.5377 -0.1381 -0.7086
  127CHL1   H7A15596   3.912   5.746  13.986 -0.5339  2.7129 -1.2774
  127CHL1   H7B15597   3.743   5.737  13.991  1.6660  0.9003  0.2869
  127CHL1    C815598   3.841   5.545  13.952  0.4466 -0.5860 -0.3847
  127CHL1    H815599   3.950   5.523  13.943  0.0865 -2.0877 -1.5908
  127CHL1   C1415600   3.795   5.509  14.096  0.6194  0.9103  0.4210
  127CHL1   H1415601   3.685   5.525  14.089  0.4554 -0.6514 -4.4447
  127CHL1   C1515602   3.840   5.594  14.212 -1.0629  0.4598  0.0570
  127CHL1  H15A15603   3.948   5.623  14.212 -0.7868 -0.4646 -1.1330
  127CHL1  H15B15604   3.795   5.696  14.215  1.1344  1.5749 -1.3552
  127CHL1   C1615605   3.813   5.508  14.337  0.0780  0.5805  0.3670
  127CHL1  H16A15606   3.909   5.476  14.383 -0.1127 -1.3985 -0.4809
  127CHL1  H16B15607   3.737   5.556  14.402 -2.2538  0.6754 -2.2453
  127CHL1   C1715608   3.751   5.375  14.285 -0.7784  0.5457  0.1741
  127CHL1   H1715609   3.641   5.391  14.274 -0.7995 -0.1569 -0.7834
  127CHL1   C1315610   3.802   5.368  14.137  0.0993  0.1216  0.3252
  127CHL1   C1815611   3.950   5.324  14.132 -0.1772 -0.2290 -0.5677
  127CHL1  H18A15612   4.005   5.354  14.224  1.2838 -0.4774 -1.3350
  127CHL1  H18B15613   3.952   5.215  14.111 -1.7402  0.1529 -3.1771
  127CHL1  H18C15614   4.005   5.377  14.052 -1.4232  2.3290  0.1506
  127CHL1   C1215615   3.720   5.285  14.034 -0.3591  0.0028  0.8395
  127CHL1  H12A15616   3.724   5.177  14.057  0.6028 -0.1842 -0.1212
  127CHL1  H12B15617   3.613   5.314  14.035 -0.0321  2.4894 -4.0350
  127CHL1   C1115618   3.763   5.304  13.889  0.0690 -0.2856 -0.7208
  127CHL1  H11A15619   3.867   5.264  13.894  0.2334  0.2102  4.4559
  127CHL1  H11B15620   3.703   5.254  13.810  0.4931  1.5578 -2.2755
  127CHL1    C915621   3.766   5.460  13.851 -0.4545 -0.0235 -1.2061
  127CHL1    H915622   3.660   5.487  13.875 -0.1674 -0.9587  1.4071
  127CHL1   C1015623   3.790   5.495  13.702  0.3942  0.8012 -0.0610
  127CHL1   C1915624   3.920   5.418  13.662 -0.1961  0.3628 -0.1195
  127CHL1  H19A15625   3.900   5.312  13.632 -2.1092  0.4355  0.7421
  127CHL1  H19B15626   3.974   5.466  13.578 -2.5322  2.7879 -0.3633
  127CHL1  H19C15627   3.996   5.406  13.742 -0.3004 -0.1357 -0.0849
  127CHL1    C115628   3.665   5.452  13.620 -0.5632  0.6612  0.0488
  127CHL1   H1A15629   3.668   5.342  13.605  0.0862  0.7981 -0.9149
  127CHL1   H1B15630   3.575   5.470  13.682  0.6829  1.7148  1.6413
  127CHL1    C215631   3.668   5.517  13.476  1.1474  0.5734 -0.2871
  127CHL1   H2A15632   3.569   5.522  13.425  1.4241  3.2566 -0.6949
  127CHL1   H2B15633   3.729   5.452  13.410 -1.0377 -0.9202 -0.9545
  127CHL1   C2015634   3.775   5.257  14.380 -1.0945 -0.2064 -0.4740
  127CHL1   H2015635   3.882   5.230  14.365 -1.1855 -1.2820  0.7214
  127CHL1   C2115636   3.717   5.124  14.341  0.4593 -0.3768 -0.2865
  127CHL1  H21A15637   3.608   5.136  14.321  0.9531 -0.0930 -3.2455
  127CHL1  H21B15638   3.738   5.056  14.426  0.7900  0.0959  0.0158
  127CHL1  H21C15639   3.749   5.076  14.246 -3.3545 -1.6526 -1.1078
  127CHL1   C2215640   3.747   5.276  14.531  0.2588  0.3160 -0.3837
  127CHL1  H22A15641   3.790   5.200  14.600 -1.8660  0.9469  1.7890
  127CHL1  H22B15642   3.800   5.366  14.569 -0.2023  0.7866 -0.8420
  127CHL1   C2315643   3.593   5.295  14.555  0.7725  0.2823 -1.2024
  127CHL1  H23A15644   3.579   5.389  14.497 -1.7694  0.4762 -0.4018
  127CHL1  H23B15645   3.525   5.235  14.491 -0.7346  0.2621  0.3619
  127CHL1   C2415646   3.546   5.302  14.701  0.1308 -0.0837  0.7872
  127CHL1  H24A15647   3.588   5.395  14.744 -0.3611  0.8553 -0.7004
  127CHL1  H24B15648   3.437   5.319  14.712  0.1241  2.4599 -1.9758
  127CHL1   C2515649   3.571   5.178  14.787  0.2153 -0.2038  0.4025
  127CHL1   H2515650   3.679   5.179  14.815  0.5308 -2.3050 -0.5139
  127CHL1   C2615651   3.504   5.183  14.924 -0.6242 -0.0540 -0.5630
  127CHL1  H26A15652   3.523   5.089  14.980  0.1100 -1.3470 -2.8395
  127CHL1  H26B15653   3.526   5.278  14.978 -1.1324 -0.0628 -0.3350
  127CHL1  H26C15654   3.394   5.176  14.907 -0.7258 -1.7613  0.5545
  127CHL1   C2715655   3.526   5.049  14.720  0.4236 -0.0437  0.2231
  127CHL1  H27A15656   3.416   5.047  14.701  0.5660  0.4650 -0.7311
  127CHL1  H27B15657   3.579   5.054  14.623  0.6977  1.7129  0.4206
  127CHL1  H27C15658   3.550   4.958  14.778 -1.4013 -0.1753  0.8525
  128CHL1    C315659   3.409   0.860  13.583 -0.4930  0.1052 -0.2479
  128CHL1    H315660   3.477   0.774  13.563 -0.9248 -0.5799  1.0843
  128CHL1    O315661   3.344   0.882  13.458 -0.2892  0.0641  0.3632
  128CHL1   H3'15662   3.292   0.963  13.458  0.1066  0.4298 -2.4530
  128CHL1    C415663   3.314   0.831  13.694 -0.4783 -0.3032 -0.1516
  128CHL1   H4A15664   3.232   0.906  13.693  0.7167  1.1067  1.4203
  128CHL1   H4B15665   3.252   0.749  13.652  0.3167  0.1162 -2.2418
  128CHL1    C515666   3.359   0.819  13.833 -0.6181  0.1005 -0.4065
  128CHL1    C615667   3.329   0.716  13.908  0.4196  0.3364 -0.6294
  128CHL1    H615668   3.279   0.632  13.859 -0.4602  0.4845 -0.0134
  128CHL1    C715669   3.365   0.698  14.054 -0.3080  0.2113  0.2671
  128CHL1   H7A15670   3.285   0.649  14.113 -2.3812  1.4068 -1.4024
  128CHL1   H7B15671   3.450   0.627  14.052 -1.0039 -0.6234 -1.2395
  128CHL1    C815672   3.408   0.834  14.117 -0.2536 -0.0094  0.6479
  128CHL1    H815673   3.320   0.898  14.137 -0.5034  0.0567 -0.5617
  128CHL1   C1415674   3.485   0.807  14.244 -0.0643  0.5571 -0.6248
  128CHL1   H1415675   3.574   0.747  14.215  0.5988 -0.1259  2.5187
  128CHL1   C1515676   3.420   0.710  14.340 -0.1677  0.1099 -0.6113
  128CHL1  H15A15677   3.320   0.754  14.359  0.6463  1.0945  1.6873
  128CHL1  H15B15678   3.420   0.604  14.307  1.2719  0.7249 -2.8303
  128CHL1   C1615679   3.502   0.730  14.471  0.5210  0.6977  0.1732
  128CHL1  H16A15680   3.439   0.762  14.557  0.2476  0.4546  0.0625
  128CHL1  H16B15681   3.572   0.648  14.499  0.5622 -0.4033 -2.7909
  128CHL1   C1715682   3.604   0.852  14.443  0.3360 -0.2581  0.6439
  128CHL1   H1715683   3.697   0.813  14.399  0.5926 -0.0172  0.9660
  128CHL1   C1315684   3.539   0.925  14.317  0.4863 -0.7401 -0.6644
  128CHL1   C1815685   3.429   1.017  14.374 -0.3321 -0.0598 -0.1040
  128CHL1  H18A15686   3.350   0.962  14.430  0.5777 -3.4904 -1.9249
  128CHL1  H18B15687   3.467   1.091  14.448  2.2661 -1.2307 -0.1331
  128CHL1  H18C15688   3.371   1.061  14.291 -3.4274 -0.8771  1.4964
  128CHL1   C1215689   3.637   0.991  14.223 -0.2978 -0.2468 -0.1495
  128CHL1  H12A15690   3.685   1.080  14.268 -0.3497 -0.5451  0.5012
  128CHL1  H12B15691   3.718   0.916  14.211 -0.8388 -0.8715  0.0727
  128CHL1   C1115692   3.575   1.031  14.087  0.1760  0.8866  0.0217
  128CHL1  H11A15693   3.493   1.103  14.106 -0.6587 -0.0984  0.2549
  128CHL1  H11B15694   3.658   1.078  14.029  1.1987 -0.8564 -0.0147
  128CHL1    C915695   3.502   0.906  14.015  0.0461  0.1647  0.2167
  128CHL1    H915696   3.589   0.840  13.999 -0.6812 -0.8984  0.5100
  128CHL1   C1015697   3.438   0.936  13.875  0.6342 -0.3411 -0.3402
  128CHL1   C1915698   3.336   1.062  13.891 -0.0243 -0.0290 -0.3449
  128CHL1  H19A15699   3.279   1.095  13.802 -0.0256 -0.2461 -0.4252
  128CHL1  H19B15700   3.264   1.035  13.971  0.2288 -0.2680 -0.1926
  128CHL1  H19C15701   3.389   1.156  13.922  1.3577 -0.8894  0.0107
  128CHL1    C115702   3.555   0.968  13.769  0.4064 -0.3188  0.2305
  128CHL1   H1A15703   3.609   1.060  13.799 -2.1289  1.3596 -0.0223
  128CHL1   H1B15704   3.636   0.893  13.779  2.1379  1.4407  0.0717
  128CHL1    C215705   3.495   0.977  13.624 -0.0167  0.5462 -0.1009
  128CHL1   H2A15706   3.577   1.006  13.555  1.0617  1.7318  1.5830
  128CHL1   H2B15707   3.431   1.068  13.623  2.3122  2.2987 -1.3468
  128CHL1   C2015708   3.641   0.926  14.573 -0.3369  0.1326  0.4759
  128CHL1   H2015709   3.543   0.968  14.605  0.6067  1.5986  1.4976
  128CHL1   C2115710   3.732   1.042  14.547  0.3236  0.3251 -0.6082
  128CHL1  H21A15711   3.832   1.025  14.501 -0.0175  1.0627 -1.6560
  128CHL1  H21B15712   3.761   1.100  14.637  0.0202 -0.5298  0.0625
  128CHL1  H21C15713   3.680   1.107  14.474 -0.9275  0.6363  0.5236
  128CHL1   C2215714   3.695   0.828  14.686  0.2657  0.4140  0.6625
  128CHL1  H22A15715   3.707   0.907  14.764  2.8240 -0.1252  0.9201
  128CHL1  H22B15716   3.621   0.758  14.731  0.6797 -1.6925 -1.7325
  128CHL1   C2315717   3.828   0.750  14.648  0.2450 -0.6305  0.7381
  128CHL1  H23A15718   3.802   0.670  14.576 -0.9151 -0.6798  1.1887
  128CHL1  H23B15719   3.889   0.814  14.581 -1.0411 -0.4185 -0.2645
  128CHL1   C2415720   3.922   0.708  14.760  0.0855  0.0304  0.4638
  128CHL1  H24A15721   4.011   0.659  14.714 -1.6955 -2.4831 -0.5301
  128CHL1  H24B15722   3.964   0.790  14.822  0.8001  1.3965 -1.6883
  128CHL1   C2515723   3.863   0.601  14.850  0.0911  0.9991  0.1390
  128CHL1   H2515724   3.785   0.655  14.908 -1.3822  0.5934 -1.3821
  128CHL1   C2615725   3.785   0.497  14.767  0.0028  0.8341  0.8349
  128CHL1  H26A15726   3.763   0.402  14.820  1.4182 -1.1312 -1.8989
  128CHL1  H26B15727   3.694   0.545  14.725  0.4242  1.2715  0.4054
  128CHL1  H26C15728   3.851   0.464  14.684  0.0398  2.8445  0.0024
  128CHL1   C2715729   3.969   0.519  14.929  0.5613 -0.6972 -0.0496
  128CHL1  H27A15730   4.021   0.593  14.992 -1.1548 -0.9268  1.7309
  128CHL1  H27B15731   3.928   0.452  15.008  0.1229 -0.6278 -0.2117
  128CHL1  H27C15732   4.028   0.452  14.862  2.3990 -0.2394  1.0376
  129CHL1    C315733   6.488   4.201  13.413 -0.1704  0.0565  0.0489
  129CHL1    H315734   6.381   4.196  13.444 -0.8226 -0.2580 -2.0617
  129CHL1    O315735   6.484   4.181  13.280 -0.0665 -0.0356  0.1667
  129CHL1   H3'15736   6.578   4.180  13.258  0.0867 -0.0506  0.8149
  129CHL1    C415737   6.531   4.346  13.439  0.5435  0.8229  0.2238
  129CHL1   H4A15738   6.634   4.373  13.406  1.3634  1.4138  2.9791
  129CHL1   H4B15739   6.462   4.409  13.380 -0.0988 -0.3140 -0.2743
  129CHL1    C515740   6.525   4.364  13.589 -0.7120  0.0954  0.2332
  129CHL1    C615741   6.443   4.456  13.648  0.4865  0.2907  0.1728
  129CHL1    H615742   6.393   4.526  13.580 -0.6927 -2.9717 -2.5679
  129CHL1    C715743   6.432   4.480  13.799 -0.5670 -0.8939  0.1993
  129CHL1   H7A15744   6.440   4.587  13.829  0.5611 -1.1085  0.7042
  129CHL1   H7B15745   6.335   4.448  13.843  0.0382  0.2149  2.4880
  129CHL1    C815746   6.553   4.413  13.873 -0.4790  0.5459 -1.0334
  129CHL1    H815747   6.644   4.475  13.856 -0.9216  1.5429  0.0756
  129CHL1   C1415748   6.514   4.405  14.024  0.3682  0.5599  0.4699
  129CHL1   H1415749   6.429   4.334  14.023  1.1702 -0.5203  2.3407
  129CHL1   C1515750   6.470   4.532  14.092  0.4739 -0.1109 -0.3173
  129CHL1  H15A15751   6.538   4.617  14.072  0.7163 -0.5266 -1.3366
  129CHL1  H15B15752   6.373   4.572  14.054  1.9682  0.8987 -3.3531
  129CHL1   C1615753   6.481   4.501  14.245 -0.0875  0.1193  0.2796
  129CHL1  H16A15754   6.542   4.582  14.292 -0.7772  1.5269 -1.1577
  129CHL1  H16B15755   6.384   4.488  14.297 -0.1697  3.2994  1.1449
  129CHL1   C1715756   6.561   4.361  14.245  0.2144  0.8245 -0.1366
  129CHL1   H1715757   6.478   4.289  14.260 -0.3695  1.6744  0.8597
  129CHL1   C1315758   6.621   4.342  14.110  0.2491  0.0248  0.3844
  129CHL1   C1815759   6.759   4.410  14.095 -0.5279 -0.6773  0.1692
  129CHL1  H18A15760   6.779   4.449  13.993  2.5780 -0.3780  0.7856
  129CHL1  H18B15761   6.759   4.500  14.160  0.6767  0.6155 -1.5241
  129CHL1  H18C15762   6.837   4.338  14.130 -1.4788 -0.6387  2.5241
  129CHL1   C1215763   6.631   4.195  14.064 -0.1109  0.2426 -0.0229
  129CHL1  H12A15764   6.704   4.134  14.121  0.9344  1.5872  0.1571
  129CHL1  H12B15765   6.530   4.150  14.072 -0.5164  1.1805  0.3419
  129CHL1   C1115766   6.663   4.183  13.916  0.1980  0.2251  0.0914
  129CHL1  H11A15767   6.767   4.219  13.901  0.1844  0.0653 -0.4181
  129CHL1  H11B15768   6.652   4.077  13.882 -1.9534  0.3257  0.3575
  129CHL1    C915769   6.572   4.266  13.824  0.1674 -0.1024  0.0448
  129CHL1    H915770   6.471   4.221  13.836  0.6005 -0.8369  1.1335
  129CHL1   C1015771   6.608   4.261  13.668 -1.0072 -0.8101  0.1204
  129CHL1   C1915772   6.764   4.300  13.642 -0.4945 -0.0800  0.4160
  129CHL1  H19A15773   6.803   4.401  13.667 -0.0944  0.1301 -0.9729
  129CHL1  H19B15774   6.822   4.222  13.696 -0.3782 -0.7190 -0.5936
  129CHL1  H19C15775   6.799   4.293  13.537 -0.3956  0.2144  0.4297
  129CHL1    C115776   6.584   4.117  13.623 -0.0600  0.4900 -0.5140
  129CHL1   H1A15777   6.656   4.045  13.667  0.6309  0.7811 -1.1532
  129CHL1   H1B15778   6.476   4.094  13.635 -0.2777  0.8148 -1.7037
  129CHL1    C215779   6.584   4.095  13.473 -0.0202 -0.7253 -0.2964
  129CHL1   H2A15780   6.535   3.996  13.459  0.3310 -1.0984  0.9333
  129CHL1   H2B15781   6.690   4.097  13.439  1.1433  1.1845  2.9449
  129CHL1   C2015782   6.656   4.335  14.369 -0.2151  0.8333  0.2630
  129CHL1   H2015783   6.750   4.393  14.359 -0.4190  1.1490  0.1478
  129CHL1   C2115784   6.697   4.192  14.364  0.0827  0.1060 -0.0567
  129CHL1  H21A15785   6.734   4.165  14.465  1.6333  0.0284 -0.6089
  129CHL1  H21B15786   6.788   4.193  14.299 -0.1003  0.6449 -0.3074
  129CHL1  H21C15787   6.616   4.125  14.329  0.3220  0.1963 -0.8051
  129CHL1   C2215788   6.590   4.363  14.504  0.5555  0.6624 -0.1031
  129CHL1  H22A15789   6.657   4.338  14.589 -1.2434 -1.4664  0.7723
  129CHL1  H22B15790   6.565   4.471  14.512 -2.0104  0.1074  0.1627
  129CHL1   C2315791   6.458   4.295  14.537  0.5377  0.0871  0.3446
  129CHL1  H23A15792   6.383   4.336  14.467  1.0834 -1.8725 -1.4726
  129CHL1  H23B15793   6.467   4.186  14.518 -1.5756 -0.9464  4.1378
  129CHL1   C2415794   6.418   4.303  14.680  0.5954 -0.2147  0.2523
  129CHL1  H24A15795   6.511   4.273  14.733  0.5993 -1.2285 -0.3036
  129CHL1  H24B15796   6.394   4.407  14.711 -0.6632  0.0146 -1.3901
  129CHL1   C2515797   6.298   4.206  14.717 -0.0044 -0.4272 -0.0739
  129CHL1   H2515798   6.223   4.220  14.637 -0.7964  1.6683  0.9590
  129CHL1   C2615799   6.353   4.054  14.733  0.1373 -0.2141  0.3698
  129CHL1  H26A15800   6.260   3.994  14.741  0.5452 -0.9715 -0.4560
  129CHL1  H26B15801   6.410   4.019  14.644 -1.8748 -1.9349 -0.3299
  129CHL1  H26C15802   6.414   4.050  14.825  1.1143 -0.8007 -0.2937
  129CHL1   C2715803   6.226   4.239  14.847 -0.7941  0.3657 -0.3711
  129CHL1  H27A15804   6.163   4.158  14.890  0.0958 -0.4984 -0.6714
  129CHL1  H27B15805   6.297   4.265  14.928  1.6119  0.8743 -2.5202
  129CHL1  H27C15806   6.149   4.319  14.846 -3.2185 -1.8196  0.3395
  130CHL1    C315807   3.177   6.268  13.369 -0.1560  0.3955 -0.6035
  130CHL1    H315808   3.142   6.345  13.441  0.8296 -0.1640  0.5260
  130CHL1    O315809   3.172   6.331  13.244 -0.4955 -0.2153 -1.1346
  130CHL1   H3'15810   3.186   6.257  13.184 -0.0694 -0.1380 -1.1354
  130CHL1    C415811   3.318   6.199  13.389  0.0660 -0.9242 -0.0070
  130CHL1   H4A15812   3.342   6.142  13.297  2.9350  0.7443 -0.4145
  130CHL1   H4B15813   3.389   6.284  13.389 -0.7425 -0.2284 -0.2366
  130CHL1    C515814   3.329   6.103  13.501 -0.2831 -0.1309 -0.2208
  130CHL1    C615815   3.426   6.122  13.595 -0.7537  0.7187 -0.1537
  130CHL1    H615816   3.491   6.207  13.571  0.1600 -0.1406 -0.8353
  130CHL1    C715817   3.452   6.029  13.711  0.0905 -0.3023  0.2991
  130CHL1   H7A15818   3.557   5.997  13.727 -0.0157 -1.3593 -0.9524
  130CHL1   H7B15819   3.419   6.077  13.805 -2.3582 -1.2972  0.0357
  130CHL1    C815820   3.368   5.895  13.706  0.2442  0.2654 -0.1011
  130CHL1    H815821   3.421   5.813  13.654  2.2785  0.4716  1.5131
  130CHL1   C1415822   3.356   5.840  13.853  0.1452  0.4116 -0.2741
  130CHL1   H1415823   3.303   5.918  13.913 -3.3169 -1.6373 -0.3851
  130CHL1   C1515824   3.485   5.798  13.926  0.3086 -0.7474  0.0541
  130CHL1  H15A15825   3.549   5.751  13.849  0.4227 -0.4217 -0.0492
  130CHL1  H15B15826   3.545   5.886  13.958  0.4340 -0.7691 -0.1214
  130CHL1   C1615827   3.435   5.712  14.044 -0.6543  0.2238  0.1057
  130CHL1  H16A15828   3.491   5.616  14.052 -1.5732 -0.4953 -1.4923
  130CHL1  H16B15829   3.450   5.767  14.139 -0.2134 -1.4316  1.0274
  130CHL1   C1715830   3.289   5.685  14.019  0.2942 -0.1201 -0.1148
  130CHL1   H1715831   3.227   5.761  14.071 -0.3506 -0.7706  0.0940
  130CHL1   C1315832   3.265   5.712  13.867 -0.0578 -0.1999  0.1127
  130CHL1   C1815833   3.337   5.594  13.787 -0.0725  0.3592  0.0896
  130CHL1  H18A15834   3.426   5.556  13.842 -0.9987  0.6598  1.8599
  130CHL1  H18B15835   3.267   5.508  13.781  0.4063 -0.0701  0.6410
  130CHL1  H18C15836   3.351   5.631  13.683 -3.0202  0.9927 -0.1784
  130CHL1   C1215837   3.120   5.752  13.813 -1.3302 -0.3029 -0.5800
  130CHL1  H12A15838   3.054   5.663  13.819 -0.9218 -0.7553 -2.1933
  130CHL1  H12B15839   3.086   5.838  13.874 -1.7268 -0.1868 -0.9626
  130CHL1   C1115840   3.122   5.806  13.671 -0.6970  0.5150 -0.1586
  130CHL1  H11A15841   3.166   5.728  13.605  0.0457 -0.8001  1.7833
  130CHL1  H11B15842   3.021   5.842  13.644 -0.5552  1.2561  0.2884
  130CHL1    C915843   3.222   5.920  13.658 -0.7904 -0.1964  0.6528
  130CHL1    H915844   3.175   5.992  13.728  2.0073  2.8681 -0.3722
  130CHL1   C1015845   3.220   5.992  13.517 -0.1861 -0.4305  0.5841
  130CHL1   C1915846   3.245   5.887  13.407  0.1382 -0.3535 -0.2819
  130CHL1  H19A15847   3.144   5.845  13.387  0.0356  0.2682 -1.1191
  130CHL1  H19B15848   3.270   5.947  13.317 -1.1424  1.4352  0.5211
  130CHL1  H19C15849   3.321   5.807  13.424  2.1118  1.4555 -0.2459
  130CHL1    C115850   3.075   6.053  13.495 -0.1907  0.2828  0.8696
  130CHL1   H1A15851   3.008   5.970  13.466  0.9388 -0.0772 -0.9074
  130CHL1   H1B15852   3.055   6.098  13.595  1.6604 -1.0614  1.9243
  130CHL1    C215853   3.065   6.153  13.376  0.1548  0.2879  0.7334
  130CHL1   H2A15854   2.965   6.200  13.376 -0.2830 -0.5123  2.7114
  130CHL1   H2B15855   3.082   6.091  13.285  0.9265 -2.0527  2.3810
  130CHL1   C2015856   3.241   5.555  14.081  0.1578  0.5955 -0.6474
  130CHL1   H2015857   3.133   5.542  14.058 -0.5404 -0.2241  2.6909
  130CHL1   C2115858   3.235   5.567  14.237  0.4466  0.2069  0.1499
  130CHL1  H21A15859   3.167   5.652  14.258 -1.9080 -1.7482  0.9830
  130CHL1  H21B15860   3.341   5.576  14.269  1.1706 -1.5895 -1.5454
  130CHL1  H21C15861   3.197   5.476  14.288  1.7920 -1.7365 -2.1129
  130CHL1   C2215862   3.317   5.421  14.039 -0.3703  0.8301 -0.2243
  130CHL1  H22A15863   3.295   5.398  13.933 -0.2119 -0.9789  0.1172
  130CHL1  H22B15864   3.427   5.430  14.049 -0.0302 -2.0938 -0.6353
  130CHL1   C2315865   3.279   5.291  14.104  0.3818 -0.0986 -0.4604
  130CHL1  H23A15866   3.308   5.285  14.212 -0.4758 -0.8909 -0.2587
  130CHL1  H23B15867   3.169   5.276  14.104  0.6266 -2.2321 -1.2057
  130CHL1   C2415868   3.337   5.167  14.032 -0.6434  0.6061 -0.3104
  130CHL1  H24A15869   3.263   5.137  13.955 -3.3555  0.5937  2.1548
  130CHL1  H24B15870   3.425   5.211  13.980 -0.0230 -0.1782  0.0489
  130CHL1   C2515871   3.379   5.045  14.122 -0.3505  0.5890 -0.2096
  130CHL1   H2515872   3.445   5.097  14.194 -0.9438 -2.0931  2.5201
  130CHL1   C2615873   3.256   4.986  14.194 -0.2365  0.1783 -0.4913
  130CHL1  H26A15874   3.199   5.061  14.253 -0.1915 -0.7281  0.7443
  130CHL1  H26B15875   3.181   4.941  14.126  0.3983 -1.1722 -0.3339
  130CHL1  H26C15876   3.279   4.904  14.266  0.6735  1.1162  0.3230
  130CHL1   C2715877   3.455   4.941  14.040 -0.2334 -0.5023  0.1372
  130CHL1  H27A15878   3.496   4.864  14.109  1.8131 -0.2063 -0.6655
  130CHL1  H27B15879   3.400   4.907  13.950  0.8971 -0.0082 -0.7724
  130CHL1  H27C15880   3.546   4.995  14.004 -2.2144  2.3029 -1.0129
  131CHL1    C315881   1.904   4.159  13.699  1.0276  0.0931 -1.0370
  131CHL1    H315882   1.961   4.150  13.605 -1.0857  0.1033 -2.3862
  131CHL1    O315883   1.773   4.182  13.657  0.2943  0.3448  0.0691
  131CHL1   H3'15884   1.737   4.106  13.611 -1.4119  1.6565 -0.8814
  131CHL1    C415885   1.916   4.032  13.791 -0.6040  0.5193  0.6453
  131CHL1   H4A15886   1.824   4.027  13.852 -1.5841 -1.4032 -0.8982
  131CHL1   H4B15887   1.902   3.948  13.719  1.1618  0.5494  0.1998
  131CHL1    C515888   2.043   4.014  13.872  0.1832 -0.3183  0.7411
  131CHL1    C615889   2.113   3.904  13.875 -0.7827  0.4620  0.1301
  131CHL1    H615890   2.084   3.819  13.811  1.0986 -0.1659  0.0430
  131CHL1    C715891   2.240   3.892  13.946 -0.7642  0.2614  0.3591
  131CHL1   H7A15892   2.253   3.791  13.989 -0.5385 -0.5179 -1.4573
  131CHL1   H7B15893   2.319   3.907  13.871  1.1225 -0.1079  2.1788
  131CHL1    C815894   2.263   3.996  14.058  0.7161  0.3348  0.1595
  131CHL1    H815895   2.204   3.971  14.149  1.8964  0.1951  0.9113
  131CHL1   C1415896   2.410   3.993  14.111  0.5459  0.6293 -0.2598
  131CHL1   H1415897   2.483   4.008  14.028  2.7722 -1.7338  1.1066
  131CHL1   C1515898   2.458   3.856  14.166  0.1881 -0.2018 -0.3552
  131CHL1  H15A15899   2.383   3.796  14.222  1.9947  0.3078  2.8812
  131CHL1  H15B15900   2.487   3.794  14.079 -2.1669 -1.3301 -0.4007
  131CHL1   C1615901   2.585   3.894  14.242 -0.0494  0.0199  0.3917
  131CHL1  H16A15902   2.597   3.842  14.340 -0.1331  0.2426  0.5206
  131CHL1  H16B15903   2.673   3.859  14.183 -0.4509 -0.4978  0.0966
  131CHL1   C1715904   2.596   4.048  14.249  0.3238  0.3356 -0.0793
  131CHL1   H1715905   2.654   4.072  14.158  0.5404 -0.4460 -0.1532
  131CHL1   C1315906   2.453   4.096  14.211  0.0568  0.0950  0.2131
  131CHL1   C1815907   2.361   4.081  14.329  0.5693 -0.0100 -0.6251
  131CHL1  H18A15908   2.377   3.991  14.391  0.4437  0.7927  0.6105
  131CHL1  H18B15909   2.367   4.172  14.393  3.2684  1.0562 -2.2135
  131CHL1  H18C15910   2.253   4.085  14.302  0.4401  0.7118 -0.0458
  131CHL1   C1215911   2.431   4.232  14.138 -0.6841 -0.4582 -0.5041
  131CHL1  H12A15912   2.465   4.319  14.197 -0.8364 -0.2684 -0.6932
  131CHL1  H12B15913   2.495   4.234  14.047  0.1315  0.1092  0.0698
  131CHL1   C1115914   2.282   4.250  14.099  0.3515  0.3421 -0.6354
  131CHL1  H11A15915   2.217   4.253  14.190 -1.1682 -0.1993 -1.6687
  131CHL1  H11B15916   2.270   4.350  14.053 -2.4893  0.2878 -0.2328
  131CHL1    C915917   2.226   4.138  14.002  0.3028 -0.2415 -0.3762
  131CHL1    H915918   2.293   4.159  13.917  1.1172 -1.3340 -0.0302
  131CHL1   C1015919   2.085   4.144  13.948  0.0283 -0.3661  0.1495
  131CHL1   C1915920   1.989   4.166  14.064  0.4596  0.2777  0.2156
  131CHL1  H19A15921   2.016   4.093  14.143 -1.3913 -1.5405 -0.7458
  131CHL1  H19B15922   1.998   4.270  14.102  0.2296  0.8120 -1.1385
  131CHL1  H19C15923   1.883   4.141  14.044  0.8501 -1.4660  0.1558
  131CHL1    C115924   2.081   4.250  13.847 -0.0225  0.3348 -0.4985
  131CHL1   H1A15925   2.122   4.346  13.885 -1.1485  0.7869 -0.4057
  131CHL1   H1B15926   2.151   4.221  13.766 -1.1284  0.2341 -1.4368
  131CHL1    C215927   1.950   4.280  13.779  0.2780 -0.1973 -0.2364
  131CHL1   H2A15928   1.946   4.373  13.720 -0.3038 -0.6449 -0.9263
  131CHL1   H2B15929   1.883   4.302  13.866  1.6462  1.5822  0.4236
  131CHL1   C2015930   2.655   4.104  14.383 -0.6648 -0.8494 -0.3064
  131CHL1   H2015931   2.593   4.078  14.471 -0.1467 -2.5822 -0.4196
  131CHL1   C2115932   2.686   4.250  14.354  0.2901  0.4535 -0.8741
  131CHL1  H21A15933   2.601   4.318  14.373  0.7303  1.0326 -0.9524
  131CHL1  H21B15934   2.715   4.263  14.248  1.3935 -0.4502 -0.7053
  131CHL1  H21C15935   2.766   4.284  14.424 -1.4068  0.2991  1.2392
  131CHL1   C2215936   2.795   4.031  14.416 -0.1131  0.2139  0.1476
  131CHL1  H22A15937   2.780   3.922  14.437  0.5965  0.2678  0.9748
  131CHL1  H22B15938   2.858   4.040  14.325  2.2614 -0.1631  1.6673
  131CHL1   C2315939   2.877   4.076  14.541  0.0146  0.1665 -0.0347
  131CHL1  H23A15940   2.894   4.186  14.538 -0.7048  0.3093  0.6738
  131CHL1  H23B15941   2.813   4.060  14.630  0.7443 -1.4463  0.2386
  131CHL1   C2415942   3.004   3.990  14.571 -0.1344 -0.1240 -0.2243
  131CHL1  H24A15943   2.976   3.888  14.603 -1.2517 -0.2866 -1.6410
  131CHL1  H24B15944   3.057   3.988  14.473 -1.6411 -0.3894 -1.0659
  131CHL1   C2515945   3.111   4.038  14.676  0.3720 -0.6731  0.1211
  131CHL1   H2515946   3.061   4.056  14.774 -1.3803 -1.8411 -0.5107
  131CHL1   C2615947   3.212   3.934  14.695 -0.5531 -0.4656 -0.1473
  131CHL1  H26A15948   3.174   3.842  14.745 -0.9814 -0.0265  0.3526
  131CHL1  H26B15949   3.247   3.894  14.598  0.9746  1.1197 -0.2939
  131CHL1  H26C15950   3.297   3.968  14.759  0.2831  0.2065 -1.5700
  131CHL1   C2715951   3.166   4.177  14.637 -0.0149  0.0977  0.4100
  131CHL1  H27A15952   3.241   4.207  14.714  2.0616  1.0450 -1.8452
  131CHL1  H27B15953   3.231   4.185  14.547  0.4926 -1.8992  0.5450
  131CHL1  H27C15954   3.078   4.244  14.629 -2.1118 -2.4094  1.2617
  132CHL1    C315955   4.309   6.421  13.235  0.7611  0.4716  0.7736
  132CHL1    H315956   4.215   6.479  13.218  0.7970  0.2588 -0.2021
  132CHL1    O315957   4.366   6.377  13.113  0.0057 -0.3729  0.5018
  132CHL1   H3'15958   4.456   6.367  13.146  0.2830  1.9552  0.6495
  132CHL1    C415959   4.405   6.512  13.309  0.1399 -0.3278 -0.5197
  132CHL1   H4A15960   4.509   6.473  13.303  0.5821  0.8745 -1.2914
  132CHL1   H4B15961   4.427   6.611  13.262  2.4118 -0.9170 -0.8317
  132CHL1    C515962   4.374   6.546  13.455  0.8870  0.5005  0.3051
  132CHL1    C615963   4.364   6.669  13.500 -0.0357  0.2104  0.5498
  132CHL1    H615964   4.398   6.746  13.429 -1.1460 -0.2055 -0.4696
  132CHL1    C715965   4.351   6.700  13.646  0.0067  0.1027 -0.5666
  132CHL1   H7A15966   4.433   6.763  13.685 -1.4111  1.3457  0.5459
  132CHL1   H7B15967   4.260   6.762  13.662 -0.3978 -0.4859 -0.5550
  132CHL1    C815968   4.346   6.578  13.743  0.1388  0.5161  0.1742
  132CHL1    H815969   4.450   6.546  13.769 -0.1702  0.2159  1.0732
  132CHL1   C1415970   4.273   6.613  13.878 -0.2896 -0.4364 -0.0867
  132CHL1   H1415971   4.166   6.611  13.848 -0.2154  1.4403 -0.5845
  132CHL1   C1515972   4.299   6.749  13.944  0.8233  0.5181 -0.2902
  132CHL1  H15A15973   4.408   6.763  13.960  0.8096 -1.4601  2.0261
  132CHL1  H15B15974   4.265   6.819  13.865  1.9922 -0.9371 -2.2010
  132CHL1   C1615975   4.238   6.731  14.080 -0.0080 -0.6169 -0.2621
  132CHL1  H16A15976   4.312   6.737  14.164 -1.7772 -2.0473  1.5022
  132CHL1  H16B15977   4.155   6.802  14.099 -2.1100 -3.4414  2.1399
  132CHL1   C1715978   4.188   6.580  14.086 -0.0716 -0.4172 -0.5563
  132CHL1   H1715979   4.090   6.598  14.037  1.1438  1.1770 -2.5684
  132CHL1   C1315980   4.275   6.506  13.983  0.0332  0.3860  0.7585
  132CHL1   C1815981   4.415   6.479  14.048 -0.8345  0.0137 -0.6442
  132CHL1  H18A15982   4.451   6.573  14.094  0.3094 -1.2462  1.2020
  132CHL1  H18B15983   4.401   6.402  14.127 -1.3472  1.1332  0.3825
  132CHL1  H18C15984   4.498   6.458  13.977 -2.1464  2.9245 -3.2687
  132CHL1   C1215985   4.214   6.374  13.927  0.1427  0.2194  0.1387
  132CHL1  H12A15986   4.231   6.295  14.002  0.8341 -2.1462 -2.3324
  132CHL1  H12B15987   4.105   6.384  13.906  0.0701 -0.1546  0.3370
  132CHL1   C1115988   4.274   6.334  13.795 -0.4896 -0.0124  1.1628
  132CHL1  H11A15989   4.377   6.307  13.825 -0.9454 -2.7207  0.6030
  132CHL1  H11B15990   4.223   6.250  13.742 -0.3781  0.4056  0.3799
  132CHL1    C915991   4.278   6.457  13.689  0.7044  0.5407  0.4999
  132CHL1    H915992   4.175   6.488  13.663  0.3907 -0.5183  0.4030
  132CHL1   C1015993   4.339   6.423  13.552 -0.3078 -0.0025  0.3107
  132CHL1   C1915994   4.465   6.331  13.574  0.2584 -0.2361 -0.2977
  132CHL1  H19A15995   4.436   6.235  13.623 -0.1334 -0.6360 -1.2887
  132CHL1  H19B15996   4.512   6.296  13.480 -1.8884 -1.2679 -1.0505
  132CHL1  H19C15997   4.543   6.376  13.639  0.5895 -0.7105 -0.3605
  132CHL1    C115998   4.235   6.346  13.471 -0.1699 -0.1529  0.3412
  132CHL1   H1A15999   4.192   6.259  13.525 -0.7201 -1.0594 -1.4765
  132CHL1   H1B16000   4.150   6.417  13.459 -1.1787 -1.0827  1.7287
  132CHL1    C216001   4.282   6.298  13.326 -0.3590  0.2368 -1.0774
  132CHL1   H2A16002   4.204   6.233  13.280  0.2504 -0.1587 -1.5726
  132CHL1   H2B16003   4.365   6.225  13.339 -0.0324  0.7941  0.0668
  132CHL1   C2016004   4.172   6.515  14.220  0.1864  0.2666  0.4100
  132CHL1   H2016005   4.195   6.407  14.204 -0.6150  0.1542 -0.0046
  132CHL1   C2116006   4.024   6.531  14.269  0.5452  0.0508 -0.1899
  132CHL1  H21A16007   3.954   6.488  14.193 -0.8546 -1.0523  1.6381
  132CHL1  H21B16008   3.992   6.636  14.282 -0.1584  0.0389 -1.5934
  132CHL1  H21C16009   4.010   6.483  14.368 -0.1868  1.5815  0.4659
  132CHL1   C2216010   4.260   6.557  14.339  0.2504  0.4848  0.8645
  132CHL1  H22A16011   4.364   6.545  14.303 -0.1479  1.1090 -0.5618
  132CHL1  H22B16012   4.239   6.663  14.365  0.5888  0.8641 -0.3378
  132CHL1   C2316013   4.248   6.473  14.474 -0.5927  0.1943  0.0166
  132CHL1  H23A16014   4.144   6.477  14.513 -0.1571 -1.6049  1.4810
  132CHL1  H23B16015   4.279   6.371  14.440  1.7817  1.0004 -0.3930
  132CHL1   C2416016   4.351   6.536  14.575  0.6181  0.6145 -0.0473
  132CHL1  H24A16017   4.444   6.558  14.519  0.1499  1.0306 -0.6767
  132CHL1  H24B16018   4.303   6.633  14.602  2.0711  0.5988  3.0378
  132CHL1   C2516019   4.355   6.455  14.707  0.6065  0.0989  0.0291
  132CHL1   H2516020   4.421   6.505  14.781  0.7563  1.9020 -1.2477
  132CHL1   C2616021   4.218   6.424  14.767  0.1092 -0.3962 -0.9405
  132CHL1  H26A16022   4.159   6.517  14.783  1.6210  0.2503  1.2369
  132CHL1  H26B16023   4.159   6.358  14.699  0.6996 -1.2474 -0.6449
  132CHL1  H26C16024   4.229   6.378  14.867  0.8968 -2.9169 -2.1037
  132CHL1   C2716025   4.423   6.318  14.679  0.0798  0.3143 -0.5361
  132CHL1  H27A16026   4.366   6.246  14.615 -0.6001 -0.8085  1.2740
  132CHL1  H27B16027   4.520   6.332  14.627  0.5632  2.7307  0.8827
  132CHL1  H27C16028   4.439   6.265  14.775  0.1244 -0.6133 -1.0440
  133CHL1    C316029   1.358   1.352  13.406 -0.2063 -0.0162  0.4963
  133CHL1    H316030   1.440   1.421  13.378  0.1625 -1.4657 -2.3009
  133CHL1    O316031   1.287   1.288  13.298  0.0042  0.2433 -0.1561
  133CHL1   H3'16032   1.218   1.245  13.349  0.3539  1.8580  1.8255
  133CHL1    C416033   1.411   1.244  13.505  0.0971  0.1445 -0.0449
  133CHL1   H4A16034   1.326   1.172  13.505  0.3318 -0.2600 -2.8185
  133CHL1   H4B16035   1.497   1.210  13.443 -0.1992  0.5233 -0.6767
  133CHL1    C516036   1.447   1.288  13.642  0.4480 -0.2334  0.5766
  133CHL1    C616037   1.563   1.250  13.703 -0.0317 -0.4332  0.7855
  133CHL1    H616038   1.634   1.190  13.646 -1.5821 -2.4912  0.8872
  133CHL1    C716039   1.599   1.271  13.851  0.3183 -0.2483  0.1239
  133CHL1   H7A16040   1.619   1.173  13.899  1.5130  0.6964  1.6376
  133CHL1   H7B16041   1.682   1.343  13.868  1.0505 -0.8257 -0.8987
  133CHL1    C816042   1.474   1.317  13.927  0.8677  0.2259 -0.5252
  133CHL1    H816043   1.418   1.223  13.945  1.5580  0.2582  2.4160
  133CHL1   C1416044   1.517   1.378  14.062  0.6780  0.0650 -0.2169
  133CHL1   H1416045   1.570   1.469  14.028 -1.2949  1.9055  1.3014
  133CHL1   C1516046   1.603   1.292  14.152 -0.1405  0.6409 -0.5583
  133CHL1  H15A16047   1.565   1.187  14.152 -3.1914  1.6077  1.4218
  133CHL1  H15B16048   1.710   1.292  14.122 -0.1767 -1.8573 -0.9351
  133CHL1   C1616049   1.584   1.350  14.295  0.8424 -0.8698  0.2087
  133CHL1  H16A16050   1.549   1.270  14.365  0.0544 -0.0658  0.7501
  133CHL1  H16B16051   1.671   1.408  14.333  0.4637  1.5623 -2.3313
  133CHL1   C1716052   1.471   1.459  14.271 -0.9211 -0.5377 -0.2852
  133CHL1   H1716053   1.527   1.549  14.238 -3.2838  1.2794  0.3480
  133CHL1   C1316054   1.396   1.417  14.146 -0.4053  0.6311  0.0252
  133CHL1   C1816055   1.307   1.290  14.178 -0.2992  0.3901  0.4224
  133CHL1  H18A16056   1.223   1.336  14.235  1.2091  3.4894  0.3540
  133CHL1  H18B16057   1.264   1.246  14.086  0.3819  0.9032 -0.1490
  133CHL1  H18C16058   1.361   1.212  14.235  0.8741  0.4162 -0.6187
  133CHL1   C1216059   1.328   1.532  14.081  1.0124  0.5400 -0.4055
  133CHL1  H12A16060   1.235   1.555  14.139  0.0174 -2.4236 -0.6857
  133CHL1  H12B16061   1.393   1.622  14.073 -0.2483  1.5590  0.2226
  133CHL1   C1116062   1.282   1.495  13.942  0.1551 -0.5224  0.3786
  133CHL1  H11A16063   1.198   1.427  13.967 -0.2640  0.5451  2.0264
  133CHL1  H11B16064   1.250   1.584  13.884  0.1199  0.2418  1.5423
  133CHL1    C916065   1.395   1.426  13.847  0.8247 -0.6048  0.3806
  133CHL1    H916066   1.457   1.514  13.820  0.1186 -0.7382 -1.8684
  133CHL1   C1016067   1.339   1.364  13.717  0.2041 -0.3016  0.1024
  133CHL1   C1916068   1.218   1.270  13.744 -0.8782 -0.4085  0.5663
  133CHL1  H19A16069   1.138   1.316  13.806  0.2412  0.0672  1.7145
  133CHL1  H19B16070   1.163   1.229  13.657 -0.6099  2.5159 -1.0752
  133CHL1  H19C16071   1.251   1.181  13.802  3.0820  1.6013  1.7300
  133CHL1    C116072   1.294   1.476  13.626  0.4167  0.4051  0.5172
  133CHL1   H1A16073   1.208   1.529  13.671  0.1427 -1.8890  2.8785
  133CHL1   H1B16074   1.377   1.550  13.620  0.2242  0.5945  0.1093
  133CHL1    C216075   1.251   1.429  13.484 -0.1597 -0.4774  0.4089
  133CHL1   H2A16076   1.219   1.515  13.422  0.5198 -0.7865 -0.3849
  133CHL1   H2B16077   1.155   1.372  13.489 -0.1537 -0.7825 -1.9738
  133CHL1   C2016078   1.395   1.507  14.400  0.2787  0.5972 -0.2121
  133CHL1   H2016079   1.299   1.548  14.363  1.0146  0.6323 -2.1844
  133CHL1   C2116080   1.462   1.626  14.471 -0.2508  0.3261  1.0134
  133CHL1  H21A16081   1.478   1.702  14.391  0.6917 -1.2895 -0.4080
  133CHL1  H21B16082   1.558   1.593  14.515  0.3601  0.0982 -0.4126
  133CHL1  H21C16083   1.389   1.665  14.545 -2.3555  0.2077 -0.9063
  133CHL1   C2216084   1.368   1.398  14.501  0.0050 -0.0693 -0.0811
  133CHL1  H22A16085   1.350   1.307  14.441  1.4956 -0.5097  0.0891
  133CHL1  H22B16086   1.463   1.390  14.558  1.1239  4.7151 -0.8250
  133CHL1   C2316087   1.245   1.417  14.587 -1.2861 -0.1289  0.0325
  133CHL1  H23A16088   1.255   1.514  14.641 -2.3579  0.9384 -1.6156
  133CHL1  H23B16089   1.154   1.417  14.524 -0.5412 -3.0905 -1.2224
  133CHL1   C2416090   1.244   1.314  14.694  0.3277  0.0864 -0.1805
  133CHL1  H24A16091   1.243   1.219  14.636 -1.8290  1.3966 -2.4769
  133CHL1  H24B16092   1.338   1.318  14.753 -0.3565 -2.6885  1.2231
  133CHL1   C2516093   1.120   1.337  14.791 -0.6909  0.3853 -0.4599
  133CHL1   H2516094   1.033   1.340  14.722  1.5111  0.2289 -3.4024
  133CHL1   C2616095   1.110   1.214  14.886 -0.1752 -0.4657 -0.2709
  133CHL1  H26A16096   1.032   1.236  14.963 -0.0244  1.4652 -0.6236
  133CHL1  H26B16097   1.071   1.137  14.816  2.9466 -2.2323 -0.2405
  133CHL1  H26C16098   1.208   1.187  14.930  0.0225 -0.0184 -0.4313
  133CHL1   C2716099   1.123   1.466  14.870 -0.3311 -0.2745 -0.9604
  133CHL1  H27A16100   1.048   1.468  14.951 -0.6285  0.1916 -1.2475
  133CHL1  H27B16101   1.223   1.482  14.918  0.4316 -1.2057 -2.1726
  133CHL1  H27C16102   1.113   1.551  14.800 -0.0564  2.3819  1.9966
  134CHL1    C316103   7.199   1.417  13.554  0.5406 -0.0542  0.3259
  134CHL1    H316104   7.300   1.374  13.542  2.0581  2.7887  1.9222
  134CHL1    O316105   7.120   1.410  13.436 -0.7951  0.3611 -0.2097
  134CHL1   H3'16106   7.180   1.438  13.366  1.1568 -0.4807  1.0285
  134CHL1    C416107   7.115   1.347  13.661  0.1260  0.2923  0.1747
  134CHL1   H4A16108   7.016   1.398  13.665 -0.6137 -0.8067 -2.2239
  134CHL1   H4B16109   7.105   1.244  13.621  0.6008  0.0835  0.5864
  134CHL1    C516110   7.168   1.357  13.802 -0.1809  0.7790 -0.0831
  134CHL1    C616111   7.220   1.256  13.869 -0.4641  0.5306  0.8353
  134CHL1    H616112   7.195   1.155  13.834 -1.2738  0.3955  1.7522
  134CHL1    C716113   7.272   1.265  14.008  0.4663 -0.1434  0.8689
  134CHL1   H7A16114   7.232   1.180  14.066  0.1221 -0.6266 -0.0601
  134CHL1   H7B16115   7.380   1.243  14.020  0.2466 -0.9452  1.4292
  134CHL1    C816116   7.240   1.401  14.080  0.4070 -0.1439  0.3015
  134CHL1    H816117   7.133   1.401  14.110  0.6678 -1.4825  1.3305
  134CHL1   C1416118   7.328   1.416  14.205 -0.5669  0.3487 -0.1375
  134CHL1   H1416119   7.431   1.421  14.164  0.3811  0.6605  2.1629
  134CHL1   C1516120   7.346   1.304  14.308 -0.0245  0.1883  0.2048
  134CHL1  H15A16121   7.240   1.273  14.323  0.7427 -2.9496 -0.0787
  134CHL1  H15B16122   7.396   1.210  14.274 -1.8561 -0.6050 -0.4221
  134CHL1   C1616123   7.397   1.373  14.432  0.1556  0.3168 -0.3141
  134CHL1  H16A16124   7.318   1.355  14.508 -1.0747 -0.8380 -1.7956
  134CHL1  H16B16125   7.482   1.319  14.479  0.0628  0.5265  0.1058
  134CHL1   C1716126   7.411   1.530  14.397 -0.0159 -0.0178  0.0854
  134CHL1   H1716127   7.519   1.540  14.369  0.5010 -2.6101  0.8474
  134CHL1   C1316128   7.316   1.552  14.279  0.2093  0.0904  0.7548
  134CHL1   C1816129   7.167   1.562  14.328  0.5609 -0.1050 -0.0806
  134CHL1  H18A16130   7.157   1.667  14.362 -0.9083 -0.8327  1.9496
  134CHL1  H18B16131   7.084   1.541  14.258  0.1412 -0.8719  0.6266
  134CHL1  H18C16132   7.150   1.488  14.409 -0.9931 -2.7250 -2.6267
  134CHL1   C1216133   7.357   1.653  14.176 -0.2646  0.3523 -0.5711
  134CHL1  H12A16134   7.344   1.757  14.214  0.6292 -0.0263  0.8565
  134CHL1  H12B16135   7.459   1.630  14.141 -1.2385 -2.0159 -2.1216
  134CHL1   C1116136   7.264   1.647  14.053 -0.2514 -0.9902 -0.0998
  134CHL1  H11A16137   7.162   1.679  14.082  0.7762  2.1275  0.4694
  134CHL1  H11B16138   7.284   1.723  13.974 -0.9778 -0.6929  0.0003
  134CHL1    C916139   7.267   1.510  13.976 -0.2864 -0.2135  0.2856
  134CHL1    H916140   7.373   1.502  13.943 -0.1493  0.3101  0.5921
  134CHL1   C1016141   7.185   1.508  13.846 -0.7069  0.7368 -0.7771
  134CHL1   C1916142   7.051   1.562  13.877  0.3225  0.6650 -0.1127
  134CHL1  H19A16143   6.992   1.528  13.964 -1.2523  2.8526 -0.2610
  134CHL1  H19B16144   7.061   1.671  13.894  0.0610  0.9825 -1.8073
  134CHL1  H19C16145   6.981   1.558  13.790 -1.1126 -1.4813  1.0395
  134CHL1    C116146   7.258   1.587  13.729 -0.6925  0.1339 -0.3847
  134CHL1   H1A16147   7.258   1.697  13.743  4.2592  0.6052 -1.9151
  134CHL1   H1B16148   7.366   1.567  13.747 -0.8048  1.5837  2.4270
  134CHL1    C216149   7.209   1.567  13.585 -0.5963 -0.2677 -0.2545
  134CHL1   H2A16150   7.276   1.620  13.515  1.8247 -2.6071  0.1471
  134CHL1   H2B16151   7.105   1.606  13.585 -0.2788  0.8404  2.5289
  134CHL1   C2016152   7.391   1.614  14.518  0.0757 -0.7743 -0.0273
  134CHL1   H2016153   7.284   1.610  14.548  0.0273  5.2732  2.0414
  134CHL1   C2116154   7.407   1.765  14.484  0.4054  0.0851  0.5220
  134CHL1  H21A16155   7.329   1.792  14.410  0.8089 -0.0521  0.0408
  134CHL1  H21B16156   7.497   1.768  14.418 -0.5413 -2.3620 -1.0085
  134CHL1  H21C16157   7.402   1.832  14.572  0.8754 -1.1208  1.5152
  134CHL1   C2216158   7.492   1.571  14.628  0.5970  0.4188 -0.6307
  134CHL1  H22A16159   7.461   1.474  14.672 -0.1895 -1.1676 -4.3290
  134CHL1  H22B16160   7.589   1.563  14.574 -0.2207 -0.9519 -1.9950
  134CHL1   C2316161   7.513   1.669  14.747 -0.3115 -0.2007  0.1092
  134CHL1  H23A16162   7.598   1.631  14.808  0.3444  1.2353  0.1336
  134CHL1  H23B16163   7.543   1.763  14.696  1.5098 -1.2354 -0.8049
  134CHL1   C2416164   7.392   1.690  14.840 -0.4801  0.3987  0.2403
  134CHL1  H24A16165   7.303   1.717  14.780 -1.3885 -2.0299  0.4266
  134CHL1  H24B16166   7.360   1.592  14.881  3.0790 -0.6004  1.0435
  134CHL1   C2516167   7.427   1.798  14.942  0.5884 -0.1686 -0.1032
  134CHL1   H2516168   7.462   1.882  14.878 -0.4353 -1.3387 -2.2790
  134CHL1   C2616169   7.300   1.845  15.020  0.5007 -0.4727  0.5338
  134CHL1  H26A16170   7.226   1.888  14.949  0.3529 -3.0876 -1.0655
  134CHL1  H26B16171   7.251   1.779  15.095 -1.3246  0.8795  0.6019
  134CHL1  H26C16172   7.337   1.923  15.089  1.2692 -1.1248  0.8708
  134CHL1   C2716173   7.542   1.769  15.045 -0.5405  0.1358  0.7312
  134CHL1  H27A16174   7.544   1.851  15.119 -0.4142 -0.4511  1.3861
  134CHL1  H27B16175   7.514   1.674  15.095 -1.7012  0.1963  0.2406
  134CHL1  H27C16176   7.643   1.760  14.999 -0.3841 -1.9544  1.3830
  135CHL1    C316177   0.078   1.530  13.476 -0.1624  0.3211  0.4593
  135CHL1    H316178   0.163   1.598  13.496  0.4685 -0.9612  2.5119
  135CHL1    O316179   0.046   1.526  13.332 -0.2839  0.0165  0.2228
  135CHL1   H3'16180   0.109   1.464  13.295 -0.7656 -1.6572  2.0543
  135CHL1    C416181   0.110   1.388  13.523 -1.4323 -0.2984 -0.1266
  135CHL1   H4A16182   0.019   1.325  13.511 -2.9773  1.8614 -0.4556
  135CHL1   H4B16183   0.185   1.358  13.447 -2.1974 -2.5280 -0.0716
  135CHL1    C516184   0.152   1.390  13.672  0.1616 -0.1106  0.0991
  135CHL1    C616185   0.275   1.348  13.711  0.3817 -0.6807  0.2890
  135CHL1    H616186   0.341   1.303  13.636 -1.8838 -0.5725 -1.9334
  135CHL1    C716187   0.316   1.348  13.853 -0.2082  0.6770  0.0281
  135CHL1   H7A16188   0.348   1.245  13.882 -2.0000 -0.2657 -1.1341
  135CHL1   H7B16189   0.398   1.423  13.853  0.7212 -0.2537 -1.7979
  135CHL1    C816190   0.211   1.389  13.966 -0.6285 -0.0242  0.1199
  135CHL1    H816191   0.147   1.304  13.998 -1.0477 -0.6478 -2.1903
  135CHL1   C1416192   0.277   1.441  14.089 -0.0266 -0.2380  0.1742
  135CHL1   H1416193   0.332   1.532  14.058  1.2322 -0.9184  0.2989
  135CHL1   C1516194   0.384   1.353  14.156 -0.0989 -0.1598  0.0511
  135CHL1  H15A16195   0.337   1.255  14.183  0.5601 -1.0066 -1.7639
  135CHL1  H15B16196   0.467   1.331  14.087 -0.9339 -0.8082 -0.7691
  135CHL1   C1616197   0.411   1.422  14.286 -0.2079  0.0876  0.1124
  135CHL1  H16A16198   0.401   1.348  14.368  1.4091  0.5909  0.7986
  135CHL1  H16B16199   0.512   1.468  14.298 -1.3618  3.0428 -0.5664
  135CHL1   C1716200   0.297   1.537  14.308 -0.3352  0.0765 -0.3856
  135CHL1   H1716201   0.347   1.631  14.277 -1.1209  0.3311 -0.9077
  135CHL1   C1316202   0.191   1.495  14.202  0.6081 -0.4879  0.2857
  135CHL1   C1816203   0.101   1.383  14.261  0.8184  1.0954  0.3959
  135CHL1  H18A16204   0.021   1.338  14.199 -1.0008  2.3687  1.7336
  135CHL1  H18B16205   0.160   1.296  14.297 -0.2950 -0.5575 -1.5472
  135CHL1  H18C16206   0.041   1.422  14.346 -0.4475  0.7188 -0.3058
  135CHL1   C1216207   0.113   1.611  14.143  0.4387  0.1560  0.3138
  135CHL1  H12A16208   0.033   1.637  14.216  0.5291 -3.1818  1.7436
  135CHL1  H12B16209   0.181   1.697  14.124 -0.1731  0.9623  1.6563
  135CHL1   C1116210   0.036   1.557  14.015  0.0500 -0.1866  0.1282
  135CHL1  H11A16211  -0.037   1.478  14.045 -0.4745 -0.1676 -1.0218
  135CHL1  H11B16212  -0.032   1.630  13.966 -0.8676 -1.6380 -0.8480
  135CHL1    C916213   0.124   1.501  13.908  0.3354 -0.3228  0.2194
  135CHL1    H916214   0.188   1.588  13.885 -0.9734  0.5764 -0.1729
  135CHL1   C1016215   0.060   1.464  13.768  0.5085 -0.1663  0.9556
  135CHL1   C1916216  -0.047   1.365  13.802  0.0050 -0.3497 -0.3333
  135CHL1  H19A16217  -0.084   1.308  13.714  0.3514  1.0633 -1.4216
  135CHL1  H19B16218  -0.009   1.290  13.874 -1.6623  0.3209  1.3628
  135CHL1  H19C16219  -0.139   1.412  13.844 -0.2687  0.5806 -1.8899
  135CHL1    C116220   0.003   1.600  13.705 -0.5900  0.3392 -0.6462
  135CHL1   H1A16221  -0.086   1.624  13.766  1.0757  3.0705  0.8895
  135CHL1   H1B16222   0.088   1.671  13.710  0.7444 -1.2335 -0.0301
  135CHL1    C216223  -0.032   1.598  13.555 -0.5232  0.3800 -0.1247
  135CHL1   H2A16224  -0.036   1.703  13.518 -1.2361  1.0144  1.6109
  135CHL1   H2B16225  -0.129   1.548  13.536 -0.2713 -2.2035  4.0002
  135CHL1   C2016226   0.263   1.562  14.452  0.6398  0.4089  0.5057
  135CHL1   H2016227   0.201   1.477  14.489 -1.0239  0.5443 -1.7618
  135CHL1   C2116228   0.178   1.692  14.458  0.6609  0.4682 -0.6060
  135CHL1  H21A16229   0.157   1.713  14.565 -0.4278  0.8515 -0.8812
  135CHL1  H21B16230   0.080   1.677  14.409 -0.0659  0.5470  0.7929
  135CHL1  H21C16231   0.239   1.772  14.410  0.5993  0.7348 -0.2448
  135CHL1   C2216232   0.386   1.575  14.543  0.7003 -0.7081  0.5044
  135CHL1  H22A16233   0.351   1.575  14.649 -0.8405 -0.5594  0.0241
  135CHL1  H22B16234   0.442   1.479  14.536 -2.1877 -2.5575  0.6615
  135CHL1   C2316235   0.470   1.704  14.515 -0.1283  0.7690  0.0528
  135CHL1  H23A16236   0.500   1.704  14.408  1.2538  1.2476  0.4142
  135CHL1  H23B16237   0.413   1.797  14.536 -0.4767  0.6656 -0.4145
  135CHL1   C2416238   0.604   1.706  14.592  0.0774 -0.1447  0.0572
  135CHL1  H24A16239   0.632   1.813  14.579 -2.0461  0.3262 -1.1514
  135CHL1  H24B16240   0.565   1.691  14.696 -1.7966 -2.3731 -0.8727
  135CHL1   C2516241   0.700   1.596  14.550 -0.7623 -0.9485  0.6998
  135CHL1   H2516242   0.662   1.492  14.548 -1.1906 -0.7979 -1.3535
  135CHL1   C2616243   0.757   1.627  14.415  0.1437 -0.3901 -0.5246
  135CHL1  H26A16244   0.676   1.639  14.340  0.1146  0.8099 -0.3185
  135CHL1  H26B16245   0.812   1.723  14.428 -0.5911  0.0178 -0.4124
  135CHL1  H26C16246   0.824   1.542  14.388  0.0648 -0.9879  1.0436
  135CHL1   C2716247   0.816   1.585  14.659 -0.9224 -0.3903 -0.6709
  135CHL1  H27A16248   0.765   1.549  14.751 -0.1200  2.9089  1.2255
  135CHL1  H27B16249   0.894   1.509  14.635 -2.4245 -2.1180 -0.2652
  135CHL1  H27C16250   0.873   1.679  14.675  2.4651 -2.7200  2.8215
  136CHL1    C316251   6.503   0.487  13.404  0.4378 -0.3482  0.1467
  136CHL1    H316252   6.506   0.588  13.449  1.0818 -0.0636 -0.5118
  136CHL1    O316253   6.572   0.506  13.285 -0.1077 -0.2309  0.4078
  136CHL1   H3'16254   6.531   0.452  13.217 -0.1926 -0.8806  0.9525
  136CHL1    C416255   6.554   0.366  13.492 -0.0279 -0.3944 -0.0507
  136CHL1   H4A16256   6.570   0.279  13.425  0.5910 -1.3362  1.2721
  136CHL1   H4B16257   6.652   0.395  13.535 -0.1946  3.3460 -1.7802
  136CHL1    C516258   6.462   0.344  13.612  0.8810  0.0503  0.2743
  136CHL1    C616259   6.511   0.349  13.733 -0.1511  0.1836 -0.2062
  136CHL1    H616260   6.617   0.367  13.754 -0.0064 -0.8567  0.0391
  136CHL1    C716261   6.433   0.328  13.858  0.3447  0.3679 -0.4157
  136CHL1   H7A16262   6.484   0.255  13.925 -2.9990 -1.6703  0.1305
  136CHL1   H7B16263   6.418   0.418  13.921 -0.3568 -0.3155  0.4214
  136CHL1    C816264   6.292   0.264  13.832 -0.0490  0.1397  0.2298
  136CHL1    H816265   6.302   0.154  13.826 -1.5579 -0.1076  1.5439
  136CHL1   C1416266   6.209   0.285  13.951 -0.2645  0.4589  0.0582
  136CHL1   H1416267   6.186   0.393  13.954 -0.7809  0.3248  1.4024
  136CHL1   C1516268   6.274   0.268  14.089  0.0905 -0.0679  0.2977
  136CHL1  H15A16269   6.343   0.181  14.086 -1.2468 -1.1556  0.2147
  136CHL1  H15B16270   6.330   0.355  14.131  1.7415 -1.1734  0.4680
  136CHL1   C1616271   6.158   0.231  14.183 -0.0876  0.5568 -0.1211
  136CHL1  H16A16272   6.156   0.135  14.238  1.5939  0.3083 -0.4370
  136CHL1  H16B16273   6.160   0.313  14.258  0.7793  1.2666 -0.8861
  136CHL1   C1716274   6.028   0.258  14.094  0.1751  1.0476  0.2968
  136CHL1   H1716275   6.014   0.369  14.092  0.3767  1.0794  0.6256
  136CHL1   C1316276   6.076   0.220  13.953  0.5494 -0.6221  1.0717
  136CHL1   C1816277   6.086   0.063  13.947  0.2044 -0.3744 -0.0468
  136CHL1  H18A16278   6.133   0.012  14.033 -0.1141 -1.1638 -0.3288
  136CHL1  H18B16279   5.979   0.032  13.947 -0.5364  1.9820  0.5663
  136CHL1  H18C16280   6.139   0.038  13.852  0.3282  3.4108 -1.1266
  136CHL1   C1216281   5.997   0.284  13.835  0.0891  0.1881  0.6098
  136CHL1  H12A16282   5.897   0.240  13.817  0.3915 -0.0566 -0.5474
  136CHL1  H12B16283   5.966   0.386  13.867 -0.8321 -0.4428  1.8372
  136CHL1   C1116284   6.074   0.284  13.701  0.3397 -0.5852  0.4087
  136CHL1  H11A16285   6.064   0.178  13.670  1.4349 -0.6528  0.2347
  136CHL1  H11B16286   6.026   0.357  13.633  0.7655 -2.7633 -2.4184
  136CHL1    C916287   6.227   0.328  13.712  0.7475  0.1659  0.2158
  136CHL1    H916288   6.225   0.437  13.733  0.2223 -0.2682  2.7216
  136CHL1   C1016289   6.314   0.314  13.582 -0.7807 -0.0098  0.0351
  136CHL1   C1916290   6.300   0.164  13.537  0.1373 -0.3749  0.6099
  136CHL1  H19A16291   6.207   0.137  13.482  0.9717 -2.7261  0.2627
  136CHL1  H19B16292   6.379   0.128  13.468 -1.2317 -0.9280 -0.7321
  136CHL1  H19C16293   6.299   0.105  13.631  3.6316  0.3161  1.1956
  136CHL1    C116294   6.264   0.421  13.485 -0.0767 -0.3080 -0.4367
  136CHL1   H1A16295   6.162   0.405  13.444 -0.4123  0.8492 -0.1042
  136CHL1   H1B16296   6.255   0.526  13.522 -0.3117 -0.2746 -0.5865
  136CHL1    C216297   6.356   0.452  13.356  0.8422  0.4000 -0.2652
  136CHL1   H2A16298   6.314   0.541  13.303 -1.5036 -0.8747 -0.6653
  136CHL1   H2B16299   6.357   0.364  13.289  2.2581 -0.5645  0.9755
  136CHL1   C2016300   5.894   0.197  14.147  0.0726  0.7274 -0.0904
  136CHL1   H2016301   5.894   0.087  14.134 -2.4650  0.5266  1.0883
  136CHL1   C2116302   5.772   0.247  14.067  0.3362  0.6550  0.0048
  136CHL1  H21A16303   5.772   0.191  13.972 -3.0218 -1.1007  0.8659
  136CHL1  H21B16304   5.779   0.357  14.051  1.7292  0.3409 -1.8934
  136CHL1  H21C16305   5.674   0.233  14.118  0.3514 -0.5031 -0.2602
  136CHL1   C2216306   5.881   0.204  14.301 -0.4825  0.0972  0.3811
  136CHL1  H22A16307   5.775   0.182  14.324  0.2276 -1.0048  2.8421
  136CHL1  H22B16308   5.950   0.131  14.347  0.5453  2.3019  2.5217
  136CHL1   C2316309   5.890   0.349  14.350 -0.2827  0.3288  0.3260
  136CHL1  H23A16310   5.985   0.398  14.322 -0.8148  1.3280  0.2087
  136CHL1  H23B16311   5.812   0.416  14.306  0.1942 -0.0628 -1.1565
  136CHL1   C2416312   5.880   0.354  14.502  0.3303 -0.1370  0.2827
  136CHL1  H24A16313   5.789   0.299  14.533  0.6150 -0.5454  0.3987
  136CHL1  H24B16314   5.975   0.312  14.543  2.7109  1.0014 -3.5161
  136CHL1   C2516315   5.877   0.494  14.572  0.0380 -0.0181 -0.3957
  136CHL1   H2516316   5.964   0.555  14.539  0.2163 -0.3027 -0.4543
  136CHL1   C2616317   5.751   0.576  14.553 -0.0376  0.5417 -0.2642
  136CHL1  H26A16318   5.666   0.529  14.606  0.6412  1.2321  1.4837
  136CHL1  H26B16319   5.767   0.677  14.595  1.9710  0.7339 -1.3603
  136CHL1  H26C16320   5.727   0.579  14.444  0.3950  1.8489 -0.3364
  136CHL1   C2716321   5.892   0.460  14.721  0.4129 -0.1308 -0.4671
  136CHL1  H27A16322   5.798   0.411  14.753  1.0208 -1.0976 -0.1325
  136CHL1  H27B16323   5.980   0.395  14.744  0.1177 -0.5729 -0.5849
  136CHL1  H27C16324   5.909   0.552  14.782 -1.9272  1.3722 -1.9405
  137CHL1    C316325   0.908   0.852  13.478  0.1563  0.3535 -0.5311
  137CHL1    H316326   0.852   0.760  13.454 -3.5020  2.3233 -0.2113
  137CHL1    O316327   0.980   0.896  13.368 -0.3721  0.6110 -0.0114
  137CHL1   H3'16328   1.044   0.827  13.348  0.2150  0.5467  1.8878
  137CHL1    C416329   0.818   0.969  13.521  0.5847 -0.3853 -0.0443
  137CHL1   H4A16330   0.866   1.067  13.542 -1.1766  0.1909  1.5005
  137CHL1   H4B16331   0.745   0.988  13.440  0.9293 -1.1340 -0.5554
  137CHL1    C516332   0.746   0.930  13.648  0.2915 -0.6168  0.1056
  137CHL1    C616333   0.613   0.945  13.654  0.5685 -0.1906 -0.0601
  137CHL1    H616334   0.559   0.988  13.568 -0.7956  0.5606  1.1314
  137CHL1    C716335   0.529   0.921  13.778  0.4895 -0.2332 -0.0956
  137CHL1   H7A16336   0.473   1.016  13.793  0.5714 -0.0211 -1.0768
  137CHL1   H7B16337   0.457   0.838  13.759 -0.0061 -0.2321  1.5906
  137CHL1    C816338   0.615   0.903  13.901  0.5085  0.6125 -0.4125
  137CHL1    H816339   0.651   1.007  13.920 -0.0721  0.5204  1.3276
  137CHL1   C1416340   0.530   0.842  14.013  0.6125 -0.3374 -0.8965
  137CHL1   H1416341   0.490   0.749  13.967 -0.7455 -0.1413 -0.1805
  137CHL1   C1516342   0.401   0.921  14.047  0.2180 -0.6552 -0.0508
  137CHL1  H15A16343   0.421   1.029  14.061 -1.9459 -0.1373 -0.6002
  137CHL1  H15B16344   0.324   0.916  13.967  1.1670  0.7563 -1.0967
  137CHL1   C1616345   0.360   0.852  14.185  0.0998 -0.5702  0.4003
  137CHL1  H16A16346   0.342   0.934  14.258  1.3671  0.0928 -0.0119
  137CHL1  H16B16347   0.269   0.790  14.171  0.0594 -0.3263 -0.4756
  137CHL1   C1716348   0.478   0.754  14.226 -0.1937 -0.3550  0.2538
  137CHL1   H1716349   0.451   0.650  14.199 -0.7200 -0.0245 -0.5255
  137CHL1   C1316350   0.599   0.804  14.145  0.0735  0.0325 -0.0120
  137CHL1   C1816351   0.649   0.928  14.220 -0.1046 -0.1339  0.2941
  137CHL1  H18A16352   0.712   0.999  14.161  1.0425  0.3456  2.0310
  137CHL1  H18B16353   0.563   0.988  14.255 -0.7060 -1.5195  1.2837
  137CHL1  H18C16354   0.709   0.904  14.310 -0.3308  0.9471  0.7388
  137CHL1   C1216355   0.710   0.711  14.111  0.0254  0.6058  0.0919
  137CHL1  H12A16356   0.769   0.686  14.201  0.9546  4.1687  0.6092
  137CHL1  H12B16357   0.684   0.610  14.072  0.1953  1.0549 -1.2460
  137CHL1   C1116358   0.805   0.776  14.009  0.1886  0.5366  0.3959
  137CHL1  H11A16359   0.846   0.867  14.059  0.6052 -0.5756  2.1855
  137CHL1  H11B16360   0.894   0.712  13.993  0.4403  0.9500  0.1093
  137CHL1    C916361   0.737   0.816  13.876 -0.0292  0.5775 -0.0155
  137CHL1    H916362   0.688   0.722  13.845 -1.8944  1.3017  0.6192
  137CHL1   C1016363   0.827   0.874  13.767 -0.1827 -0.2328  0.0835
  137CHL1   C1916364   0.919   0.990  13.828  0.0287  0.1084  0.4016
  137CHL1  H19A16365   0.874   1.087  13.860  3.2332  1.9282 -0.2412
  137CHL1  H19B16366   1.008   0.960  13.888  1.8250  2.0619 -1.1451
  137CHL1  H19C16367   0.971   1.040  13.744  2.1033  0.4752  1.8152
  137CHL1    C116368   0.921   0.767  13.712 -0.2876  0.0718  0.0893
  137CHL1   H1A16369   0.994   0.733  13.789 -0.0525 -1.3819 -0.7346
  137CHL1   H1B16370   0.867   0.674  13.684  0.0664 -0.3969  0.9086
  137CHL1    C216371   1.004   0.815  13.596 -0.6483 -0.8275 -0.2433
  137CHL1   H2A16372   1.068   0.728  13.570  0.9585  0.0789  0.5790
  137CHL1   H2B16373   1.076   0.897  13.616 -1.5835  0.2427 -1.1082
  137CHL1   C2016374   0.493   0.737  14.384  0.3559 -0.1189  0.1319
  137CHL1   H2016375   0.533   0.834  14.420 -0.2621  1.0631 -2.1849
  137CHL1   C2116376   0.586   0.621  14.416 -0.7604  0.0346  0.3598
  137CHL1  H21A16377   0.680   0.625  14.359 -0.5306  1.2976  0.7940
  137CHL1  H21B16378   0.534   0.525  14.393 -3.6206  0.9593  2.3916
  137CHL1  H21C16379   0.610   0.626  14.525  0.2201  1.9786  0.0809
  137CHL1   C2216380   0.360   0.719  14.462 -0.0989 -0.5021  0.4750
  137CHL1  H22A16381   0.300   0.811  14.444  1.8216  0.8297  0.5340
  137CHL1  H22B16382   0.318   0.627  14.418 -2.2318  0.6628 -0.0477
  137CHL1   C2316383   0.382   0.702  14.611 -0.3772 -0.1320 -0.5952
  137CHL1  H23A16384   0.440   0.613  14.645 -0.1303  0.6470  1.0965
  137CHL1  H23B16385   0.431   0.795  14.646 -1.2831 -0.0354  0.4759
  137CHL1   C2416386   0.249   0.700  14.693 -0.7540 -0.3843 -0.4198
  137CHL1  H24A16387   0.189   0.785  14.652 -0.6578  0.5616  1.3057
  137CHL1  H24B16388   0.200   0.605  14.661 -0.7930 -0.2294 -0.8379
  137CHL1   C2516389   0.267   0.714  14.850  0.5459  0.7323  0.0730
  137CHL1   H2516390   0.324   0.809  14.863  1.4702  0.3783 -1.2375
  137CHL1   C2616391   0.135   0.744  14.926  0.1256  0.4030  0.6831
  137CHL1  H26A16392   0.099   0.843  14.892 -0.0746  0.3075  0.6152
  137CHL1  H26B16393   0.055   0.670  14.904 -0.6072  1.8315 -1.9989
  137CHL1  H26C16394   0.159   0.740  15.034 -0.5165 -2.3268  0.8094
  137CHL1   C2716395   0.336   0.598  14.926 -0.4719  0.0492  0.1885
  137CHL1  H27A16396   0.267   0.513  14.946  0.6121 -1.2651 -1.3550
  137CHL1  H27B16397   0.424   0.558  14.872 -0.4764  0.2529  0.0297
  137CHL1  H27C16398   0.374   0.636  15.022  0.9996  0.9421 -0.7127
  138CHL1    C316399   0.226   6.788  13.736  0.0563 -0.3105 -0.0764
  138CHL1    H316400   0.196   6.877  13.795  1.9148  0.2055  0.1723
  138CHL1    O316401   0.300   6.850  13.633  0.4126  0.4622  0.1052
  138CHL1   H3'16402   0.375   6.888  13.679  1.0353 -0.1092 -0.4120
  138CHL1    C416403   0.327   6.707  13.821  1.2440 -0.4910  0.4853
  138CHL1   H4A16404   0.378   6.623  13.769  0.8702 -2.3353  2.9249
  138CHL1   H4B16405   0.408   6.769  13.863  1.3079 -0.4742  0.3370
  138CHL1    C516406   0.252   6.649  13.939  0.1541 -0.5286 -0.2042
  138CHL1    C616407   0.300   6.678  14.062 -0.3105 -0.0841 -0.3411
  138CHL1    H616408   0.394   6.734  14.068  0.4292 -1.1119 -1.6902
  138CHL1    C716409   0.243   6.619  14.183  0.0624  0.4287 -0.1121
  138CHL1   H7A16410   0.333   6.573  14.230 -0.9814 -0.3790  1.1776
  138CHL1   H7B16411   0.209   6.691  14.261 -0.3653 -0.7927  0.8720
  138CHL1    C816412   0.136   6.516  14.157  0.1386 -0.3887 -0.2074
  138CHL1    H816413   0.195   6.422  14.146  3.5643  1.7455 -1.9015
  138CHL1   C1416414   0.056   6.492  14.286  0.0788 -0.1774 -0.4037
  138CHL1   H1416415   0.008   6.588  14.315  0.6861 -0.0847  0.3375
  138CHL1   C1516416   0.132   6.472  14.417  0.7130  0.7073  0.1329
  138CHL1  H15A16417   0.214   6.403  14.387  2.2171  2.6391 -0.4052
  138CHL1  H15B16418   0.170   6.563  14.468 -1.3484  2.8074 -1.8400
  138CHL1   C1616419   0.034   6.396  14.507 -1.1235 -0.5959 -0.5804
  138CHL1  H16A16420   0.074   6.296  14.534 -1.9919 -0.6677  0.5280
  138CHL1  H16B16421  -0.004   6.461  14.590  0.6277  1.3931 -1.2490
  138CHL1   C1716422  -0.094   6.374  14.421  0.0424  1.1432 -0.0558
  138CHL1   H1716423  -0.159   6.461  14.442  1.3277  2.5614 -1.6633
  138CHL1   C1316424  -0.046   6.378  14.279  0.1162  0.1044 -0.2825
  138CHL1   C1816425   0.024   6.234  14.242  0.1260  0.5172 -0.2029
  138CHL1  H18A16426   0.090   6.244  14.154 -0.5696 -0.6569 -0.8825
  138CHL1  H18B16427   0.084   6.210  14.333  0.7967  0.5169 -0.6435
  138CHL1  H18C16428  -0.054   6.155  14.235  1.5107 -0.9307  0.1105
  138CHL1   C1216429  -0.153   6.426  14.176  0.6669 -0.0608  0.3390
  138CHL1  H12A16430  -0.227   6.343  14.161  1.2646 -0.8612  1.6124
  138CHL1  H12B16431  -0.207   6.519  14.202 -0.0706 -0.5448  0.5906
  138CHL1   C1116432  -0.078   6.452  14.043  0.1806  1.0328 -0.1210
  138CHL1  H11A16433  -0.032   6.355  14.013 -1.1548  0.6507 -0.9919
  138CHL1  H11B16434  -0.159   6.488  13.977 -0.1530  2.5198  1.0541
  138CHL1    C916435   0.038   6.553  14.044 -0.7617 -0.3393 -0.6582
  138CHL1    H916436  -0.009   6.651  14.066  0.6275  0.7526 -2.3241
  138CHL1   C1016437   0.120   6.567  13.908  0.2075 -0.0339  0.0251
  138CHL1   C1916438   0.146   6.423  13.858 -0.0238 -0.0709 -0.6433
  138CHL1  H19A16439   0.201   6.361  13.932  2.6036  2.6646 -0.0759
  138CHL1  H19B16440   0.050   6.377  13.827 -1.2463  1.9756 -0.1019
  138CHL1  H19C16441   0.212   6.426  13.769 -0.1492  1.2068 -0.7138
  138CHL1    C116442   0.026   6.643  13.804 -0.4533 -0.5676  0.4821
  138CHL1   H1A16443  -0.051   6.572  13.768 -0.5073 -1.7648  2.7925
  138CHL1   H1B16444  -0.027   6.722  13.861 -2.3743  0.0166 -1.9105
  138CHL1    C216445   0.111   6.710  13.688  0.3897 -0.2181  0.8041
  138CHL1   H2A16446   0.037   6.769  13.629 -0.4865  1.5047  3.4808
  138CHL1   H2B16447   0.151   6.623  13.631 -1.4183 -1.2432  1.0191
  138CHL1   C2016448  -0.176   6.252  14.473  0.6558 -0.4655 -0.3864
  138CHL1   H2016449  -0.103   6.169  14.464 -0.1487 -1.2229 -0.0630
  138CHL1   C2116450  -0.302   6.236  14.385  0.0106  0.7104 -0.1853
  138CHL1  H21A16451  -0.269   6.195  14.287  0.1352  0.7783 -0.1713
  138CHL1  H21B16452  -0.357   6.332  14.373 -1.1656  0.2019  0.9376
  138CHL1  H21C16453  -0.375   6.169  14.435 -0.4860  0.2967 -1.4397
  138CHL1   C2216454  -0.210   6.250  14.626 -0.7184 -0.0485  0.8049
  138CHL1  H22A16455  -0.264   6.154  14.643 -2.5733  0.8462  0.2034
  138CHL1  H22B16456  -0.112   6.238  14.678 -0.8720  0.0816  1.1260
  138CHL1   C2316457  -0.283   6.372  14.682 -0.3650 -0.0560  0.1497
  138CHL1  H23A16458  -0.214   6.457  14.706 -0.6852 -0.4353  2.6931
  138CHL1  H23B16459  -0.354   6.402  14.602  1.0131 -0.9102 -1.4591
  138CHL1   C2416460  -0.346   6.349  14.818  0.5966 -0.2468  0.3239
  138CHL1  H24A16461  -0.404   6.440  14.843 -0.9992 -0.7351 -1.3451
  138CHL1  H24B16462  -0.428   6.276  14.799 -1.5137  1.6696  1.6246
  138CHL1   C2516463  -0.254   6.306  14.936 -0.7020  0.4678 -0.5768
  138CHL1   H2516464  -0.219   6.202  14.921  2.5854  1.3668  0.0400
  138CHL1   C2616465  -0.142   6.403  14.952 -0.2642  0.3460  0.1509
  138CHL1  H26A16466  -0.079   6.367  15.036 -1.7147 -0.9473  0.7192
  138CHL1  H26B16467  -0.080   6.414  14.860  1.2036  0.3050  1.0920
  138CHL1  H26C16468  -0.176   6.504  14.984 -0.4221  0.3841 -0.1333
  138CHL1   C2716469  -0.341   6.301  15.064 -0.2298  0.1694 -0.3756
  138CHL1  H27A16470  -0.278   6.268  15.149  1.7638  4.0319 -0.0974
  138CHL1  H27B16471  -0.384   6.400  15.093 -0.9757 -0.5245  0.9469
  138CHL1  H27C16472  -0.427   6.232  15.050 -0.3166  0.2180 -0.0896
  139CHL1    C316473   2.060   5.879  13.430  0.1799 -0.4343  0.0143
  139CHL1    H316474   1.955   5.845  13.415 -0.9911  3.0394 -0.5227
  139CHL1    O316475   2.132   5.884  13.310  0.3334 -0.1060 -0.4021
  139CHL1   H3'16476   2.223   5.912  13.325 -0.5224  2.7032  0.1201
  139CHL1    C416477   2.046   6.020  13.481 -0.6006 -0.3446  0.0547
  139CHL1   H4A16478   2.144   6.072  13.479 -0.7242 -0.0049  1.4174
  139CHL1   H4B16479   1.988   6.081  13.409  0.2447  1.2531  0.6779
  139CHL1    C516480   1.998   6.026  13.625 -0.0806 -0.2390 -0.2500
  139CHL1    C616481   1.897   6.108  13.666 -0.1764 -0.8627 -0.2316
  139CHL1    H616482   1.856   6.182  13.595  3.2517  1.6280  0.1091
  139CHL1    C716483   1.837   6.129  13.800 -0.3835 -0.4643  0.3188
  139CHL1   H7A16484   1.816   6.236  13.821 -1.7190 -0.6570  0.0365
  139CHL1   H7B16485   1.734   6.089  13.798 -0.1915 -1.0561  1.5834
  139CHL1    C816486   1.926   6.059  13.905  0.2654  0.2923  0.8009
  139CHL1    H816487   2.013   6.126  13.921 -0.7131  2.3475 -1.7246
  139CHL1   C1416488   1.846   6.019  14.026 -0.0292 -0.4870 -0.3529
  139CHL1   H1416489   1.773   5.941  13.998  0.3181 -1.2219  0.6976
  139CHL1   C1516490   1.761   6.136  14.088 -0.3685  0.5606 -0.4653
  139CHL1  H15A16491   1.830   6.223  14.089 -0.4173  0.5967  0.8986
  139CHL1  H15B16492   1.672   6.134  14.022  0.4891  1.1220 -1.6906
  139CHL1   C1616493   1.720   6.080  14.226  0.0705 -0.8164  0.3292
  139CHL1  H16A16494   1.738   6.164  14.297  0.5047 -1.0463  0.4943
  139CHL1  H16B16495   1.611   6.061  14.234 -0.8754  3.2650 -0.4279
  139CHL1   C1716496   1.807   5.954  14.245  0.1867 -0.4045 -0.3071
  139CHL1   H1716497   1.746   5.865  14.218  0.0597 -0.7281  0.9558
  139CHL1   C1316498   1.916   5.960  14.148 -0.3518 -0.9710  0.9271
  139CHL1   C1816499   2.020   6.060  14.210 -0.2151 -0.0081  0.6199
  139CHL1  H18A16500   2.092   6.095  14.133  2.9648 -1.9931  2.4813
  139CHL1  H18B16501   1.979   6.152  14.257  1.1311  1.3145 -0.6716
  139CHL1  H18C16502   2.076   6.013  14.294  0.6040  1.3556  0.8545
  139CHL1   C1216503   1.984   5.830  14.101 -0.0654 -0.8020  0.1932
  139CHL1  H12A16504   2.048   5.787  14.182 -0.5745 -1.6054  0.1766
  139CHL1  H12B16505   1.906   5.756  14.076  2.7181 -3.0797 -2.6035
  139CHL1   C1116506   2.069   5.855  13.971 -0.0214  0.2824  0.4088
  139CHL1  H11A16507   2.157   5.917  14.001  0.2174 -0.7402  1.8996
  139CHL1  H11B16508   2.095   5.762  13.918  1.2909  1.6121 -1.4175
  139CHL1    C916509   1.987   5.927  13.851 -0.0952 -0.2563 -0.4788
  139CHL1    H916510   1.900   5.863  13.824 -1.4225  1.4140 -0.3342
  139CHL1   C1016511   2.065   5.937  13.722  0.1096  0.2774  0.3058
  139CHL1   C1916512   2.196   5.997  13.757 -0.0241 -0.6355 -0.2034
  139CHL1  H19A16513   2.262   5.926  13.812  1.1564  0.1951 -0.5088
  139CHL1  H19B16514   2.245   6.022  13.661  0.4376 -2.9067 -0.6287
  139CHL1  H19C16515   2.192   6.089  13.818  1.0551 -0.3798 -0.4897
  139CHL1    C116516   2.084   5.790  13.671 -0.2132 -0.5995  0.0050
  139CHL1   H1A16517   2.154   5.727  13.729 -0.8625 -0.6023  0.8064
  139CHL1   H1B16518   1.988   5.733  13.669  0.0238 -1.0032 -2.3736
  139CHL1    C216519   2.139   5.791  13.529 -0.4028  0.0270 -0.0505
  139CHL1   H2A16520   2.142   5.688  13.487  0.2942  0.9864 -2.5125
  139CHL1   H2B16521   2.241   5.834  13.519 -0.5555  0.4204  0.0516
  139CHL1   C2016522   1.844   5.924  14.397 -0.2487 -0.0684  0.2286
  139CHL1   H2016523   1.940   5.975  14.423 -0.3872  0.9322 -1.1020
  139CHL1   C2116524   1.860   5.775  14.417  0.2517 -0.0435 -0.4346
  139CHL1  H21A16525   1.875   5.745  14.523  1.7996 -1.1476 -0.9294
  139CHL1  H21B16526   1.953   5.745  14.363  0.0576  1.0631 -1.4143
  139CHL1  H21C16527   1.768   5.729  14.376  0.7150 -0.3896 -1.1213
  139CHL1   C2216528   1.735   5.977  14.498 -0.5302 -0.1222 -0.2542
  139CHL1  H22A16529   1.723   6.087  14.500  0.1962 -0.0474  0.5105
  139CHL1  H22B16530   1.640   5.922  14.476 -0.6305  0.5037 -1.4614
  139CHL1   C2316531   1.766   5.951  14.649 -0.0507 -0.1032 -0.5754
  139CHL1  H23A16532   1.761   5.842  14.671 -2.4446 -0.2084 -1.3271
  139CHL1  H23B16533   1.864   5.993  14.680  0.1374 -0.2514 -0.9639
  139CHL1   C2416534   1.658   6.004  14.755  0.4056 -0.4235  0.2963
  139CHL1  H24A16535   1.684   6.111  14.772  3.3300 -1.2574  1.6757
  139CHL1  H24B16536   1.562   5.997  14.699  0.2528  1.4360  0.2739
  139CHL1   C2516537   1.647   5.941  14.888  0.6805  0.2860 -0.5143
  139CHL1   H2516538   1.636   5.830  14.884  0.9616  0.2610 -0.6328
  139CHL1   C2616539   1.768   5.970  14.975 -0.5983 -0.4027  0.0330
  139CHL1  H26A16540   1.778   5.901  15.062  0.2295 -0.9025 -0.4443
  139CHL1  H26B16541   1.861   5.974  14.916  0.6946  1.1459  2.0450
  139CHL1  H26C16542   1.756   6.075  15.010 -0.6625 -0.0372 -1.0665
  139CHL1   C2716543   1.506   5.962  14.960  0.6922  0.6582  0.1224
  139CHL1  H27A16544   1.500   6.055  15.020 -1.0577 -0.1060  1.2268
  139CHL1  H27B16545   1.422   5.965  14.888 -1.5789 -2.1599  2.3662
  139CHL1  H27C16546   1.486   5.883  15.036  1.1833  1.4101  1.0575
  140CHL1    C316547   0.204   5.755  13.594 -0.0946 -0.5892  0.0278
  140CHL1    H316548   0.242   5.660  13.639 -1.8385 -1.8033 -0.9564
  140CHL1    O316549   0.130   5.729  13.478 -0.0228  0.6887  1.3418
  140CHL1   H3'16550   0.130   5.813  13.432  3.4474  1.1792  1.9528
  140CHL1    C416551   0.109   5.827  13.695  1.0260  0.1877  0.0106
  140CHL1   H4A16552   0.060   5.910  13.641  1.4777 -1.1978 -2.7266
  140CHL1   H4B16553   0.029   5.756  13.722 -1.1867  1.5181 -2.5940
  140CHL1    C516554   0.183   5.865  13.824 -0.3417  0.2247 -0.5253
  140CHL1    C616555   0.163   5.823  13.947  0.9192  0.7245 -0.2899
  140CHL1    H616556   0.074   5.760  13.959  0.6829  0.9887 -0.6090
  140CHL1    C716557   0.232   5.868  14.068  0.1603  0.4291 -0.7778
  140CHL1   H7A16558   0.168   5.897  14.154 -0.2813 -0.1092 -0.9251
  140CHL1   H7B16559   0.306   5.789  14.093 -0.8133  0.1361  1.3432
  140CHL1    C816560   0.316   6.003  14.042 -0.2304  0.7709 -0.3193
  140CHL1    H816561   0.245   6.088  14.035  1.1049  1.8756 -0.6708
  140CHL1   C1416562   0.421   6.015  14.157  0.3975 -0.8218 -0.9359
  140CHL1   H1416563   0.480   5.922  14.144 -1.2722 -2.0979  0.2033
  140CHL1   C1516564   0.370   5.994  14.303 -0.2454 -0.2588  0.0743
  140CHL1  H15A16565   0.286   6.065  14.320 -0.6206 -1.1832  2.6626
  140CHL1  H15B16566   0.321   5.899  14.336 -0.0480  0.1205  1.5607
  140CHL1   C1616567   0.491   6.044  14.378 -0.1789  0.4523 -0.4653
  140CHL1  H16A16568   0.459   6.112  14.460  0.9573 -0.5524  0.8689
  140CHL1  H16B16569   0.547   5.961  14.427  0.2999  0.8858 -0.2604
  140CHL1   C1716570   0.580   6.119  14.288  0.3326 -0.0702 -0.8179
  140CHL1   H1716571   0.659   6.046  14.260  0.3544 -0.1492 -0.5458
  140CHL1   C1316572   0.503   6.141  14.154 -0.5815 -0.2109  0.2181
  140CHL1   C1816573   0.396   6.258  14.164 -0.2697  0.6367  0.1576
  140CHL1  H18A16574   0.446   6.353  14.136  0.7227  0.6360  1.8009
  140CHL1  H18B16575   0.319   6.250  14.085  0.6620  1.9299 -0.9370
  140CHL1  H18C16576   0.348   6.270  14.264 -1.8374 -0.5315 -0.4111
  140CHL1   C1216577   0.576   6.150  14.011 -0.1980  0.1518 -0.5694
  140CHL1  H12A16578   0.617   6.253  14.010 -1.6275  0.7416 -0.6049
  140CHL1  H12B16579   0.655   6.073  14.023  1.2627  1.5649 -0.7708
  140CHL1   C1116580   0.488   6.121  13.889  0.1185 -0.2136 -0.4125
  140CHL1  H11A16581   0.436   6.217  13.868  1.1806 -0.1236 -2.9266
  140CHL1  H11B16582   0.555   6.120  13.801  0.6718 -0.1698 -0.0002
  140CHL1    C916583   0.397   6.002  13.914  0.1863  0.0710  0.2068
  140CHL1    H916584   0.456   5.910  13.930 -1.1323 -0.7103  0.6711
  140CHL1   C1016585   0.305   5.961  13.796 -0.1303 -0.5007  0.1772
  140CHL1   C1916586   0.254   6.096  13.733  0.0514 -0.2264 -0.3543
  140CHL1  H19A16587   0.180   6.090  13.650  0.4356 -1.3280 -0.6250
  140CHL1  H19B16588   0.201   6.154  13.812  0.0698 -1.1320  0.3442
  140CHL1  H19C16589   0.334   6.160  13.691  1.2844  0.7072  3.0369
  140CHL1    C116590   0.395   5.898  13.684  0.4400  1.2114 -0.4547
  140CHL1   H1A16591   0.471   5.972  13.650  1.1239 -0.0805 -1.8286
  140CHL1   H1B16592   0.444   5.810  13.729 -1.1402 -0.1741 -1.3549
  140CHL1    C216593   0.325   5.843  13.561  0.3703  0.0104 -0.6417
  140CHL1   H2A16594   0.393   5.788  13.493 -2.3227 -2.3218 -1.6455
  140CHL1   H2B16595   0.288   5.927  13.499  1.5588 -0.5664 -2.1994
  140CHL1   C2016596   0.658   6.236  14.364 -0.2989  0.2716  0.7153
  140CHL1   H2016597   0.724   6.187  14.439 -0.0385  0.3878  0.5648
  140CHL1   C2116598   0.569   6.346  14.437  0.6099 -0.2582  0.5518
  140CHL1  H21A16599   0.488   6.304  14.500 -0.4177 -0.9553 -1.1846
  140CHL1  H21B16600   0.522   6.406  14.356  2.3153  0.4025  0.0031
  140CHL1  H21C16601   0.644   6.406  14.493 -1.2293  1.7542  0.9886
  140CHL1   C2216602   0.755   6.308  14.268  0.4364 -0.1171  0.7287
  140CHL1  H22A16603   0.701   6.356  14.184  3.8240 -0.4173 -1.8076
  140CHL1  H22B16604   0.797   6.390  14.331 -1.8132  1.5652  0.1645
  140CHL1   C2316605   0.867   6.224  14.212 -0.1353 -1.2886 -0.4078
  140CHL1  H23A16606   0.932   6.198  14.299 -1.5580  0.6501  1.3629
  140CHL1  H23B16607   0.825   6.132  14.166 -0.3887 -0.9510 -0.8556
  140CHL1   C2416608   0.946   6.307  14.107  0.1095  0.4196 -0.0647
  140CHL1  H24A16609   0.871   6.350  14.036  0.4135  0.4992 -0.3446
  140CHL1  H24B16610   0.992   6.394  14.158  0.5941  0.4059 -0.4675
  140CHL1   C2516611   1.042   6.224  14.011  0.4693 -0.6752 -0.3798
  140CHL1   H2516612   0.975   6.150  13.961 -1.2794  0.3174  0.3951
  140CHL1   C2616613   1.155   6.157  14.094  0.3223  0.8358 -0.0025
  140CHL1  H26A16614   1.111   6.104  14.181  0.2929  0.1690 -0.4074
  140CHL1  H26B16615   1.201   6.076  14.033 -0.9386 -1.0632  1.4439
  140CHL1  H26C16616   1.238   6.225  14.120  1.6571  0.9207 -3.8423
  140CHL1   C2716617   1.102   6.318  13.905  0.6548 -0.1691 -0.5549
  140CHL1  H27A16618   1.160   6.402  13.950  1.8112 -1.2191 -0.0524
  140CHL1  H27B16619   1.164   6.254  13.840  0.9231 -2.3542  1.7132
  140CHL1  H27C16620   1.016   6.371  13.857 -1.5634 -3.3378 -0.3788
  141DOPC     N16621   3.733   2.245  17.317 -0.7716 -0.1733  0.1246
  141DOPC   C1216622   3.683   2.355  17.222 -0.2131 -0.7193 -0.7354
  141DOPC  H12A16623   3.739   2.445  17.244 -0.8846  0.4252 -3.3833
  141DOPC  H12B16624   3.579   2.357  17.251 -0.1272  0.0976 -0.4431
  141DOPC   C1316625   3.866   2.190  17.273 -0.0539 -0.1627 -0.4050
  141DOPC  H13A16626   3.892   2.100  17.328 -1.1091 -0.1031  0.2317
  141DOPC  H13B16627   3.862   2.174  17.167  0.6181  0.2245 -0.4907
  141DOPC  H13C16628   3.945   2.262  17.285 -0.1982  0.4145 -2.5818
  141DOPC   C1416629   3.640   2.133  17.321  0.1567  0.3014 -0.2548
  141DOPC  H14A16630   3.538   2.165  17.300 -0.1481  0.3188  1.1819
  141DOPC  H14B16631   3.655   2.060  17.242 -1.4012 -0.3278 -0.0204
  141DOPC  H14C16632   3.628   2.081  17.415 -0.0050  1.2063  0.2412
  141DOPC   C1516633   3.747   2.306  17.451  0.3141  0.0489 -0.5273
  141DOPC  H15A16634   3.651   2.343  17.485 -0.3276 -0.4038 -1.7818
  141DOPC  H15B16635   3.814   2.391  17.452 -0.2930  0.5511  1.0405
  141DOPC  H15C16636   3.786   2.245  17.531 -0.9035  1.0519  0.8920
  141DOPC   C1116637   3.695   2.342  17.065  0.0311 -0.1908  0.1168
  141DOPC  H11A16638   3.627   2.260  17.031 -0.7769  0.5896 -0.1888
  141DOPC  H11B16639   3.664   2.437  17.016 -0.1241 -0.7715 -0.9303
  141DOPC     P16640   3.925   2.431  17.022 -0.1922 -0.2462 -0.2767
  141DOPC   O1316641   4.058   2.373  17.021 -0.1236 -0.2436 -0.9179
  141DOPC   O1416642   3.905   2.531  17.131 -0.7733  0.0798  0.1985
  141DOPC   O1216643   3.831   2.307  17.038  0.1561 -0.8115  0.0491
  141DOPC   O1116644   3.906   2.499  16.877 -0.2617 -0.6301  0.3098
  141DOPC    C116645   3.876   2.414  16.763  0.0723 -0.2803 -0.1786
  141DOPC    HA16646   3.821   2.471  16.685 -0.1594  0.9980  0.8847
  141DOPC    HB16647   3.808   2.334  16.801  2.2362 -1.3081  1.8121
  141DOPC    C216648   4.004   2.360  16.690 -0.1272  0.0380  0.0184
  141DOPC    HS16649   4.056   2.295  16.764 -1.7193  0.8717  1.9684
  141DOPC   O2116650   4.091   2.470  16.656  0.0421 -0.0868  0.2185
  141DOPC   C2116651   4.221   2.472  16.686 -0.5404  0.6780  0.0193
  141DOPC   O2216652   4.285   2.377  16.734 -0.1429 -0.0697 -0.1436
  141DOPC   C2216653   4.283   2.599  16.626 -0.9133  0.0873 -0.2601
  141DOPC   H2R16654   4.255   2.687  16.687  0.8269  1.0973 -0.8335
  141DOPC   H2S16655   4.239   2.610  16.525 -0.8388  2.4220 -0.0760
  141DOPC    C316656   3.974   2.270  16.565  0.0219  0.8028 -0.0951
  141DOPC    HX16657   3.913   2.320  16.487 -1.9325 -0.5193  0.5162
  141DOPC    HY16658   3.911   2.189  16.607  1.7738 -0.6449 -0.1008
  141DOPC   O3116659   4.101   2.229  16.506  0.0651  0.0919 -0.0614
  141DOPC   C3116660   4.142   2.104  16.524  0.2898  0.7204 -0.3891
  141DOPC   O3216661   4.086   2.018  16.594 -0.3925  0.6459  0.4101
  141DOPC   C3216662   4.267   2.090  16.443  0.6298 -0.5639 -0.3687
  141DOPC   H2X16663   4.338   2.108  16.527  0.6958 -0.8002 -0.3744
  141DOPC   H2Y16664   4.273   1.988  16.400  1.0348 -0.9925  0.6794
  141DOPC   C2316665   4.440   2.593  16.625 -0.5547 -0.2479  0.3462
  141DOPC   H3R16666   4.477   2.555  16.722 -3.5029  0.6378  1.9543
  141DOPC   H3S16667   4.478   2.697  16.613  1.3378 -0.7320  1.6830
  141DOPC   C2416668   4.496   2.511  16.506  0.2812 -0.1038 -0.2007
  141DOPC   H4R16669   4.462   2.405  16.508  1.3726 -0.4943 -1.1168
  141DOPC   H4S16670   4.603   2.498  16.533 -0.0816 -0.9320  0.9282
  141DOPC   C2516671   4.489   2.569  16.362 -0.1504 -0.4345 -0.1720
  141DOPC   H5R16672   4.383   2.581  16.331  0.5159  0.4630 -2.2978
  141DOPC   H5S16673   4.542   2.496  16.298 -0.9607 -2.0571  0.9263
  141DOPC   C2616674   4.559   2.706  16.331  0.6063  0.5033 -0.2974
  141DOPC   H6R16675   4.664   2.703  16.367  0.7287  1.8535 -0.5029
  141DOPC   H6S16676   4.515   2.789  16.390 -0.2872  0.8713 -1.4486
  141DOPC   C2716677   4.565   2.749  16.181  1.0295 -0.7765  0.1796
  141DOPC   H7R16678   4.616   2.846  16.169 -0.7069 -0.0581 -2.0486
  141DOPC   H7S16679   4.462   2.768  16.144  1.0405  0.1309  0.5989
  141DOPC   C2816680   4.633   2.650  16.081 -0.6599 -0.5830  0.0181
  141DOPC   H8R16681   4.622   2.694  15.980  1.5102 -1.2903 -0.5872
  141DOPC   H8S16682   4.582   2.552  16.073 -0.4319 -0.6290 -0.9989
  141DOPC   C2916683   4.782   2.628  16.115  0.6466 -0.0235  0.4626
  141DOPC   H9R16684   4.806   2.561  16.199  1.1500  0.5147  0.7523
  141DOPC  C21016685   4.881   2.682  16.050 -0.3218  0.0223 -0.1958
  141DOPC  H10R16686   4.986   2.665  16.077 -0.5126  0.2497  0.7247
  141DOPC  C21116687   4.874   2.773  15.926 -1.2847  0.0828  0.0174
  141DOPC  H11R16688   4.912   2.877  15.937  0.1173 -0.5228  1.1461
  141DOPC  H11S16689   4.770   2.784  15.888 -1.5868 -2.6941 -0.1903
  141DOPC  C21216690   4.949   2.707  15.808 -0.3462 -0.0795  0.2676
  141DOPC  H12R16691   4.880   2.633  15.763 -0.8456  1.0534 -0.9030
  141DOPC  H12S16692   5.045   2.658  15.834  0.0207  0.8778  0.7502
  141DOPC  C21316693   4.991   2.813  15.698 -0.2236 -0.0482  0.4025
  141DOPC  H13R16694   5.070   2.883  15.733 -0.9545  1.1054 -0.1886
  141DOPC  H13S16695   4.896   2.865  15.674 -0.3899 -0.1421  0.8600
  141DOPC  C21416696   5.032   2.748  15.561 -1.3292 -0.6323  1.2787
  141DOPC  H14R16697   4.953   2.675  15.532  1.3672 -3.5305  0.5613
  141DOPC  H14S16698   5.132   2.699  15.568 -0.8325 -0.1935 -1.5482
  141DOPC  C21516699   5.046   2.849  15.441  0.3162  0.7443 -0.2879
  141DOPC  H15R16700   5.139   2.907  15.457 -0.4535  1.7021  0.8816
  141DOPC  H15S16701   4.968   2.927  15.451 -0.2017  0.6919 -3.0650
  141DOPC  C21616702   5.031   2.790  15.300  0.4536  0.1407 -0.1046
  141DOPC  H16R16703   5.070   2.871  15.235 -0.8272  1.8556  1.1623
  141DOPC  H16S16704   4.922   2.789  15.277  0.3308  1.7446  0.2468
  141DOPC  C21716705   5.087   2.653  15.282  0.1454 -0.4989  0.2618
  141DOPC  H17R16706   5.026   2.580  15.341 -1.7889  1.4337  0.7935
  141DOPC  H17S16707   5.192   2.646  15.317 -0.0474 -0.6896  0.8212
  141DOPC  C21816708   5.080   2.607  15.136  0.3496 -0.4485  0.5500
  141DOPC  H18R16709   5.090   2.497  15.128 -1.3571 -0.5602 -0.7729
  141DOPC  H18S16710   5.136   2.665  15.060 -1.0903  1.3883  0.8177
  141DOPC  H18T16711   4.973   2.617  15.104  0.5442 -0.2976 -0.0693
  141DOPC   C3316712   4.300   2.196  16.343 -0.3476 -0.4521  0.2983
  141DOPC   H3X16713   4.409   2.214  16.338 -0.1308 -1.5972  0.5193
  141DOPC   H3Y16714   4.256   2.296  16.362  0.4688  0.3977 -1.9560
  141DOPC   C3416715   4.238   2.171  16.205 -0.1684  0.2811  0.0705
  141DOPC   H4X16716   4.132   2.153  16.231 -0.2310  2.5280  1.6627
  141DOPC   H4Y16717   4.270   2.080  16.150  0.8590  0.6160  0.0746
  141DOPC   C3516718   4.245   2.290  16.113 -0.1264 -0.4271 -0.2485
  141DOPC   H5X16719   4.349   2.311  16.080  0.3756  3.4391  3.0001
  141DOPC   H5Y16720   4.220   2.391  16.151  0.7818 -0.2760 -0.0441
  141DOPC   C3616721   4.160   2.270  15.982 -0.2033  0.0388  0.9339
  141DOPC   H6X16722   4.194   2.178  15.930 -1.9260  0.1333 -0.4609
  141DOPC   H6Y16723   4.052   2.251  16.002 -0.8773  0.1648 -2.0689
  141DOPC   C3716724   4.168   2.394  15.893 -0.0868 -0.6798  0.0175
  141DOPC   H7X16725   4.139   2.474  15.963 -0.7367  0.2015 -1.2272
  141DOPC   H7Y16726   4.276   2.417  15.876  0.1828 -0.0189  2.3220
  141DOPC   C3816727   4.086   2.386  15.770  0.6512  0.2423  0.1423
  141DOPC   H8X16728   4.076   2.488  15.729  0.4293 -0.2117 -0.9712
  141DOPC   H8Y16729   3.984   2.348  15.794  1.2259 -2.6752 -1.5273
  141DOPC   C3916730   4.144   2.289  15.671  0.1665  0.0865 -0.0205
  141DOPC   H9X16731   4.156   2.190  15.718  0.4861  0.6815  1.2095
  141DOPC  C31016732   4.196   2.306  15.551  1.0254 -0.8058  0.6949
  141DOPC  H10X16733   4.227   2.220  15.489 -2.2744 -1.8332  0.2694
  141DOPC  C31116734   4.190   2.437  15.472 -0.0086  0.4521  0.2931
  141DOPC  H11X16735   4.295   2.470  15.455 -0.5434  2.9617  1.4160
  141DOPC  H11Y16736   4.145   2.523  15.524 -0.4540  0.9025 -0.8020
  141DOPC  C31216737   4.111   2.432  15.334 -0.2771 -0.4332 -0.6304
  141DOPC  H12X16738   4.125   2.527  15.280 -0.8404 -0.1081 -0.2213
  141DOPC  H12Y16739   4.002   2.414  15.346 -0.0253 -1.3198  0.5669
  141DOPC  C31316740   4.170   2.332  15.231 -0.3815 -0.5545  0.2845
  141DOPC  H13X16741   4.135   2.234  15.268 -2.6611 -0.0397 -0.3738
  141DOPC  H13Y16742   4.128   2.352  15.130  2.6249  1.2758 -0.7426
  141DOPC  C31416743   4.326   2.341  15.228  0.6514 -0.2327 -0.5416
  141DOPC  H14X16744   4.354   2.448  15.240  2.7415 -0.9107  1.4718
  141DOPC  H14Y16745   4.372   2.287  15.314  0.9627 -1.1493 -1.2689
  141DOPC  C31516746   4.393   2.292  15.102  0.1617 -1.2278 -0.3483
  141DOPC  H15X16747   4.357   2.369  15.030  2.3546 -0.0479 -0.2581
  141DOPC  H15Y16748   4.367   2.186  15.079 -0.7354 -1.5257  1.8256
  141DOPC  C31616749   4.547   2.305  15.119  0.8809  0.7564 -0.0131
  141DOPC  H16X16750   4.557   2.413  15.142 -0.2811  0.1924  3.8162
  141DOPC  H16Y16751   4.580   2.255  15.213  1.1402  0.3968 -0.2927
  141DOPC  C31716752   4.621   2.259  14.996 -0.1355 -0.1241 -0.6287
  141DOPC  H17X16753   4.594   2.156  14.965  1.1728 -0.2886 -1.2902
  141DOPC  H17Y16754   4.587   2.333  14.920 -0.6687  1.5625  1.1763
  141DOPC  C31816755   4.777   2.264  15.009  0.0389  0.0662  0.0047
  141DOPC  H18X16756   4.804   2.370  15.029  0.1690  0.4700 -2.0610
  141DOPC  H18Y16757   4.817   2.199  15.090 -1.8675 -2.4969 -0.9772
  141DOPC  H18Z16758   4.815   2.226  14.911 -0.9143  0.9528 -0.7337
  142DOPC     N16759   6.377   2.272  16.999 -0.4283 -0.0702 -0.7913
  142DOPC   C1216760   6.383   2.381  16.895  0.9420 -0.3247 -0.2408
  142DOPC  H12A16761   6.467   2.354  16.833 -0.5995 -1.3274 -1.9667
  142DOPC  H12B16762   6.403   2.478  16.940 -2.0158  0.1203  0.3061
  142DOPC   C1316763   6.251   2.280  17.077 -0.3256  0.0201 -0.9840
  142DOPC  H13A16764   6.173   2.256  17.007 -2.2148 -0.7137  1.2568
  142DOPC  H13B16765   6.243   2.206  17.155 -1.7729  1.4420  0.2850
  142DOPC  H13C16766   6.233   2.376  17.123 -2.1889 -1.3055  1.2534
  142DOPC   C1416767   6.491   2.279  17.099  0.2414  0.3838 -0.2283
  142DOPC  H14A16768   6.463   2.222  17.186  1.2068  0.7327  0.3320
  142DOPC  H14B16769   6.584   2.250  17.052  1.0169  0.1633  1.3682
  142DOPC  H14C16770   6.509   2.382  17.127 -2.8402  1.6921 -2.5113
  142DOPC   C1516771   6.376   2.142  16.930  0.1744  0.2397  0.0983
  142DOPC  H15A16772   6.319   2.061  16.974  1.6097 -2.1225 -2.0774
  142DOPC  H15B16773   6.475   2.104  16.910  0.2358  0.9244 -0.9781
  142DOPC  H15C16774   6.322   2.163  16.838 -2.2076  0.1113  1.3886
  142DOPC   C1116775   6.261   2.403  16.804  0.3517  0.0272  0.2473
  142DOPC  H11A16776   6.177   2.436  16.869  0.3249 -0.4761  0.4735
  142DOPC  H11B16777   6.290   2.486  16.735 -1.5039  0.6079  0.1276
  142DOPC     P16778   6.090   2.201  16.722 -0.4965  0.0016  0.4191
  142DOPC   O1316779   6.018   2.211  16.855 -0.3138 -0.2595  0.3561
  142DOPC   O1416780   6.113   2.061  16.687 -0.1633  0.3487 -0.0337
  142DOPC   O1216781   6.225   2.279  16.736  0.1124  0.0125  0.0380
  142DOPC   O1116782   6.010   2.268  16.608  0.0271  0.1028 -0.0409
  142DOPC    C116783   6.004   2.412  16.596  0.1547 -0.1468 -0.3077
  142DOPC    HA16784   6.030   2.470  16.687  2.6906  1.5844 -1.9978
  142DOPC    HB16785   5.903   2.448  16.569  0.9529  1.0675 -1.8348
  142DOPC    C216786   6.083   2.473  16.478  1.3277  0.2416  0.0440
  142DOPC    HS16787   6.162   2.536  16.524 -0.2625  1.2644  1.5259
  142DOPC   O2116788   6.002   2.544  16.381 -0.1720 -0.1018  0.7022
  142DOPC   C2116789   5.955   2.658  16.431  0.6391 -0.3973  0.6246
  142DOPC   O2216790   5.970   2.697  16.545 -0.1957 -0.4000  0.3913
  142DOPC   C2216791   5.886   2.742  16.324 -0.2841  0.5666 -0.1512
  142DOPC   H2R16792   5.962   2.785  16.255  0.6345  0.0987  0.5468
  142DOPC   H2S16793   5.840   2.829  16.375 -1.5518  1.2098 -2.2536
  142DOPC    C316794   6.151   2.356  16.392 -0.6994 -0.1278  0.3217
  142DOPC    HX16795   6.068   2.283  16.389 -1.4116  0.6928 -0.6032
  142DOPC    HY16796   6.238   2.308  16.441 -0.0885 -0.9405 -1.4520
  142DOPC   O3116797   6.182   2.395  16.257 -0.0095  0.3005 -0.1611
  142DOPC   C3116798   6.301   2.454  16.234 -0.2057 -0.6972 -0.5902
  142DOPC   O3216799   6.380   2.489  16.320 -0.3988  0.4227 -0.4216
  142DOPC   C3216800   6.323   2.476  16.085 -0.3532 -0.1804 -0.7378
  142DOPC   H2X16801   6.243   2.416  16.035 -0.5943 -1.7865  1.4194
  142DOPC   H2Y16802   6.319   2.582  16.054  0.2591  0.1223  0.1752
  142DOPC   C2316803   5.767   2.669  16.249 -0.0381 -0.3242  0.2398
  142DOPC   H3R16804   5.715   2.740  16.181  0.2691 -1.2831 -1.0382
  142DOPC   H3S16805   5.702   2.632  16.330  1.4846  0.4233  1.8641
  142DOPC   C2416806   5.811   2.546  16.164  0.3109 -0.1649 -0.2045
  142DOPC   H4R16807   5.722   2.507  16.111 -2.5476  3.5023  1.4657
  142DOPC   H4S16808   5.854   2.470  16.234 -1.4124 -1.0671 -0.0772
  142DOPC   C2516809   5.924   2.586  16.068  0.6615  0.0398 -0.2117
  142DOPC   H5R16810   6.014   2.594  16.133  0.5638 -1.6986  0.1831
  142DOPC   H5S16811   5.926   2.680  16.009 -1.0318 -1.4559 -2.8758
  142DOPC   C2616812   5.943   2.467  15.973  0.7008 -0.1820 -0.7486
  142DOPC   H6R16813   5.837   2.444  15.948 -0.2895  1.3538  1.6324
  142DOPC   H6S16814   5.983   2.374  16.018 -0.7310  0.0139  1.0382
  142DOPC   C2716815   6.026   2.500  15.845 -0.4638 -0.2889 -0.4191
  142DOPC   H7R16816   6.127   2.543  15.867 -0.3143 -1.1020  0.5419
  142DOPC   H7S16817   5.961   2.573  15.793 -0.0772 -0.8276 -1.6979
  142DOPC   C2816818   6.038   2.368  15.767  0.0679 -0.4886 -0.1991
  142DOPC   H8R16819   5.938   2.322  15.758 -0.2560  0.4730 -2.0910
  142DOPC   H8S16820   6.102   2.305  15.832 -0.8782 -1.0505  0.2055
  142DOPC   C2916821   6.100   2.383  15.628 -0.4970 -0.0591 -0.4949
  142DOPC   H9R16822   6.210   2.386  15.623 -0.4657 -0.6448 -0.2215
  142DOPC  C21016823   6.028   2.376  15.515 -0.7186  0.0589  0.6692
  142DOPC  H10R16824   6.089   2.384  15.423  1.9451 -1.1711  2.2146
  142DOPC  C21116825   5.877   2.362  15.494 -0.4540  0.4124 -0.0459
  142DOPC  H11R16826   5.853   2.438  15.416  1.8974  1.3289  0.0406
  142DOPC  H11S16827   5.820   2.392  15.584 -0.2499 -1.1932  0.6572
  142DOPC  C21216828   5.833   2.227  15.444  0.0477 -0.2530 -0.1373
  142DOPC  H12R16829   5.725   2.238  15.420  0.5132  1.8946 -1.5178
  142DOPC  H12S16830   5.862   2.158  15.526  2.1631 -0.7811 -1.2717
  142DOPC  C21316831   5.897   2.171  15.318  0.3926 -0.5892  0.2576
  142DOPC  H13R16832   6.007   2.163  15.334  0.5305  1.1923  0.3903
  142DOPC  H13S16833   5.893   2.242  15.233  1.8786 -0.2627  0.4371
  142DOPC  C21416834   5.836   2.037  15.274 -0.7221  0.7043 -0.3998
  142DOPC  H14R16835   5.739   2.060  15.224 -0.0410  3.3993 -0.6101
  142DOPC  H14S16836   5.846   1.966  15.358  1.9854 -0.7629 -1.8374
  142DOPC  C21516837   5.918   1.977  15.150 -0.8472  0.3646  0.3559
  142DOPC  H15R16838   6.022   1.948  15.178 -0.8454 -1.2796 -1.1952
  142DOPC  H15S16839   5.930   2.055  15.072  0.4918  0.0865  0.2545
  142DOPC  C21616840   5.856   1.849  15.091  0.8862  0.5758  0.4807
  142DOPC  H16R16841   5.762   1.885  15.044  1.5473 -0.7566 -2.1104
  142DOPC  H16S16842   5.842   1.778  15.175 -1.9527  0.4616 -0.0036
  142DOPC  C21716843   5.928   1.796  14.965 -0.4662  0.3978  0.4072
  142DOPC  H17R16844   6.032   1.790  15.004 -0.6244  1.8633  1.1237
  142DOPC  H17S16845   5.920   1.870  14.882  1.4238 -0.4646 -0.5977
  142DOPC  C21816846   5.881   1.662  14.917  0.4408  0.0786  0.3269
  142DOPC  H18R16847   5.868   1.610  15.014 -1.7874  0.6805  0.3971
  142DOPC  H18S16848   5.955   1.608  14.854 -0.8418 -1.5009  0.1032
  142DOPC  H18T16849   5.781   1.667  14.868  0.2734  1.1733  0.7617
  142DOPC   C3316850   6.466   2.417  16.045 -0.2811  0.7306  0.5427
  142DOPC   H3X16851   6.487   2.328  16.108 -0.1281 -0.8112 -1.6024
  142DOPC   H3Y16852   6.549   2.488  16.064  0.8375 -0.3290 -0.2397
  142DOPC   C3416853   6.480   2.358  15.902  0.5095 -0.1905  0.0750
  142DOPC   H4X16854   6.405   2.286  15.863  2.8920 -2.0472 -1.3577
  142DOPC   H4Y16855   6.581   2.316  15.883 -0.0644 -2.2374  1.2511
  142DOPC   C3516856   6.477   2.482  15.811  0.2184 -0.2194 -0.2544
  142DOPC   H5X16857   6.553   2.549  15.857 -0.2136 -0.0929  0.2693
  142DOPC   H5Y16858   6.376   2.528  15.809 -0.3456 -1.3842 -2.6285
  142DOPC   C3616859   6.524   2.446  15.663  1.0312  0.0793 -0.0523
  142DOPC   H6X16860   6.620   2.392  15.671  1.7404  1.3168  0.1374
  142DOPC   H6Y16861   6.456   2.372  15.615  0.7592  1.1986 -1.4980
  142DOPC   C3716862   6.543   2.565  15.566 -0.1368 -0.1024  0.0326
  142DOPC   H7X16863   6.442   2.610  15.552  0.1317 -0.1004 -2.2976
  142DOPC   H7Y16864   6.609   2.642  15.611  1.1221 -1.2215  0.1506
  142DOPC   C3816865   6.596   2.525  15.429 -0.1695  1.3240  0.4940
  142DOPC   H8X16866   6.696   2.477  15.439 -1.7846 -2.1052  1.8357
  142DOPC   H8Y16867   6.629   2.603  15.358  0.5388 -0.8081 -1.6655
  142DOPC   C3916868   6.507   2.422  15.348 -0.2595 -0.5071 -0.3523
  142DOPC   H9X16869   6.521   2.318  15.380 -0.6907 -0.1178  1.1632
  142DOPC  C31016870   6.445   2.464  15.235  0.5083 -0.0701  0.1413
  142DOPC  H10X16871   6.412   2.398  15.154  1.3104  2.5490 -2.4689
  142DOPC  C31116872   6.426   2.606  15.194  0.4108  0.0742  0.1019
  142DOPC  H11X16873   6.430   2.678  15.278 -2.9846 -2.8490  3.1023
  142DOPC  H11Y16874   6.328   2.620  15.144 -0.3077  1.7545  1.8479
  142DOPC  C31216875   6.534   2.649  15.091 -1.0515 -0.7882  0.4438
  142DOPC  H12X16876   6.528   2.590  14.996 -0.1226  0.5725 -0.4940
  142DOPC  H12Y16877   6.633   2.626  15.136 -0.3505  1.8936  0.4553
  142DOPC  C31316878   6.559   2.799  15.081  0.5655 -0.1826 -0.2426
  142DOPC  H13X16879   6.540   2.855  15.175 -0.3377 -0.1759 -0.4192
  142DOPC  H13Y16880   6.664   2.808  15.047 -0.1466  1.4334 -2.1999
  142DOPC  C31416881   6.475   2.854  14.969  0.3667  0.0140 -0.1959
  142DOPC  H14X16882   6.411   2.773  14.929 -0.0919  0.2767 -0.0047
  142DOPC  H14Y16883   6.401   2.929  15.006  0.8605  1.6592 -2.3342
  142DOPC  C31516884   6.561   2.926  14.863 -0.1834 -0.4514 -0.3384
  142DOPC  H15X16885   6.628   2.855  14.811  0.7599  0.4744 -0.4148
  142DOPC  H15Y16886   6.617   3.012  14.904 -0.4234  0.5883 -2.0870
  142DOPC  C31616887   6.468   3.001  14.766 -0.0158  0.8172 -0.6845
  142DOPC  H16X16888   6.427   2.920  14.702 -0.6817  0.7212 -0.1431
  142DOPC  H16Y16889   6.397   3.068  14.820  1.3643 -0.0662  2.4059
  142DOPC  C31716890   6.550   3.086  14.667  0.0554  1.2948 -0.3105
  142DOPC  H17X16891   6.626   3.019  14.625 -1.2170 -0.6815  0.4048
  142DOPC  H17Y16892   6.482   3.120  14.586 -0.4158  1.8246  0.2873
  142DOPC  C31816893   6.604   3.220  14.713 -1.2813 -0.0146  0.2419
  142DOPC  H18X16894   6.683   3.202  14.789  0.6882  1.7819 -1.2657
  142DOPC  H18Y16895   6.665   3.257  14.629 -2.1591  2.3776  0.5921
  142DOPC  H18Z16896   6.531   3.302  14.732  0.2514  1.5189 -0.3056
  143DOPC     N16897   4.172   1.718  17.738 -0.7184 -0.2547 -0.1546
  143DOPC   C1216898   4.212   1.727  17.592 -0.0555 -0.5022 -0.0316
  143DOPC  H12A16899   4.318   1.709  17.589  0.1835  0.1492  2.4372
  143DOPC  H12B16900   4.200   1.825  17.547  1.3192  0.7564  2.1630
  143DOPC   C1316901   4.226   1.603  17.801 -0.3270  0.1103  0.1043
  143DOPC  H13A16902   4.332   1.601  17.778 -0.9603 -0.1073 -3.3456
  143DOPC  H13B16903   4.222   1.610  17.909 -1.4300 -0.6688  0.1323
  143DOPC  H13C16904   4.198   1.507  17.762 -0.3718 -0.0723  0.5716
  143DOPC   C1416905   4.024   1.718  17.760  0.1520  0.6587  0.2134
  143DOPC  H14A16906   3.981   1.802  17.708  0.1610  1.0338  0.7982
  143DOPC  H14B16907   3.983   1.626  17.721  0.5250 -0.4511  2.2769
  143DOPC  H14C16908   3.996   1.733  17.864 -0.1559 -0.1500  0.2557
  143DOPC   C1516909   4.230   1.832  17.816  0.0615  1.1554  0.5851
  143DOPC  H15A16910   4.192   1.925  17.776 -3.6547  0.6257  2.4222
  143DOPC  H15B16911   4.337   1.839  17.809 -0.0440  1.3767 -1.8121
  143DOPC  H15C16912   4.181   1.838  17.912 -0.3645 -0.6148  0.5200
  143DOPC   C1116913   4.145   1.624  17.494  0.1362  0.1811 -0.9172
  143DOPC  H11A16914   4.200   1.623  17.398 -0.3319 -2.8830 -1.2704
  143DOPC  H11B16915   4.163   1.525  17.542  1.8245  0.4259 -0.9887
  143DOPC     P16916   3.965   1.762  17.367 -0.0532  0.5334 -0.0629
  143DOPC   O1316917   4.036   1.887  17.395  0.1614  0.1050 -0.8138
  143DOPC   O1416918   3.816   1.769  17.360 -0.2945  0.5366  0.6042
  143DOPC   O1216919   4.005   1.649  17.475  0.2757  0.0762  0.1066
  143DOPC   O1116920   4.019   1.700  17.229  0.1724 -0.7300  0.1169
  143DOPC    C116921   3.965   1.585  17.160 -0.9298  0.4005 -0.6930
  143DOPC    HA16922   3.917   1.621  17.066  0.4143 -0.0577 -1.5798
  143DOPC    HB16923   3.882   1.542  17.220 -0.2299  2.2786  1.8001
  143DOPC    C216924   4.078   1.477  17.132  0.3679  0.7881 -0.3593
  143DOPC    HS16925   4.126   1.457  17.230  1.8160  0.6575 -1.0668
  143DOPC   O2116926   4.165   1.543  17.032 -0.6543 -1.6846 -0.2014
  143DOPC   C2116927   4.298   1.517  17.044  0.8335  0.1537 -0.1684
  143DOPC   O2216928   4.356   1.461  17.132 -0.2048  0.2185 -0.6186
  143DOPC   C2216929   4.377   1.575  16.928 -0.2783 -0.1573 -0.0880
  143DOPC   H2R16930   4.482   1.539  16.939 -0.1478  0.5505  1.1275
  143DOPC   H2S16931   4.387   1.685  16.938 -1.3098  0.2407 -2.6343
  143DOPC    C316932   4.026   1.340  17.071 -0.0298  0.4009  0.5064
  143DOPC    HX16933   3.952   1.293  17.139 -0.6947  0.4478 -0.1817
  143DOPC    HY16934   4.117   1.276  17.069 -0.8441 -0.8300  1.3287
  143DOPC   O3116935   3.979   1.353  16.936  0.8146 -0.1912  0.3690
  143DOPC   C3116936   3.845   1.361  16.932 -0.7404 -0.0674 -0.4974
  143DOPC   O3216937   3.773   1.373  17.030 -0.0326  0.1233 -0.3777
  143DOPC   C3216938   3.799   1.360  16.784  0.6545 -0.4067  0.1262
  143DOPC   H2X16939   3.889   1.340  16.723  0.2557  0.4926 -0.7761
  143DOPC   H2Y16940   3.725   1.277  16.778 -2.0165  1.7011  1.4181
  143DOPC   C2316941   4.304   1.558  16.792 -0.0272  0.9579 -0.4858
  143DOPC   H3R16942   4.216   1.625  16.778  1.8068  3.3298 -1.3991
  143DOPC   H3S16943   4.273   1.453  16.773  2.0797  0.4402 -1.4017
  143DOPC   C2416944   4.396   1.605  16.681 -0.0095  0.4100 -0.0892
  143DOPC   H4R16945   4.502   1.584  16.708 -0.2289 -0.7239 -0.0622
  143DOPC   H4S16946   4.383   1.714  16.659 -1.4954  0.0215 -1.3804
  143DOPC   C2516947   4.374   1.524  16.551  0.5694 -0.6042  0.0464
  143DOPC   H5R16948   4.344   1.420  16.576  0.6856 -0.3440  1.3912
  143DOPC   H5S16949   4.471   1.524  16.497  0.2155  2.9382 -0.8148
  143DOPC   C2616950   4.258   1.588  16.475 -0.0962  0.0217  1.1091
  143DOPC   H6R16951   4.270   1.694  16.445  1.8263 -0.2606  0.7377
  143DOPC   H6S16952   4.174   1.589  16.547 -1.7522  0.7340 -0.7461
  143DOPC   C2716953   4.210   1.510  16.351  0.7154  0.6459  0.4986
  143DOPC   H7R16954   4.120   1.568  16.325 -0.2164 -0.6801  0.6638
  143DOPC   H7S16955   4.173   1.410  16.383  0.8619  1.1914  2.5673
  143DOPC   C2816956   4.312   1.489  16.236 -0.4479 -0.2195 -0.6119
  143DOPC   H8R16957   4.385   1.421  16.285 -0.0179  1.3257  1.0084
  143DOPC   H8S16958   4.369   1.581  16.210  0.0976 -0.6738 -1.0551
  143DOPC   C2916959   4.247   1.426  16.114 -0.8017 -0.3200 -0.3530
  143DOPC   H9R16960   4.198   1.331  16.143  1.6682 -0.9743  2.1858
  143DOPC  C21016961   4.265   1.448  15.987 -0.3413 -0.3512  0.0355
  143DOPC  H10R16962   4.220   1.369  15.926 -2.6036  0.1919  0.8786
  143DOPC  C21116963   4.332   1.571  15.927  0.1528  0.0182  0.7880
  143DOPC  H11R16964   4.376   1.639  16.003  0.7517 -0.3879  0.8110
  143DOPC  H11S16965   4.256   1.635  15.877 -0.2999  0.0620  1.5158
  143DOPC  C21216966   4.442   1.543  15.828 -1.1525 -0.1676  0.2399
  143DOPC  H12R16967   4.522   1.494  15.888 -1.6901  0.5584  1.6036
  143DOPC  H12S16968   4.496   1.636  15.799  0.8420 -0.6211  2.1700
  143DOPC  C21316969   4.402   1.465  15.705  0.3302 -0.4733  0.5979
  143DOPC  H13R16970   4.315   1.398  15.724  0.3161 -0.4217  0.7130
  143DOPC  H13S16971   4.488   1.398  15.686  0.4291  0.0911 -1.1639
  143DOPC  C21416972   4.367   1.558  15.588 -0.1974 -0.5439  0.0383
  143DOPC  H14R16973   4.450   1.631  15.579  1.1638 -2.1243 -0.9004
  143DOPC  H14S16974   4.273   1.613  15.609  0.9912  1.6779 -0.1742
  143DOPC  C21516975   4.363   1.474  15.454  0.6211  0.0947 -0.4739
  143DOPC  H15R16976   4.284   1.401  15.483 -0.2614  0.7936 -1.0762
  143DOPC  H15S16977   4.458   1.420  15.437  0.3607 -0.1382 -1.2470
  143DOPC  C21616978   4.322   1.547  15.324 -0.1215  0.2490 -0.3883
  143DOPC  H16R16979   4.381   1.499  15.243  1.5297  0.3733  0.6961
  143DOPC  H16S16980   4.370   1.646  15.333  3.6685 -1.3272 -1.2299
  143DOPC  C21716981   4.174   1.547  15.289  0.5686  0.3474 -0.0271
  143DOPC  H17R16982   4.129   1.610  15.368  1.3267  2.9223 -1.5389
  143DOPC  H17S16983   4.136   1.442  15.294  0.5387  0.3890  0.6705
  143DOPC  C21816984   4.142   1.601  15.149 -0.3163  0.3858  0.1678
  143DOPC  H18R16985   4.191   1.697  15.123  1.0864 -0.1567  0.7102
  143DOPC  H18S16986   4.032   1.617  15.152 -0.2522  1.8789 -2.2474
  143DOPC  H18T16987   4.173   1.522  15.077  1.8096  0.0616  1.3441
  143DOPC   C3316988   3.729   1.484  16.729  0.1262 -0.5320 -0.0107
  143DOPC   H3X16989   3.626   1.487  16.771  0.6856 -1.7353  1.5487
  143DOPC   H3Y16990   3.725   1.476  16.619  1.2348  2.1164 -0.3263
  143DOPC   C3416991   3.801   1.608  16.766  0.4943 -0.3532 -0.2258
  143DOPC   H4X16992   3.910   1.586  16.768  0.8453  1.3324  0.2476
  143DOPC   H4Y16993   3.773   1.646  16.866  1.1986  0.5173 -0.3426
  143DOPC   C3516994   3.772   1.720  16.664 -0.7440 -0.0647  0.2468
  143DOPC   H5X16995   3.805   1.817  16.707 -0.6102 -0.4953  1.1204
  143DOPC   H5Y16996   3.663   1.725  16.646 -0.4898  2.6933 -1.0241
  143DOPC   C3616997   3.862   1.700  16.537 -0.8359  0.2814  0.1415
  143DOPC   H6X16998   3.967   1.686  16.573 -0.5248  1.2045 -0.3849
  143DOPC   H6Y16999   3.834   1.609  16.481 -0.0863  0.6406 -0.8356
  143DOPC   C3717000   3.865   1.822  16.443  0.0833 -0.3864  0.0959
  143DOPC   H7X17001   3.765   1.828  16.393 -0.2482  2.1183  0.9364
  143DOPC   H7Y17002   3.893   1.914  16.499  0.0519 -0.5179  0.3280
  143DOPC   C3817003   3.965   1.807  16.320 -1.1688 -0.3716  0.2033
  143DOPC   H8X17004   3.947   1.707  16.273 -0.4666 -0.0463 -0.7823
  143DOPC   H8Y17005   4.069   1.823  16.354 -0.3963  0.1961 -2.2268
  143DOPC   C3917006   3.929   1.914  16.221 -0.2945 -0.2568 -0.1081
  143DOPC   H9X17007   3.871   2.001  16.256  0.1906 -0.8001  2.2173
  143DOPC  C31017008   3.968   1.913  16.089 -0.4040 -0.5453 -0.4630
  143DOPC  H10X17009   3.956   2.009  16.036  3.3957 -1.0669 -2.5825
  143DOPC  C31117010   4.046   1.808  16.021 -0.1687 -0.1786 -0.1737
  143DOPC  H11X17011   4.045   1.719  16.088  3.5258  0.2727  0.7064
  143DOPC  H11Y17012   4.153   1.833  16.005  0.4930 -3.2385 -1.2010
  143DOPC  C31217013   3.981   1.769  15.886  0.6287  0.3470  0.5283
  143DOPC  H12X17014   3.871   1.753  15.886  0.7067 -0.2923  1.5889
  143DOPC  H12Y17015   4.030   1.671  15.870  0.2532  0.3615 -0.7997
  143DOPC  C31317016   4.036   1.849  15.765  0.6926 -0.1991  0.2731
  143DOPC  H13X17017   4.008   1.956  15.779 -0.1712 -0.3917  0.0658
  143DOPC  H13Y17018   4.147   1.852  15.761  0.6619  2.4683 -0.1410
  143DOPC  C31417019   3.978   1.804  15.629  0.7286 -0.3036  0.0132
  143DOPC  H14X17020   4.000   1.698  15.606  3.2123 -0.2176  1.5433
  143DOPC  H14Y17021   3.868   1.818  15.638  1.0229  1.7958  1.1657
  143DOPC  C31517022   4.037   1.882  15.514  0.3906 -0.1605  0.4098
  143DOPC  H15X17023   4.140   1.854  15.484  0.0965 -0.7563 -0.0619
  143DOPC  H15Y17024   4.043   1.991  15.533 -0.3792 -0.3653  1.9604
  143DOPC  C31617025   3.939   1.874  15.391  0.3018  0.3131 -0.3164
  143DOPC  H16X17026   3.941   1.776  15.340 -3.2501 -0.7859  1.3556
  143DOPC  H16Y17027   3.836   1.898  15.427  0.7510  3.3680 -0.7977
  143DOPC  C31717028   3.968   1.980  15.277  0.5254  0.6562 -0.1576
  143DOPC  H17X17029   3.893   1.993  15.196  2.2648  0.1292 -1.9295
  143DOPC  H17Y17030   3.976   2.084  15.316  0.2183  1.0670 -1.1568
  143DOPC  C31817031   4.098   1.952  15.198  0.1554  0.0614 -0.2352
  143DOPC  H18X17032   4.073   1.882  15.116 -0.4925 -0.2135  0.1822
  143DOPC  H18Y17033   4.134   2.044  15.149 -0.0614  0.7481  0.8507
  143DOPC  H18Z17034   4.182   1.909  15.257 -0.6948  1.2942  1.9909
  144DOPC     N17035   4.920   0.598  17.619  0.4097  0.0841 -0.0157
  144DOPC   C1217036   4.896   0.581  17.474 -0.1893 -0.2789 -0.6330
  144DOPC  H12A17037   4.876   0.477  17.451  0.1399  0.3356 -4.1577
  144DOPC  H12B17038   4.984   0.600  17.415 -0.5848 -1.1956 -1.5555
  144DOPC   C1317039   5.052   0.550  17.656 -0.5558 -0.3703 -0.5141
  144DOPC  H13A17040   5.064   0.525  17.761 -0.5917 -0.3472 -0.5035
  144DOPC  H13B17041   5.084   0.455  17.616  1.3745 -0.1248  0.3334
  144DOPC  H13C17042   5.128   0.623  17.636  2.0084 -2.5818  0.4738
  144DOPC   C1417043   4.817   0.510  17.693  0.1409 -0.1412 -0.4047
  144DOPC  H14A17044   4.811   0.411  17.649  2.8924  0.3665 -2.1013
  144DOPC  H14B17045   4.844   0.479  17.793 -0.8501 -1.6165 -0.5655
  144DOPC  H14C17046   4.715   0.542  17.676  1.1295  2.9520 -1.1308
  144DOPC   C1517047   4.915   0.743  17.669  0.4419  0.7910  0.4926
  144DOPC  H15A17048   5.006   0.783  17.627  0.6397 -1.1918 -1.1457
  144DOPC  H15B17049   4.903   0.754  17.775 -0.2887 -1.4369  0.6798
  144DOPC  H15C17050   4.827   0.791  17.626  1.0399  0.0232 -1.7601
  144DOPC   C1117051   4.775   0.660  17.411 -0.2612  0.2321  0.7571
  144DOPC  H11A17052   4.796   0.769  17.415 -1.3224  0.5894 -1.9290
  144DOPC  H11B17053   4.772   0.645  17.301  1.9978  0.6064  0.6011
  144DOPC     P17054   4.524   0.712  17.473 -0.2681 -0.2191 -0.1432
  144DOPC   O1317055   4.536   0.826  17.559  0.0705  0.1533 -0.0082
  144DOPC   O1417056   4.410   0.624  17.507 -0.1115  0.3743 -0.0007
  144DOPC   O1217057   4.656   0.626  17.470 -0.0379 -0.5857 -0.2606
  144DOPC   O1117058   4.502   0.760  17.328  0.2813 -0.2591  0.0965
  144DOPC    C117059   4.518   0.699  17.202  0.3337 -0.0658  0.1511
  144DOPC    HA17060   4.493   0.591  17.197 -1.8052  0.3712  0.4910
  144DOPC    HB17061   4.621   0.709  17.162  0.1993 -1.6061 -0.6620
  144DOPC    C217062   4.424   0.759  17.097 -0.5924 -0.1569  0.9813
  144DOPC    HS17063   4.446   0.706  17.002  1.2366 -0.3816  1.5037
  144DOPC   O2117064   4.455   0.898  17.088 -0.0331 -0.3666 -0.2636
  144DOPC   C2117065   4.561   0.948  17.021  0.2122  0.0833  0.7628
  144DOPC   O2217066   4.644   0.877  16.966 -0.3083 -0.3838  0.2275
  144DOPC   C2217067   4.547   1.106  17.019  0.1207  0.2384  0.5245
  144DOPC   H2R17068   4.527   1.149  17.120 -2.7933  2.5317 -0.8543
  144DOPC   H2S17069   4.448   1.124  16.972 -1.0333  1.3592  3.1878
  144DOPC    C317070   4.276   0.744  17.132 -0.0306 -0.7164 -0.3481
  144DOPC    HX17071   4.260   0.788  17.233 -2.2270 -0.4723 -0.7441
  144DOPC    HY17072   4.241   0.640  17.147 -2.2167  0.1875  1.3381
  144DOPC   O3117073   4.188   0.807  17.032  0.1547 -0.0685  0.0358
  144DOPC   C3117074   4.152   0.935  17.053 -0.7220 -0.0221 -0.7539
  144DOPC   O3217075   4.192   1.008  17.142  0.1401 -0.2412 -0.2376
  144DOPC   C3217076   4.051   0.962  16.946  0.0152 -0.3695  0.6085
  144DOPC   H2X17077   3.962   0.897  16.949 -1.4781  1.5651  0.3612
  144DOPC   H2Y17078   3.999   1.057  16.970 -2.5313 -1.2404 -1.1069
  144DOPC   C2317079   4.656   1.184  16.946 -1.1565  0.6921  0.2594
  144DOPC   H3R17080   4.673   1.145  16.843 -2.3839  0.0522  0.2820
  144DOPC   H3S17081   4.753   1.181  17.000 -0.0273 -2.0937 -1.7243
  144DOPC   C2417082   4.614   1.326  16.937  0.1598  0.6666 -0.3860
  144DOPC   H4R17083   4.574   1.358  17.036 -1.7367 -0.9264 -0.5726
  144DOPC   H4S17084   4.528   1.324  16.867 -1.3753 -1.2785  1.4367
  144DOPC   C2517085   4.725   1.412  16.874  0.0994 -0.3138 -0.2697
  144DOPC   H5R17086   4.816   1.420  16.937  1.3364  0.1142 -2.0110
  144DOPC   H5S17087   4.693   1.516  16.895  0.2103 -0.3304 -0.0069
  144DOPC   C2617088   4.778   1.367  16.738  0.4086 -0.1249 -0.1083
  144DOPC   H6R17089   4.701   1.311  16.681 -1.4758  0.3051  1.8969
  144DOPC   H6S17090   4.864   1.298  16.751  2.3777  2.1143 -0.3953
  144DOPC   C2717091   4.824   1.480  16.651  0.1682 -0.1949 -0.0902
  144DOPC   H7R17092   4.903   1.536  16.705 -0.6590  0.4187  0.5119
  144DOPC   H7S17093   4.745   1.553  16.623 -2.8645 -3.1341  0.0145
  144DOPC   C2817094   4.891   1.428  16.527 -0.3380  0.9056 -0.2860
  144DOPC   H8R17095   4.929   1.328  16.557 -0.5107  0.6631 -0.8791
  144DOPC   H8S17096   4.982   1.491  16.510 -0.5299  0.8936 -1.3987
  144DOPC   C2917097   4.805   1.393  16.405 -0.2793 -0.5767 -0.2649
  144DOPC   H9R17098   4.728   1.315  16.420 -1.3197  0.1094 -1.7995
  144DOPC  C21017099   4.824   1.449  16.281  0.2438  0.0022  0.1595
  144DOPC  H10R17100   4.756   1.427  16.198  2.2336  0.2481 -1.6276
  144DOPC  C21117101   4.919   1.563  16.242 -0.8170 -0.4130  0.1022
  144DOPC  H11R17102   5.018   1.523  16.212  0.6801  2.0103  1.4840
  144DOPC  H11S17103   4.932   1.640  16.321  1.0041 -0.3475 -0.2211
  144DOPC  C21217104   4.863   1.648  16.127  0.2532 -0.0299  0.0430
  144DOPC  H12R17105   4.914   1.747  16.124  0.9050 -0.3845 -0.7523
  144DOPC  H12S17106   4.753   1.658  16.139 -0.1215 -1.2202 -1.9402
  144DOPC  C21317107   4.887   1.589  15.988  0.5773  0.4964 -0.5659
  144DOPC  H13R17108   4.841   1.489  15.980  1.5283 -0.0301  0.3668
  144DOPC  H13S17109   4.995   1.565  15.982  0.7695  1.1055  0.2045
  144DOPC  C21417110   4.843   1.680  15.874 -0.1104 -0.1293 -0.1873
  144DOPC  H14R17111   4.888   1.781  15.880  0.1329 -0.1978 -0.7689
  144DOPC  H14S17112   4.734   1.700  15.878 -0.2422 -0.7300 -0.6014
  144DOPC  C21517113   4.856   1.623  15.743  0.1028 -0.1528 -0.2865
  144DOPC  H15R17114   4.784   1.540  15.728  0.4636 -0.2492 -1.5730
  144DOPC  H15S17115   4.960   1.586  15.729 -0.3858 -1.7184 -0.0268
  144DOPC  C21617116   4.815   1.719  15.634 -0.4884  0.1397 -0.0925
  144DOPC  H16R17117   4.883   1.807  15.639 -0.3884  0.0230  0.7723
  144DOPC  H16S17118   4.709   1.747  15.650 -0.5465  1.1606 -1.9163
  144DOPC  C21717119   4.827   1.666  15.487 -0.4624  0.5843 -1.4480
  144DOPC  H17R17120   4.747   1.592  15.465  1.2002 -1.1970 -1.7572
  144DOPC  H17S17121   4.920   1.606  15.476 -0.7120 -1.1283  3.3034
  144DOPC  C21817122   4.826   1.780  15.385  0.6047 -0.5784  0.8112
  144DOPC  H18R17123   4.722   1.815  15.373  0.5087 -1.3229 -0.7215
  144DOPC  H18S17124   4.868   1.739  15.290 -1.4014 -1.0037  0.0647
  144DOPC  H18T17125   4.881   1.870  15.421  0.3051 -0.3517  0.7042
  144DOPC   C3317126   4.108   0.995  16.805  0.1033  0.5827  0.2490
  144DOPC   H3X17127   4.149   0.898  16.770  0.2192  1.0850 -1.0737
  144DOPC   H3Y17128   4.189   1.071  16.800  1.3752 -0.7404  0.3776
  144DOPC   C3417129   3.989   1.040  16.712  0.1397  0.4070 -0.3051
  144DOPC   H4X17130   3.918   1.099  16.773  1.5584  0.4192  1.4279
  144DOPC   H4Y17131   3.934   0.949  16.682  0.6241 -0.4970  1.4117
  144DOPC   C3517132   4.032   1.118  16.589  0.0349 -0.2324  0.9702
  144DOPC   H5X17133   4.106   1.059  16.531 -1.0348 -0.4490 -0.2132
  144DOPC   H5Y17134   4.079   1.215  16.617 -0.5613  0.9716 -1.8795
  144DOPC   C3617135   3.913   1.155  16.501 -0.4217 -0.2392  0.0794
  144DOPC   H6X17136   3.863   1.071  16.449 -2.0507  0.6435  0.1632
  144DOPC   H6Y17137   3.829   1.192  16.563 -3.8961 -2.2605 -2.9526
  144DOPC   C3717138   3.947   1.260  16.393 -0.9190 -0.3086  0.3698
  144DOPC   H7X17139   3.996   1.344  16.446 -2.1365 -0.0443  1.0968
  144DOPC   H7Y17140   4.022   1.211  16.326  0.4880  2.7031 -0.4254
  144DOPC   C3817141   3.831   1.307  16.311  0.1917 -0.0595 -0.2401
  144DOPC   H8X17142   3.756   1.338  16.387 -1.2083  1.3082 -2.0773
  144DOPC   H8Y17143   3.790   1.218  16.259  1.2478 -1.8119  1.8010
  144DOPC   C3917144   3.853   1.423  16.218  0.1861  0.3832  0.1934
  144DOPC   H9X17145   3.849   1.517  16.275 -0.4678 -0.8822  2.3621
  144DOPC  C31017146   3.878   1.423  16.088 -0.3740  0.6067 -0.1138
  144DOPC  H10X17147   3.874   1.511  16.022 -2.5219  0.3570 -0.3956
  144DOPC  C31117148   3.890   1.291  16.007 -0.6367  0.2930  0.4857
  144DOPC  H11X17149   3.789   1.247  15.996 -2.1004  3.3847  0.3713
  144DOPC  H11Y17150   3.960   1.231  16.068 -1.4410 -0.3892  0.7554
  144DOPC  C31217151   3.940   1.308  15.864  0.3131 -0.0193 -0.0202
  144DOPC  H12X17152   3.962   1.208  15.822 -2.8638 -1.3914  1.2614
  144DOPC  H12Y17153   4.034   1.368  15.862  0.5049 -0.3382 -1.0895
  144DOPC  C31317154   3.849   1.384  15.773 -0.0151 -0.3443 -0.3794
  144DOPC  H13X17155   3.747   1.341  15.785  0.6236 -1.3446  2.1779
  144DOPC  H13Y17156   3.830   1.489  15.803  0.2831 -0.8302  1.6381
  144DOPC  C31417157   3.893   1.369  15.628  0.2990  0.1912  0.6213
  144DOPC  H14X17158   3.977   1.439  15.606 -1.2151  0.9487 -3.6957
  144DOPC  H14Y17159   3.917   1.266  15.594  2.2171  0.7219  0.2689
  144DOPC  C31517160   3.779   1.425  15.533  0.1763 -0.2015 -0.5593
  144DOPC  H15X17161   3.733   1.509  15.588  2.1568  0.3651  0.3327
  144DOPC  H15Y17162   3.700   1.349  15.518  0.1690  0.0425 -1.9108
  144DOPC  C31617163   3.821   1.470  15.389 -0.1974  0.5086 -0.7365
  144DOPC  H16X17164   3.908   1.540  15.393 -2.2309  3.1694  0.3700
  144DOPC  H16Y17165   3.840   1.380  15.327 -2.3674  0.5577 -1.5271
  144DOPC  C31717166   3.709   1.550  15.327 -0.0254  0.6211 -0.1744
  144DOPC  H17X17167   3.614   1.492  15.327  0.2689 -0.1143 -3.9113
  144DOPC  H17Y17168   3.698   1.645  15.382  2.2118  0.3921  0.7480
  144DOPC  C31817169   3.737   1.578  15.179  0.0027 -0.8943 -0.0485
  144DOPC  H18X17170   3.666   1.653  15.137  1.7128  0.5450 -0.4804
  144DOPC  H18Y17171   3.838   1.619  15.158 -0.1946 -0.3299  0.0737
  144DOPC  H18Z17172   3.733   1.480  15.127 -0.8940 -1.4362  1.0243
  145DOPC     N17173   4.659   4.505  17.250  0.0726  0.3919  0.1993
  145DOPC   C1217174   4.635   4.558  17.112 -0.0762 -0.2692 -0.0823
  145DOPC  H12A17175   4.530   4.571  17.094 -0.1922 -3.1450 -2.0179
  145DOPC  H12B17176   4.667   4.480  17.044  2.9167  0.7825 -0.0486
  145DOPC   C1317177   4.804   4.510  17.293 -0.5487  0.5032 -0.3418
  145DOPC  H13A17178   4.821   4.492  17.398  1.5116  0.3944 -0.6529
  145DOPC  H13B17179   4.868   4.445  17.236  0.6665  1.7035 -0.4100
  145DOPC  H13C17180   4.848   4.608  17.275 -0.4173  0.6172  0.5418
  145DOPC   C1417181   4.606   4.362  17.247 -0.6488 -0.5584  0.0059
  145DOPC  H14A17182   4.619   4.323  17.347  1.8387  1.6307  0.6509
  145DOPC  H14B17183   4.504   4.350  17.216  0.0706 -3.7715 -1.6213
  145DOPC  H14C17184   4.659   4.300  17.175 -4.2286 -2.0276 -1.5821
  145DOPC   C1517185   4.571   4.571  17.349  0.5614  0.3610 -0.4165
  145DOPC  H15A17186   4.469   4.542  17.327  0.1481  0.8958  0.7344
  145DOPC  H15B17187   4.566   4.677  17.332 -0.0217 -0.1686 -4.8273
  145DOPC  H15C17188   4.587   4.541  17.451 -0.2848 -0.8302 -0.6044
  145DOPC   C1117189   4.720   4.678  17.077  0.2604 -0.2547  0.0515
  145DOPC  H11A17190   4.660   4.746  17.012 -0.2565  0.1317  0.9145
  145DOPC  H11B17191   4.726   4.736  17.172 -0.4190 -0.1036  0.0116
  145DOPC     P17192   4.863   4.590  16.879 -0.1267  0.2623 -0.2084
  145DOPC   O1317193   4.849   4.440  16.888  0.5137  1.1204 -0.1918
  145DOPC   O1417194   4.989   4.638  16.815  0.2042  0.2771 -0.6496
  145DOPC   O1217195   4.851   4.654  17.028  0.1702  0.1318 -0.1386
  145DOPC   O1117196   4.740   4.649  16.806  0.0942 -0.3108 -0.0367
  145DOPC    C117197   4.669   4.571  16.706  0.6388 -0.2115  0.1128
  145DOPC    HA17198   4.592   4.640  16.665  0.0184 -1.4280 -0.8271
  145DOPC    HB17199   4.621   4.479  16.745  1.1778 -0.5901 -0.1078
  145DOPC    C217200   4.759   4.522  16.598  0.0174 -0.0869  0.2236
  145DOPC    HS17201   4.835   4.454  16.643  0.4692  1.3727  1.7861
  145DOPC   O2117202   4.820   4.636  16.537  0.4440 -0.7057  0.4668
  145DOPC   C2117203   4.937   4.623  16.484  0.3427  0.4613 -0.5754
  145DOPC   O2217204   5.001   4.519  16.476  0.3288 -0.0222 -0.3170
  145DOPC   C2217205   4.993   4.748  16.422  0.3336  0.1932  0.5239
  145DOPC   H2R17206   5.079   4.782  16.483 -0.1545  0.1947  1.2260
  145DOPC   H2S17207   4.922   4.833  16.423  0.7499  0.5682 -0.3013
  145DOPC    C317208   4.692   4.437  16.489 -0.2413 -0.2380 -0.7891
  145DOPC    HX17209   4.675   4.342  16.543  2.7667 -0.8362 -0.6757
  145DOPC    HY17210   4.759   4.412  16.404  1.4899 -2.5131  1.0803
  145DOPC   O3117211   4.578   4.503  16.445 -0.0816 -0.2920  0.5406
  145DOPC   C3117212   4.511   4.438  16.346  0.3746  0.1187 -0.3682
  145DOPC   O3217213   4.549   4.328  16.308 -0.6975 -0.1069  0.2949
  145DOPC   C3217214   4.389   4.520  16.308 -0.6134  0.1802  0.7522
  145DOPC   H2X17215   4.326   4.514  16.399 -2.2575  0.2885 -0.3321
  145DOPC   H2Y17216   4.425   4.622  16.285  0.3819 -0.3734 -0.2022
  145DOPC   C2317217   5.046   4.728  16.281  0.9771  0.1352 -0.1794
  145DOPC   H3R17218   5.086   4.624  16.279  1.7213  0.4156 -0.6813
  145DOPC   H3S17219   5.140   4.786  16.265  1.7372 -0.6532  1.2856
  145DOPC   C2417220   4.937   4.759  16.177  0.9076 -0.5634 -0.4465
  145DOPC   H4R17221   4.996   4.741  16.085  1.6037  1.4349 -0.4273
  145DOPC   H4S17222   4.909   4.865  16.192 -0.0928 -0.2383 -3.8891
  145DOPC   C2517223   4.815   4.666  16.197 -0.2142  0.0961  0.0949
  145DOPC   H5R17224   4.759   4.700  16.287 -0.0889  1.4291 -0.3173
  145DOPC   H5S17225   4.859   4.564  16.198  3.9365  1.6869 -0.4013
  145DOPC   C2617226   4.722   4.678  16.079  0.0791  0.7962  0.4189
  145DOPC   H6R17227   4.685   4.782  16.082  1.1095  1.1475  2.6071
  145DOPC   H6S17228   4.634   4.612  16.096  2.1753 -1.9071  1.6287
  145DOPC   C2717229   4.783   4.649  15.943 -0.1505 -0.8485  0.0344
  145DOPC   H7R17230   4.858   4.729  15.925  0.6142 -1.0580  2.0462
  145DOPC   H7S17231   4.716   4.661  15.856  0.2608  0.5529 -0.1104
  145DOPC   C2817232   4.851   4.505  15.933  0.7426 -0.4539 -0.1445
  145DOPC   H8R17233   4.932   4.496  16.009  0.0009 -0.4050  0.6724
  145DOPC   H8S17234   4.897   4.501  15.832 -0.8668 -1.5123 -0.8622
  145DOPC   C2917235   4.752   4.392  15.962 -0.4298 -1.2124  0.6148
  145DOPC   H9R17236   4.677   4.417  16.038 -0.2839 -0.5994  0.5602
  145DOPC  C21017237   4.723   4.290  15.883 -0.2943  0.1444 -0.2079
  145DOPC  H10R17238   4.647   4.220  15.921 -1.0120  0.2795 -1.3454
  145DOPC  C21117239   4.788   4.251  15.746 -0.5851  0.0327 -1.0826
  145DOPC  H11R17240   4.783   4.140  15.748  1.9366 -0.1112 -0.3161
  145DOPC  H11S17241   4.893   4.282  15.728 -0.5524  0.8034  0.3104
  145DOPC  C21217242   4.695   4.309  15.631 -0.5653  0.2348  0.2489
  145DOPC  H12R17243   4.695   4.420  15.635  0.9131  0.2785 -0.4013
  145DOPC  H12S17244   4.589   4.277  15.648  0.0451 -0.6346  3.0068
  145DOPC  C21317245   4.732   4.268  15.483  0.1727 -0.1843 -0.0995
  145DOPC  H13R17246   4.710   4.163  15.454 -1.7139  0.6367 -1.8385
  145DOPC  H13S17247   4.839   4.292  15.465  0.7564 -2.7460 -0.3925
  145DOPC  C21417248   4.661   4.363  15.384 -0.5718  0.5465  0.3686
  145DOPC  H14R17249   4.682   4.468  15.414  1.5867 -0.4664  2.8205
  145DOPC  H14S17250   4.551   4.348  15.383 -0.5335  0.2440 -0.7468
  145DOPC  C21517251   4.707   4.355  15.236 -0.2018 -0.6318 -0.0497
  145DOPC  H15R17252   4.648   4.273  15.189 -0.9733 -1.2745  1.9212
  145DOPC  H15S17253   4.816   4.337  15.230 -0.0263  0.3753 -0.1322
  145DOPC  C21617254   4.678   4.484  15.157 -0.2631 -0.3967  0.3576
  145DOPC  H16R17255   4.729   4.493  15.058 -0.9374 -0.1730  0.0287
  145DOPC  H16S17256   4.735   4.561  15.214  2.8963 -2.8859  0.8687
  145DOPC  C21717257   4.524   4.512  15.140  0.1856  0.3668 -0.2125
  145DOPC  H17R17258   4.480   4.537  15.239 -0.7851 -2.4367  0.1663
  145DOPC  H17S17259   4.474   4.420  15.102  0.6607 -0.5003  1.1940
  145DOPC  C21817260   4.494   4.620  15.039  0.5466 -0.0476  0.6873
  145DOPC  H18R17261   4.541   4.596  14.942  1.2063  1.9066  0.4784
  145DOPC  H18S17262   4.538   4.716  15.073  0.5192  0.8431 -1.6738
  145DOPC  H18T17263   4.388   4.637  15.014  0.9878  1.5418 -0.2163
  145DOPC   C3317264   4.304   4.460  16.199  0.3499 -0.0373  0.8645
  145DOPC   H3X17265   4.283   4.352  16.214 -0.8266  0.3422  2.2345
  145DOPC   H3Y17266   4.352   4.467  16.100  0.2416  1.0690  0.8766
  145DOPC   C3417267   4.174   4.546  16.190 -0.2252  0.2086  0.0765
  145DOPC   H4X17268   4.204   4.638  16.136 -0.0244 -0.3741 -0.8155
  145DOPC   H4Y17269   4.141   4.575  16.292  0.3209  1.6418 -0.1280
  145DOPC   C3517270   4.061   4.464  16.126  0.5285  0.4243  0.1439
  145DOPC   H5X17271   4.055   4.368  16.182  3.2876 -0.2750 -0.6363
  145DOPC   H5Y17272   4.086   4.431  16.023 -0.0885 -0.9251  0.4027
  145DOPC   C3617273   3.938   4.552  16.110  0.7008  0.2018 -0.1189
  145DOPC   H6X17274   3.899   4.578  16.211  0.3408 -2.5117  0.5279
  145DOPC   H6Y17275   3.973   4.647  16.065 -0.0773  1.4303  1.7412
  145DOPC   C3717276   3.827   4.487  16.024 -0.3406  0.3860 -0.0055
  145DOPC   H7X17277   3.857   4.456  15.922 -0.7062  0.8553 -0.2538
  145DOPC   H7Y17278   3.794   4.394  16.076 -2.1260  2.5560  3.0937
  145DOPC   C3817279   3.708   4.583  16.019  0.5091  0.0906  0.7892
  145DOPC   H8X17280   3.744   4.681  15.982 -1.7968  1.0902  1.0833
  145DOPC   H8Y17281   3.683   4.609  16.124  0.1779 -1.8807  1.2568
  145DOPC   C3917282   3.583   4.544  15.934 -0.1950 -0.4479 -0.5984
  145DOPC   H9X17283   3.490   4.525  15.990  0.1656  0.8969  0.5286
  145DOPC  C31017284   3.591   4.535  15.799 -1.0696  0.0225 -0.1999
  145DOPC  H10X17285   3.506   4.501  15.739 -1.0537 -0.7285  0.1897
  145DOPC  C31117286   3.721   4.564  15.717 -0.1246  0.4585 -0.0557
  145DOPC  H11X17287   3.783   4.475  15.694  0.6048 -0.0773  3.4754
  145DOPC  H11Y17288   3.798   4.615  15.778 -1.0026  1.6428  0.1034
  145DOPC  C31217289   3.707   4.644  15.591 -0.3091 -0.0904  0.4095
  145DOPC  H12X17290   3.805   4.649  15.540 -0.4474  0.7343  0.2065
  145DOPC  H12Y17291   3.690   4.751  15.616  1.3952  0.3326 -0.1397
  145DOPC  C31317292   3.609   4.591  15.492  0.6475 -0.7603  0.3460
  145DOPC  H13X17293   3.634   4.483  15.478 -1.2382 -1.0735 -1.0956
  145DOPC  H13Y17294   3.507   4.592  15.536  0.3255  1.7179 -0.2851
  145DOPC  C31417295   3.603   4.673  15.368 -0.6936  0.2939 -0.3776
  145DOPC  H14X17296   3.576   4.779  15.387  2.6023  0.9447  1.4215
  145DOPC  H14Y17297   3.712   4.670  15.344 -0.0526 -1.8821  2.3151
  145DOPC  C31517298   3.525   4.603  15.251  1.1204  0.1558  0.3555
  145DOPC  H15X17299   3.434   4.563  15.301  1.0351 -0.9347 -0.6444
  145DOPC  H15Y17300   3.570   4.511  15.208 -0.8687 -0.4907 -0.4673
  145DOPC  C31617301   3.502   4.687  15.131 -0.3447 -0.6226  0.4549
  145DOPC  H16X17302   3.472   4.790  15.159  3.5510  0.9086 -0.3557
  145DOPC  H16Y17303   3.592   4.715  15.072  0.2263 -1.7042  0.7911
  145DOPC  C31717304   3.402   4.631  15.024 -0.1025 -0.0709 -0.5858
  145DOPC  H17X17305   3.435   4.529  14.995 -4.4425 -1.0103 -2.9994
  145DOPC  H17Y17306   3.307   4.616  15.078  1.3712  0.2336  2.3139
  145DOPC  C31817307   3.385   4.725  14.906  0.5983 -0.0732 -0.0760
  145DOPC  H18X17308   3.347   4.826  14.933 -0.2639 -0.4183  0.0397
  145DOPC  H18Y17309   3.485   4.740  14.861  0.9783  1.0992  1.1056
  145DOPC  H18Z17310   3.315   4.679  14.833  2.0605  0.0996 -1.6429
  146DOPC     N17311   6.176   1.446  17.423 -0.1954  0.2106 -0.5472
  146DOPC   C1217312   6.042   1.480  17.366  0.2350 -0.4969  0.5671
  146DOPC  H12A17313   5.985   1.540  17.436 -1.5108 -2.0450  0.5408
  146DOPC  H12B17314   5.979   1.394  17.349 -0.6774  0.1210  0.7047
  146DOPC   C1317315   6.257   1.567  17.435 -0.4166 -0.3777  0.4371
  146DOPC  H13A17316   6.255   1.637  17.353  1.5592  1.9305  2.1849
  146DOPC  H13B17317   6.222   1.628  17.518  0.6299  1.1087 -0.1661
  146DOPC  H13C17318   6.361   1.553  17.459  0.0371  1.3974 -0.3077
  146DOPC   C1417319   6.257   1.346  17.352  0.4034  0.2209 -0.0392
  146DOPC  H14A17320   6.217   1.246  17.355  3.7592 -1.2916 -0.8489
  146DOPC  H14B17321   6.257   1.371  17.247 -1.3317  3.8500  0.6801
  146DOPC  H14C17322   6.357   1.330  17.390  0.3992 -0.6204 -0.3745
  146DOPC   C1517323   6.161   1.394  17.564  0.0603 -0.0464  0.0213
  146DOPC  H15A17324   6.101   1.463  17.622  0.2223 -1.0650  1.4668
  146DOPC  H15B17325   6.254   1.386  17.618 -0.6244 -2.1128  0.9780
  146DOPC  H15C17326   6.121   1.295  17.548  1.7800 -0.8612  0.5296
  146DOPC   C1117327   6.045   1.555  17.227 -0.1461 -0.2720  0.8234
  146DOPC  H11A17328   5.946   1.581  17.185  0.7796  1.4112 -0.4510
  146DOPC  H11B17329   6.093   1.654  17.246 -1.1422  0.0296  1.9034
  146DOPC     P17330   6.039   1.360  17.059  0.1764  0.5329 -0.5365
  146DOPC   O1317331   5.901   1.345  17.110 -0.0815  0.1722  0.9971
  146DOPC   O1417332   6.122   1.236  17.056 -0.0725  0.5764  0.0501
  146DOPC   O1217333   6.121   1.476  17.139 -0.2228 -0.2741 -0.0435
  146DOPC   O1117334   6.038   1.402  16.912 -0.1085 -0.0735  0.3933
  146DOPC    C117335   6.067   1.537  16.875  0.5734 -0.1851  0.6476
  146DOPC    HA17336   6.171   1.563  16.901  0.9469  0.0872 -1.0020
  146DOPC    HB17337   5.992   1.610  16.912  0.9648  1.0235 -0.8416
  146DOPC    C217338   6.053   1.559  16.722  0.4765 -0.3369 -0.3222
  146DOPC    HS17339   6.070   1.668  16.707  1.3475  0.0231  2.6054
  146DOPC   O2117340   5.924   1.510  16.676 -0.4246 -0.0681  0.4394
  146DOPC   C2117341   5.819   1.596  16.697  0.0124  0.0357  0.0622
  146DOPC   O2217342   5.834   1.704  16.744 -0.0750  0.4756 -0.2373
  146DOPC   C2217343   5.689   1.519  16.673  0.1218 -0.2502  0.1980
  146DOPC   H2R17344   5.624   1.550  16.758  1.5135  0.1335  1.1616
  146DOPC   H2S17345   5.703   1.409  16.676 -0.4579 -0.3196  0.6172
  146DOPC    C317346   6.166   1.484  16.645  0.6666  0.0520  0.6672
  146DOPC    HX17347   6.185   1.391  16.703  0.0634  0.1579  1.0398
  146DOPC    HY17348   6.256   1.547  16.662 -0.8043  2.2413  0.7735
  146DOPC   O3117349   6.128   1.456  16.502 -0.8928 -0.5853  0.2331
  146DOPC   C3117350   6.154   1.557  16.426 -0.4851 -0.2917 -0.8255
  146DOPC   O3217351   6.222   1.658  16.461  0.2613 -0.1304  0.3072
  146DOPC   C3217352   6.087   1.541  16.295  1.0027 -0.4657  0.4726
  146DOPC   H2X17353   6.091   1.431  16.278 -0.1554 -0.1847 -2.1774
  146DOPC   H2Y17354   5.983   1.581  16.294  2.2232  3.1248 -1.4009
  146DOPC   C2317355   5.624   1.561  16.543  0.4969 -0.1446  0.8411
  146DOPC   H3R17356   5.613   1.672  16.537  1.3207 -0.1349 -1.6726
  146DOPC   H3S17357   5.521   1.523  16.530 -1.3602  4.1720  1.1560
  146DOPC   C2417358   5.697   1.514  16.423  0.0144 -0.3665 -0.3458
  146DOPC   H4R17359   5.713   1.405  16.431 -0.2341 -0.5291 -1.7500
  146DOPC   H4S17360   5.801   1.551  16.425 -0.5073  1.1703 -0.0898
  146DOPC   C2517361   5.634   1.548  16.287 -0.0008  0.2272  0.2160
  146DOPC   H5R17362   5.631   1.659  16.286 -1.6006  0.2076 -1.1137
  146DOPC   H5S17363   5.528   1.516  16.280  0.4031 -0.7104 -2.9399
  146DOPC   C2617364   5.707   1.491  16.163 -0.2450  0.1083  0.3774
  146DOPC   H6R17365   5.726   1.382  16.178  1.0754  0.3423  0.5019
  146DOPC   H6S17366   5.804   1.544  16.150 -0.2203 -0.2412 -1.0230
  146DOPC   C2717367   5.633   1.529  16.038 -0.3451  0.0099  0.0233
  146DOPC   H7R17368   5.617   1.639  16.040 -0.3855  0.0296 -1.0467
  146DOPC   H7S17369   5.537   1.474  16.039 -1.1864  1.4032 -1.0675
  146DOPC   C2817370   5.719   1.485  15.918  0.0157 -0.2866  0.6975
  146DOPC   H8R17371   5.739   1.375  15.923  2.1888  0.1075  1.5246
  146DOPC   H8S17372   5.820   1.530  15.924  0.5664 -1.5138  1.1034
  146DOPC   C2917373   5.656   1.522  15.781 -0.1187 -0.6344 -0.7165
  146DOPC   H9R17374   5.622   1.439  15.718  0.0928 -1.7523  0.6087
  146DOPC  C21017375   5.620   1.648  15.743 -0.0158  1.2364  0.1950
  146DOPC  H10R17376   5.576   1.661  15.643  1.2852 -0.5599 -0.6723
  146DOPC  C21117377   5.644   1.778  15.803  0.1107 -0.4323 -0.1702
  146DOPC  H11R17378   5.697   1.835  15.723 -1.2813 -0.1504 -0.9242
  146DOPC  H11S17379   5.703   1.773  15.897  1.9990 -0.1731 -1.2926
  146DOPC  C21217380   5.517   1.861  15.832 -0.3874 -0.4207 -0.0117
  146DOPC  H12R17381   5.462   1.892  15.741  0.5979  3.0101  0.4501
  146DOPC  H12S17382   5.552   1.953  15.883 -1.2365  0.6182 -1.2590
  146DOPC  C21317383   5.427   1.797  15.937 -0.4874 -0.2860  0.5880
  146DOPC  H13R17384   5.472   1.779  16.037  0.4526 -2.4479 -0.1737
  146DOPC  H13S17385   5.412   1.689  15.916 -1.2757 -0.3955  1.6165
  146DOPC  C21417386   5.297   1.866  15.968  0.5704  0.1936 -0.1461
  146DOPC  H14R17387   5.238   1.869  15.874  1.1079  1.2127 -0.4596
  146DOPC  H14S17388   5.305   1.972  16.001 -0.9212  0.6919 -1.2670
  146DOPC  C21517389   5.229   1.796  16.090 -0.3615 -0.9870  0.2003
  146DOPC  H15R17390   5.239   1.686  16.084 -0.4723 -0.9628 -0.4810
  146DOPC  H15S17391   5.124   1.830  16.099  0.3248  0.9214  1.8711
  146DOPC  C21617392   5.284   1.835  16.231 -0.2536  0.2511  0.0788
  146DOPC  H16R17393   5.260   1.944  16.241 -0.1930  0.2183  0.6481
  146DOPC  H16S17394   5.394   1.822  16.236 -0.2133  0.6063  0.2035
  146DOPC  C21717395   5.232   1.756  16.345 -0.0048  0.6534  0.2127
  146DOPC  H17R17396   5.266   1.651  16.341  0.5305  0.8478 -0.6537
  146DOPC  H17S17397   5.121   1.744  16.344  0.1318 -0.7753 -0.5511
  146DOPC  C21817398   5.282   1.811  16.484  0.1314 -0.3075  0.0980
  146DOPC  H18R17399   5.248   1.747  16.568 -0.2706 -1.5124 -0.9571
  146DOPC  H18S17400   5.250   1.916  16.500  0.2288 -0.2731  0.0704
  146DOPC  H18T17401   5.393   1.818  16.484  0.3323 -2.6559  0.5337
  146DOPC   C3317402   6.151   1.622  16.181 -0.0718  0.9551  0.2296
  146DOPC   H3X17403   6.194   1.718  16.218 -2.5555  2.4674 -0.5995
  146DOPC   H3Y17404   6.081   1.647  16.099  0.6132  0.4138 -0.5419
  146DOPC   C3417405   6.263   1.540  16.108  0.3896  0.4678 -0.2982
  146DOPC   H4X17406   6.324   1.489  16.185  0.5235 -1.4748 -1.6052
  146DOPC   H4Y17407   6.327   1.607  16.047  1.7307  0.7658  1.3812
  146DOPC   C3517408   6.210   1.414  16.025 -0.4266  0.1883  0.0954
  146DOPC   H5X17409   6.123   1.452  15.968 -0.0228 -0.7350 -1.1820
  146DOPC   H5Y17410   6.185   1.331  16.096  2.7438  0.4758  1.7314
  146DOPC   C3617411   6.316   1.359  15.926 -0.7332 -0.0248 -0.6079
  146DOPC   H6X17412   6.364   1.444  15.873  0.8879  0.5443  1.6092
  146DOPC   H6Y17413   6.397   1.316  15.989 -2.6264 -0.7872  1.4076
  146DOPC   C3717414   6.260   1.245  15.841 -0.0913 -1.2874 -0.4362
  146DOPC   H7X17415   6.192   1.184  15.903  0.4019 -1.4594 -0.0580
  146DOPC   H7Y17416   6.197   1.294  15.763 -1.2347 -1.1460  0.5588
  146DOPC   C3817417   6.365   1.149  15.782 -0.1496 -0.0254  0.2943
  146DOPC   H8X17418   6.431   1.123  15.868  0.4819 -0.3579 -0.2876
  146DOPC   H8Y17419   6.420   1.215  15.711 -2.8915  0.2796 -1.6665
  146DOPC   C3917420   6.317   1.029  15.707 -0.3044 -0.2235  0.0806
  146DOPC   H9X17421   6.276   0.946  15.766  0.4529 -1.8614 -1.5640
  146DOPC  C31017422   6.308   1.001  15.576  0.4880  0.2625 -0.1131
  146DOPC  H10X17423   6.267   0.904  15.544 -1.0066  0.6523  0.5080
  146DOPC  C31117424   6.331   1.103  15.461 -0.5705 -0.4185  0.2660
  146DOPC  H11X17425   6.344   1.205  15.504 -2.5116 -0.5185  1.1942
  146DOPC  H11Y17426   6.239   1.123  15.403 -0.2110  1.4565  0.2662
  146DOPC  C31217427   6.447   1.079  15.356 -0.2232  0.1916 -0.6968
  146DOPC  H12X17428   6.542   1.052  15.406  0.5652  1.5816 -1.3904
  146DOPC  H12Y17429   6.470   1.176  15.309  0.8580  1.3057  1.9275
  146DOPC  C31317430   6.408   0.981  15.246  0.3198  0.3887  0.1751
  146DOPC  H13X17431   6.385   0.883  15.293 -1.7125 -0.8659 -3.1089
  146DOPC  H13Y17432   6.312   1.007  15.197 -0.1552 -3.3502 -1.1736
  146DOPC  C31417433   6.515   0.963  15.137  0.3453  0.4790 -0.4898
  146DOPC  H14X17434   6.529   1.053  15.073 -1.6204  0.5684 -0.8413
  146DOPC  H14Y17435   6.614   0.956  15.187 -0.0779  0.8990  0.4233
  146DOPC  C31517436   6.495   0.831  15.062 -0.2119  0.1052  0.2366
  146DOPC  H15X17437   6.406   0.847  14.998  0.9439  2.9841 -0.8084
  146DOPC  H15Y17438   6.492   0.743  15.130 -0.6485 -0.0516  0.0141
  146DOPC  C31617439   6.621   0.816  14.969 -0.6081 -0.1056  0.5689
  146DOPC  H16X17440   6.657   0.916  14.937  0.3361 -0.5771  0.0796
  146DOPC  H16Y17441   6.697   0.765  15.031 -0.4450  1.0694  1.3604
  146DOPC  C31717442   6.585   0.726  14.848 -0.2501  0.0843 -0.1860
  146DOPC  H17X17443   6.531   0.632  14.875  1.2090 -0.0711  2.4585
  146DOPC  H17Y17444   6.521   0.787  14.781  1.0610  1.1324 -0.5220
  146DOPC  C31817445   6.707   0.688  14.762 -0.2771  0.6441  0.1404
  146DOPC  H18X17446   6.748   0.586  14.781 -0.2937  1.0616  2.8809
  146DOPC  H18Y17447   6.667   0.684  14.659  0.0087  4.1451 -0.2428
  146DOPC  H18Z17448   6.780   0.772  14.758  0.3211  0.1610  0.7624
  147DOPC     N17449   2.818   1.090  17.042  0.0026 -0.0056  0.3092
  147DOPC   C1217450   2.880   1.169  16.936  0.2991 -0.1582 -0.1007
  147DOPC  H12A17451   2.878   1.106  16.848 -2.1748  0.1679 -0.3618
  147DOPC  H12B17452   2.987   1.176  16.951  0.2839 -1.2247  0.6640
  147DOPC   C1317453   2.682   1.040  16.998  0.6848  0.3472  0.9169
  147DOPC  H13A17454   2.690   0.953  16.934  2.0707 -0.4439  2.1177
  147DOPC  H13B17455   2.634   0.985  17.077  1.4822 -0.5640  0.7789
  147DOPC  H13C17456   2.627   1.116  16.944  2.1702 -0.0487 -1.2965
  147DOPC   C1417457   2.796   1.157  17.170  0.0721  1.0091 -0.3137
  147DOPC  H14A17458   2.732   1.099  17.235 -1.3166  2.4970 -0.3049
  147DOPC  H14B17459   2.883   1.193  17.223  0.0897  1.5678 -0.7161
  147DOPC  H14C17460   2.731   1.241  17.152  0.3437  1.3938  0.4653
  147DOPC   C1517461   2.913   0.975  17.074  0.0366 -0.0904  0.1903
  147DOPC  H15A17462   2.865   0.906  17.142 -0.8020 -0.7417 -1.0051
  147DOPC  H15B17463   3.008   0.996  17.119  0.6524 -0.8661 -0.7132
  147DOPC  H15C17464   2.936   0.921  16.983 -0.0609  1.3144 -0.6862
  147DOPC   C1117465   2.836   1.314  16.899  0.4058 -0.0974  0.5908
  147DOPC  H11A17466   2.899   1.347  16.814  1.0290 -0.0391  1.0662
  147DOPC  H11B17467   2.730   1.307  16.866  0.7790 -2.2954 -0.2886
  147DOPC     P17468   2.976   1.482  17.031  0.2858  0.4288  0.1173
  147DOPC   O1317469   3.090   1.398  16.993  0.2384 -0.0992 -0.4484
  147DOPC   O1417470   2.981   1.526  17.171  0.3663  0.6338 -0.4528
  147DOPC   O1217471   2.840   1.402  17.007 -0.6793 -0.1535 -0.1665
  147DOPC   O1117472   2.965   1.602  16.931 -0.0927  0.0607 -0.3989
  147DOPC    C117473   2.847   1.682  16.940 -0.0684 -1.0060  0.4043
  147DOPC    HA17474   2.851   1.745  17.031  1.0476 -0.0402 -0.2858
  147DOPC    HB17475   2.754   1.621  16.944  0.2531 -1.5336  0.0524
  147DOPC    C217476   2.832   1.768  16.811  0.0648 -0.5616 -0.0599
  147DOPC    HS17477   2.723   1.793  16.813 -0.1874 -1.6670  1.1601
  147DOPC   O2117478   2.877   1.694  16.694  0.0529 -0.0858  0.3045
  147DOPC   C2117479   2.812   1.585  16.659  0.3526 -1.1493  0.1082
  147DOPC   O2217480   2.703   1.549  16.704 -0.2256 -0.6796 -0.3912
  147DOPC   C2217481   2.894   1.504  16.559  0.4751  0.4498 -0.7570
  147DOPC   H2R17482   2.838   1.408  16.551  0.1612  0.5272  0.3787
  147DOPC   H2S17483   2.995   1.476  16.594  1.4667  3.0335 -1.3145
  147DOPC    C317484   2.906   1.899  16.820 -0.6162 -0.7968 -0.4077
  147DOPC    HX17485   3.012   1.878  16.848  0.1696  0.7729 -1.9807
  147DOPC    HY17486   2.878   1.961  16.908  1.0316 -1.0515  0.3487
  147DOPC   O3117487   2.902   1.976  16.696 -0.4200  0.1861 -0.7167
  147DOPC   C3117488   3.008   1.971  16.618 -0.4388  0.4920 -0.6664
  147DOPC   O3217489   3.107   1.907  16.633  0.3665  0.1575 -0.2943
  147DOPC   C3217490   2.993   2.070  16.507 -0.2203  0.1377 -0.4449
  147DOPC   H2X17491   2.892   2.070  16.460 -0.6535 -0.2096  0.4426
  147DOPC   H2Y17492   3.000   2.166  16.562 -0.5105  1.2851 -2.3304
  147DOPC   C2317493   2.895   1.570  16.425 -0.4664  0.2836 -0.6303
  147DOPC   H3R17494   2.958   1.662  16.422 -1.5640  1.1189  0.7620
  147DOPC   H3S17495   2.795   1.609  16.397 -0.0447  1.5859 -0.3904
  147DOPC   C2417496   2.930   1.460  16.321  0.1703  0.0829  0.5869
  147DOPC   H4R17497   2.882   1.360  16.327 -0.9059  0.3715 -2.1497
  147DOPC   H4S17498   3.036   1.430  16.340  0.7415  0.8611 -1.1806
  147DOPC   C2517499   2.933   1.507  16.176  0.0900  0.0751  0.3685
  147DOPC   H5R17500   2.980   1.606  16.167 -1.1615  0.6407 -0.2368
  147DOPC   H5S17501   2.828   1.518  16.139  0.5829 -1.8473 -1.8617
  147DOPC   C2617502   3.013   1.418  16.078  0.3354  1.0908  0.7078
  147DOPC   H6R17503   2.961   1.320  16.070  2.1264  0.2260 -1.0173
  147DOPC   H6S17504   3.113   1.402  16.124  0.9169  0.9073 -0.5786
  147DOPC   C2717505   3.027   1.474  15.937  0.3471  0.2951  0.4010
  147DOPC   H7R17506   3.086   1.408  15.870 -1.1368  1.6517 -2.4474
  147DOPC   H7S17507   3.080   1.570  15.950  1.1470 -0.1814  0.7372
  147DOPC   C2817508   2.904   1.500  15.844 -0.1443 -0.6594 -0.1113
  147DOPC   H8R17509   2.945   1.563  15.763  1.3017 -1.8866 -0.3789
  147DOPC   H8S17510   2.834   1.562  15.904 -0.7657  0.5644 -2.0474
  147DOPC   C2917511   2.849   1.375  15.788 -0.4617 -0.0717  0.1748
  147DOPC   H9R17512   2.912   1.292  15.752 -1.7551 -1.2165  0.4455
  147DOPC  C21017513   2.719   1.346  15.786  0.1433 -0.1787  0.4210
  147DOPC  H10R17514   2.697   1.254  15.730  3.9391 -0.5306 -0.8038
  147DOPC  C21117515   2.597   1.431  15.828 -0.3939 -0.0389 -0.3745
  147DOPC  H11R17516   2.629   1.527  15.873  1.1274 -0.3605 -0.7034
  147DOPC  H11S17517   2.534   1.381  15.906 -1.8685  1.1705 -0.7415
  147DOPC  C21217518   2.527   1.452  15.694  0.4996 -0.2639  0.1241
  147DOPC  H12R17519   2.429   1.496  15.721  1.2585  0.7158  1.4211
  147DOPC  H12S17520   2.523   1.358  15.635 -1.5047  0.9029 -1.7398
  147DOPC  C21317521   2.604   1.539  15.599  0.5992 -0.7539  0.8362
  147DOPC  H13R17522   2.709   1.506  15.582  1.0967  0.5840  1.1670
  147DOPC  H13S17523   2.610   1.636  15.652 -0.5029 -0.9637  1.3770
  147DOPC  C21417524   2.539   1.573  15.460  0.1320  0.2343  0.2243
  147DOPC  H14R17525   2.435   1.598  15.489 -0.0404  0.6795 -0.7330
  147DOPC  H14S17526   2.545   1.483  15.394 -1.5175 -0.4029  0.8784
  147DOPC  C21517527   2.610   1.692  15.394 -0.1709 -0.1237 -0.2077
  147DOPC  H15R17528   2.715   1.672  15.365 -0.2517  0.3914 -0.8961
  147DOPC  H15S17529   2.606   1.777  15.465 -2.8288 -0.6183  0.3541
  147DOPC  C21617530   2.538   1.749  15.273 -0.3343  0.2823  0.5737
  147DOPC  H16R17531   2.565   1.856  15.262 -1.9977  0.7584  0.8624
  147DOPC  H16S17532   2.428   1.734  15.271 -0.3341  0.2534 -0.9853
  147DOPC  C21717533   2.589   1.685  15.141  0.1419  0.2346 -0.5813
  147DOPC  H17R17534   2.559   1.578  15.139  0.2077  0.2208 -0.9670
  147DOPC  H17S17535   2.700   1.689  15.147  0.0928  1.4931 -0.1893
  147DOPC  C21817536   2.552   1.745  15.002  0.0360  0.1934 -0.3273
  147DOPC  H18R17537   2.442   1.759  14.998  0.1202  1.5267  1.0461
  147DOPC  H18S17538   2.582   1.683  14.915  1.5164  0.7175 -0.2167
  147DOPC  H18T17539   2.602   1.844  14.993  1.9876 -0.8093 -1.0029
  147DOPC   C3317540   3.102   2.051  16.409 -0.3466  0.3055  0.5615
  147DOPC   H3X17541   3.206   2.052  16.449  0.3475  0.6563 -1.1803
  147DOPC   H3Y17542   3.104   2.138  16.340 -2.7127  1.7877  2.2045
  147DOPC   C3417543   3.089   1.929  16.317 -0.4336  0.0720 -0.1269
  147DOPC   H4X17544   3.114   1.839  16.377  2.0587  1.7542  1.5338
  147DOPC   H4Y17545   3.175   1.929  16.246  0.5875  0.6573  1.0669
  147DOPC   C3517546   2.960   1.921  16.239 -0.2063  0.4704  0.4972
  147DOPC   H5X17547   2.863   1.913  16.293 -0.1412 -1.3061  0.3991
  147DOPC   H5Y17548   2.961   1.839  16.164 -3.5494 -1.1601  2.0297
  147DOPC   C3617549   2.943   2.047  16.143  0.0215 -0.0465 -0.6170
  147DOPC   H6X17550   2.895   2.129  16.201 -1.4818 -0.7683 -0.7823
  147DOPC   H6Y17551   3.041   2.080  16.102  0.5436  0.1945  0.7949
  147DOPC   C3717552   2.846   2.018  16.027  0.4627  0.5342  0.2521
  147DOPC   H7X17553   2.770   1.951  16.074 -1.1683  3.7439  2.5671
  147DOPC   H7Y17554   2.793   2.110  15.995 -3.1842 -1.9079 -1.5361
  147DOPC   C3817555   2.920   1.953  15.915 -0.6812 -0.3932 -0.0108
  147DOPC   H8X17556   2.994   1.879  15.952 -0.7245 -0.6231 -0.3899
  147DOPC   H8Y17557   2.987   2.030  15.870  0.2209 -1.2924 -0.2325
  147DOPC   C3917558   2.840   1.893  15.803 -0.1879 -0.0209  0.1394
  147DOPC   H9X17559   2.793   1.797  15.829 -1.9905  0.9999  0.8477
  147DOPC  C31017560   2.831   1.933  15.674 -0.2588  0.2240 -0.0516
  147DOPC  H10X17561   2.775   1.865  15.607 -1.5903  1.4820 -0.2474
  147DOPC  C31117562   2.916   2.047  15.614 -0.3407  0.6178  0.4050
  147DOPC  H11X17563   3.009   2.075  15.669  0.5737 -1.3948 -0.0338
  147DOPC  H11Y17564   2.850   2.136  15.601 -1.2183 -0.4372 -3.7569
  147DOPC  C31217565   2.973   2.013  15.480  0.4414  0.0501 -0.1381
  147DOPC  H12X17566   3.011   1.909  15.475 -0.2580 -0.1799 -0.8739
  147DOPC  H12Y17567   3.052   2.083  15.445  1.1563 -0.4095  0.5205
  147DOPC  C31317568   2.859   2.023  15.371 -0.3184  0.6015  0.1203
  147DOPC  H13X17569   2.761   1.988  15.410  0.0334 -1.3508 -0.6407
  147DOPC  H13Y17570   2.851   2.133  15.357 -0.7243  0.8918  2.2196
  147DOPC  C31417571   2.900   1.954  15.244  0.1224 -0.4511  0.9639
  147DOPC  H14X17572   3.009   1.963  15.224 -0.4490  1.1470 -1.8812
  147DOPC  H14Y17573   2.886   1.844  15.256  0.2035 -0.6268 -0.4345
  147DOPC  C31517574   2.839   2.004  15.116  0.5902 -0.5140 -0.6053
  147DOPC  H15X17575   2.846   2.114  15.128  0.3895 -0.6658  1.1356
  147DOPC  H15Y17576   2.730   1.985  15.131  0.3523  0.3563 -1.1400
  147DOPC  C31617577   2.903   1.947  14.981 -0.3004 -0.5538  0.6889
  147DOPC  H16X17578   3.009   1.977  14.997 -0.6012  0.6754  0.4660
  147DOPC  H16Y17579   2.898   1.836  14.985 -2.0948 -0.5607 -0.5841
  147DOPC  C31717580   2.844   1.999  14.847 -0.2674  0.4517  0.4612
  147DOPC  H17X17581   2.737   1.972  14.857 -0.1436  0.1842  1.1368
  147DOPC  H17Y17582   2.861   2.108  14.839 -1.4414  0.5800 -0.5684
  147DOPC  C31817583   2.912   1.939  14.722  0.2121  0.1544 -0.6108
  147DOPC  H18X17584   2.896   1.995  14.627 -2.6347  0.3207 -0.1207
  147DOPC  H18Y17585   3.019   1.928  14.750  0.4717  2.2087 -0.6064
  147DOPC  H18Z17586   2.862   1.841  14.705 -1.0779  0.6532  0.1505
  148DOPC     N17587   3.861   4.791  17.053 -0.7504  0.8274  0.6835
  148DOPC   C1217588   3.873   4.681  16.946 -0.3216 -0.2749  0.4958
  148DOPC  H12A17589   3.923   4.596  16.990 -0.6040 -0.2856  0.7943
  148DOPC  H12B17590   3.936   4.715  16.865 -1.5293  1.7124  0.3105
  148DOPC   C1317591   3.993   4.816  17.126 -0.5015 -0.4313  0.5352
  148DOPC  H13A17592   3.988   4.913  17.172  1.5833  0.5116 -1.0864
  148DOPC  H13B17593   4.018   4.753  17.210 -0.3045  1.6048  2.0690
  148DOPC  H13C17594   4.075   4.816  17.056 -0.8872  0.2479  0.0712
  148DOPC   C1417595   3.758   4.744  17.149 -0.0923  0.3780 -0.0659
  148DOPC  H14A17596   3.751   4.819  17.227 -2.0413  0.6414 -0.4426
  148DOPC  H14B17597   3.664   4.736  17.096 -0.1178  0.5650 -0.0513
  148DOPC  H14C17598   3.797   4.654  17.194 -2.7640 -1.3921 -1.0324
  148DOPC   C1517599   3.827   4.924  16.989 -0.0899  0.3697 -0.3102
  148DOPC  H15A17600   3.914   4.968  16.943  1.0666 -0.5323  0.9365
  148DOPC  H15B17601   3.798   4.990  17.068  1.3858 -1.3131  1.7668
  148DOPC  H15C17602   3.743   4.906  16.923 -0.1780 -2.7808  0.4755
  148DOPC   C1117603   3.748   4.617  16.891 -0.0112  0.0704 -0.0404
  148DOPC  H11A17604   3.669   4.690  16.868 -1.9672 -2.2192 -1.0012
  148DOPC  H11B17605   3.766   4.562  16.796  1.4649  0.3053  0.0701
  148DOPC     P17606   3.709   4.368  16.974 -0.0505  0.1954 -0.1122
  148DOPC   O1317607   3.659   4.302  17.104 -0.0755  0.1362  0.6611
  148DOPC   O1417608   3.835   4.329  16.922 -0.2866 -0.0971  0.4991
  148DOPC   O1217609   3.698   4.526  16.990 -0.3428 -0.4728  0.2801
  148DOPC   O1117610   3.601   4.362  16.855  0.1483 -0.1020  0.0684
  148DOPC    C117611   3.465   4.411  16.870 -0.1137 -0.1905  0.8634
  148DOPC    HA17612   3.463   4.514  16.911  0.1143 -0.4590  1.5651
  148DOPC    HB17613   3.409   4.357  16.949 -0.8809  0.1019  0.5291
  148DOPC    C217614   3.385   4.432  16.743 -0.4374  0.6853 -0.3073
  148DOPC    HS17615   3.278   4.434  16.772 -0.1116 -2.0051  1.4217
  148DOPC   O2117616   3.389   4.327  16.640 -0.1577 -0.1563 -0.0542
  148DOPC   C2117617   3.363   4.206  16.680  0.6729  0.5127  0.6198
  148DOPC   O2217618   3.307   4.178  16.782 -0.2081  0.1441 -0.1895
  148DOPC   C2217619   3.410   4.109  16.575  0.4115  0.0160  0.1916
  148DOPC   H2R17620   3.516   4.085  16.601  0.4782 -0.7109 -0.7124
  148DOPC   H2S17621   3.392   4.160  16.478 -0.9972  0.2078  0.5400
  148DOPC    C317622   3.415   4.570  16.673  0.3035  0.2757  0.3419
  148DOPC    HX17623   3.525   4.571  16.654  0.4159 -0.2387  0.9214
  148DOPC    HY17624   3.401   4.660  16.738  0.2020 -0.3329  1.1825
  148DOPC   O3117625   3.324   4.595  16.561  0.0976  0.1225 -0.1674
  148DOPC   C3117626   3.381   4.660  16.462  0.6023  0.4136  0.4881
  148DOPC   O3217627   3.493   4.704  16.451 -0.4449 -0.0044 -0.7829
  148DOPC   C3217628   3.272   4.678  16.355 -0.2810  0.5248 -0.1696
  148DOPC   H2X17629   3.209   4.587  16.341  0.9787 -0.5542  0.9056
  148DOPC   H2Y17630   3.200   4.742  16.410 -0.4880 -1.5737  2.1760
  148DOPC   C2317631   3.338   3.966  16.581  0.6141 -0.1370 -0.5012
  148DOPC   H3R17632   3.343   3.913  16.678  0.3030 -2.2862 -1.5940
  148DOPC   H3S17633   3.395   3.894  16.519 -0.6451 -0.8154 -0.9211
  148DOPC   C2417634   3.200   3.962  16.518  0.2504  0.6469  0.1482
  148DOPC   H4R17635   3.203   3.978  16.408  3.8984 -2.7822 -0.4821
  148DOPC   H4S17636   3.135   4.036  16.570  0.0215  0.5193  0.0467
  148DOPC   C2517637   3.120   3.834  16.530  1.0857 -0.2357  0.0663
  148DOPC   H5R17638   3.060   3.840  16.623  1.0817 -0.2517  0.0634
  148DOPC   H5S17639   3.184   3.744  16.536  1.3775 -0.1224 -1.0642
  148DOPC   C2617640   3.015   3.829  16.415 -0.7547 -0.5382  0.1975
  148DOPC   H6R17641   3.065   3.826  16.316  0.1131 -2.8532  0.6388
  148DOPC   H6S17642   2.948   3.917  16.417  0.6853  0.5748  0.3684
  148DOPC   C2717643   2.926   3.700  16.425 -0.1225  0.0486  0.2353
  148DOPC   H7R17644   2.858   3.708  16.513 -1.0896 -1.7583 -0.2988
  148DOPC   H7S17645   2.991   3.613  16.450  1.1061  1.2040  1.2678
  148DOPC   C2817646   2.837   3.678  16.302 -0.0321 -0.0080  0.5930
  148DOPC   H8R17647   2.769   3.594  16.326  0.4898 -0.5312  0.2785
  148DOPC   H8S17648   2.903   3.652  16.216 -1.0648  1.8110 -0.8193
  148DOPC   C2917649   2.743   3.796  16.283  0.4989 -0.1889  0.7534
  148DOPC   H9R17650   2.685   3.836  16.367  1.3432  0.7316  0.9105
  148DOPC  C21017651   2.738   3.876  16.173 -0.0387  0.9157 -1.1191
  148DOPC  H10R17652   2.657   3.951  16.173 -1.7306 -0.6677  2.8482
  148DOPC  C21117653   2.803   3.858  16.039 -0.5740  0.0824  0.1652
  148DOPC  H11R17654   2.766   3.771  15.981  0.7248 -1.0352  0.9411
  148DOPC  H11S17655   2.911   3.836  16.049 -0.3915  0.2895 -1.1729
  148DOPC  C21217656   2.804   3.994  15.960  0.5204  0.1841  0.7013
  148DOPC  H12R17657   2.875   4.062  16.011  2.4974 -0.2140 -1.3584
  148DOPC  H12S17658   2.700   4.033  15.952 -0.3763 -2.2224 -0.4441
  148DOPC  C21317659   2.859   3.973  15.814 -0.2762 -1.0886  0.1169
  148DOPC  H13R17660   2.801   3.893  15.762 -1.7986 -0.7061  1.1453
  148DOPC  H13S17661   2.967   3.947  15.819 -0.1378 -0.6517 -0.4094
  148DOPC  C21417662   2.842   4.097  15.717 -0.2287 -0.1929 -0.4199
  148DOPC  H14R17663   2.882   4.185  15.772  0.5788 -0.7652 -0.0853
  148DOPC  H14S17664   2.736   4.126  15.702 -0.1068  0.1913 -0.5609
  148DOPC  C21517665   2.924   4.080  15.586 -0.3718 -0.1624 -0.1499
  148DOPC  H15R17666   3.028   4.062  15.621 -0.4849  0.6458  0.6141
  148DOPC  H15S17667   2.935   4.175  15.530 -1.4282  0.3583  0.5147
  148DOPC  C21617668   2.871   3.973  15.491 -0.9969  0.6739  0.7574
  148DOPC  H16R17669   2.769   3.997  15.455  0.2916  1.7339 -2.6716
  148DOPC  H16S17670   2.870   3.874  15.540 -0.4555 -0.5916 -1.5998
  148DOPC  C21717671   2.969   3.944  15.366 -0.2206  0.0131 -0.1527
  148DOPC  H17R17672   2.940   3.849  15.316 -0.5339 -1.2008  2.1984
  148DOPC  H17S17673   3.075   3.932  15.397 -0.0309 -0.2202 -0.8680
  148DOPC  C21817674   2.976   4.066  15.271  0.2938 -0.3389  0.0894
  148DOPC  H18R17675   3.006   4.157  15.327 -2.2606  0.6816 -0.0434
  148DOPC  H18S17676   2.888   4.093  15.209  1.3820  1.3773 -0.8098
  148DOPC  H18T17677   3.060   4.051  15.200  0.1133  1.1939 -0.4780
  148DOPC   C3317678   3.329   4.726  16.225  0.1053 -0.6543 -0.3198
  148DOPC   H3X17679   3.407   4.653  16.195 -1.3157 -3.7602  2.8977
  148DOPC   H3Y17680   3.382   4.821  16.247 -1.6478 -0.0100  1.4114
  148DOPC   C3417681   3.217   4.738  16.116 -0.1664 -0.9163 -0.7939
  148DOPC   H4X17682   3.161   4.833  16.128  2.5245  0.5884  0.8517
  148DOPC   H4Y17683   3.142   4.657  16.124  0.8516 -1.7342  1.3227
  148DOPC   C3517684   3.278   4.738  15.977 -0.0423 -0.2782  0.0687
  148DOPC   H5X17685   3.320   4.644  15.936  2.8085  1.2082 -0.7193
  148DOPC   H5Y17686   3.367   4.803  15.990  0.5594 -0.8869 -0.9335
  148DOPC   C3617687   3.182   4.794  15.872  0.2634 -0.4535 -0.2318
  148DOPC   H6X17688   3.088   4.736  15.876  0.8795 -1.5704 -1.2053
  148DOPC   H6Y17689   3.166   4.897  15.910 -0.2920 -0.4504 -0.4713
  148DOPC   C3717690   3.244   4.798  15.723  0.5085 -0.0642 -0.6574
  148DOPC   H7X17691   3.346   4.842  15.732  0.3654  0.2929 -0.7694
  148DOPC   H7Y17692   3.246   4.692  15.688  0.9926 -0.5937  0.9228
  148DOPC   C3817693   3.164   4.887  15.630 -0.2291 -0.4688  0.7708
  148DOPC   H8X17694   3.153   4.994  15.658  1.7910  0.8724 -2.7607
  148DOPC   H8Y17695   3.057   4.858  15.634 -0.3993  0.1129  0.5918
  148DOPC   C3917696   3.214   4.898  15.485  0.1531 -0.6131 -0.4788
  148DOPC   H9X17697   3.286   4.979  15.465 -2.7985  2.1575 -0.7851
  148DOPC  C31017698   3.169   4.823  15.385  0.3607 -0.2239  0.0735
  148DOPC  H10X17699   3.206   4.846  15.284 -0.5574  1.4398  0.0875
  148DOPC  C31117700   3.056   4.718  15.387 -0.0026 -0.4525  0.9358
  148DOPC  H11X17701   3.034   4.698  15.494  1.5366  0.1647  1.3993
  148DOPC  H11Y17702   3.074   4.621  15.336 -1.9552 -0.8950  1.0157
  148DOPC  C31217703   2.925   4.774  15.322  0.0838 -0.0186 -0.4823
  148DOPC  H12X17704   2.892   4.871  15.364 -2.3409 -1.0172  0.1062
  148DOPC  H12Y17705   2.839   4.704  15.327  1.1519 -1.6895 -3.2416
  148DOPC  C31317706   2.932   4.787  15.163  0.3778  0.1787  0.2432
  148DOPC  H13X17707   2.993   4.872  15.125  0.5565  0.0814  0.3151
  148DOPC  H13Y17708   2.987   4.696  15.132 -0.0718 -0.1864  0.5055
  148DOPC  C31417709   2.799   4.775  15.086  0.9049  0.0955  0.0634
  148DOPC  H14X17710   2.734   4.690  15.114 -0.8622  0.7026 -1.8755
  148DOPC  H14Y17711   2.736   4.864  15.109 -0.2336 -0.2959 -1.3801
  148DOPC  C31517712   2.806   4.786  14.930  0.8394 -0.1580  0.4838
  148DOPC  H15X17713   2.809   4.893  14.903 -1.4005 -0.3930 -0.9066
  148DOPC  H15Y17714   2.720   4.735  14.883  0.7857 -0.6671  1.1139
  148DOPC  C31617715   2.923   4.709  14.864  0.5972  0.2462  0.0675
  148DOPC  H16X17716   2.923   4.728  14.755  0.5943 -1.0833 -0.1702
  148DOPC  H16Y17717   3.021   4.742  14.903  1.2025 -0.0392 -1.1697
  148DOPC  C31717718   2.911   4.564  14.886  0.5540  0.5338  0.5222
  148DOPC  H17X17719   2.951   4.550  14.989  0.4793  0.1537  0.5019
  148DOPC  H17Y17720   2.810   4.522  14.869 -0.2263  0.8791  3.5961
  148DOPC  C31817721   3.007   4.475  14.797  0.2641 -0.2371 -0.0184
  148DOPC  H18X17722   3.112   4.503  14.820 -0.5886  2.5813  0.8204
  148DOPC  H18Y17723   2.980   4.368  14.810  0.8901 -0.3054  0.8133
  148DOPC  H18Z17724   2.999   4.514  14.693  0.6535  2.3382  0.8322
  149DOPC     N17725   2.826   0.398  16.895 -0.0586  0.2868 -0.9770
  149DOPC   C1217726   2.909   0.369  16.779 -0.5942  0.2865  0.0246
  149DOPC  H12A17727   2.853   0.399  16.691 -0.4185  1.7731  0.3987
  149DOPC  H12B17728   2.938   0.265  16.767  0.5418  0.8027 -2.3672
  149DOPC   C1317729   2.909   0.402  17.021 -0.2474 -0.5398 -0.3935
  149DOPC  H13A17730   2.992   0.333  17.015 -0.1396 -0.5240  0.7046
  149DOPC  H13B17731   2.957   0.497  17.036  1.2439 -1.5211  1.5088
  149DOPC  H13C17732   2.852   0.392  17.112 -2.9485  0.0017 -1.9166
  149DOPC   C1417733   2.716   0.294  16.919 -0.5845  0.3988  0.4157
  149DOPC  H14A17734   2.650   0.279  16.835 -1.0086  0.4159  0.7407
  149DOPC  H14B17735   2.761   0.199  16.945  0.8802  0.4587 -1.6487
  149DOPC  H14C17736   2.643   0.331  16.989 -3.5576 -1.2130 -1.5963
  149DOPC   C1517737   2.759   0.528  16.878  0.1047  0.4761 -0.0532
  149DOPC  H15A17738   2.677   0.538  16.947 -0.0294 -1.1389  0.0524
  149DOPC  H15B17739   2.717   0.531  16.779  0.4417  1.7178 -0.1773
  149DOPC  H15C17740   2.835   0.605  16.891 -0.3908  0.8511  0.6863
  149DOPC   C1117741   3.040   0.463  16.768  0.5179  0.8226 -0.4329
  149DOPC  H11A17742   3.110   0.424  16.845 -1.2767  0.3658  1.0192
  149DOPC  H11B17743   3.077   0.441  16.665 -0.4860  1.3787 -0.9305
  149DOPC     P17744   3.117   0.702  16.837 -0.1254 -0.2235 -0.2666
  149DOPC   O1317745   3.150   0.661  16.977 -0.5573 -0.2459  0.4502
  149DOPC   O1417746   3.065   0.841  16.812 -0.0555 -0.1925  0.2253
  149DOPC   O1217747   3.017   0.599  16.774  0.0246  0.0832 -0.8225
  149DOPC   O1117748   3.243   0.684  16.750  0.0794  0.2611 -0.1475
  149DOPC    C117749   3.378   0.702  16.795 -0.0628 -0.3639  0.0685
  149DOPC    HA17750   3.434   0.620  16.745 -0.9822 -0.3516 -1.0296
  149DOPC    HB17751   3.386   0.682  16.904  0.9831 -0.8051 -0.0758
  149DOPC    C217752   3.440   0.839  16.759 -0.6810 -0.8020  0.6509
  149DOPC    HS17753   3.371   0.912  16.807 -0.6822 -0.1148 -0.3806
  149DOPC   O2117754   3.436   0.858  16.616  0.1809  0.2771 -0.1983
  149DOPC   C2117755   3.517   0.944  16.570 -0.7615 -0.2748  0.3072
  149DOPC   O2217756   3.562   1.043  16.629 -0.7209 -0.2764  0.1007
  149DOPC   C2217757   3.558   0.908  16.421  0.5486 -0.1783 -0.2170
  149DOPC   H2R17758   3.512   0.809  16.402  0.1947 -0.2565  0.9604
  149DOPC   H2S17759   3.669   0.906  16.435  0.4524  2.6396  1.9189
  149DOPC    C317760   3.585   0.840  16.830 -0.0903  0.1650 -0.1682
  149DOPC    HX17761   3.573   0.818  16.938  3.3594  1.0103  0.5072
  149DOPC    HY17762   3.630   0.941  16.823  0.6983 -0.1905 -0.3543
  149DOPC   O3117763   3.671   0.749  16.758  0.3315 -0.5509  0.0609
  149DOPC   C3117764   3.767   0.693  16.845  0.0001 -0.2389  0.4679
  149DOPC   O3217765   3.783   0.725  16.958 -0.4302  0.2377 -0.1230
  149DOPC   C3217766   3.857   0.593  16.772  0.3300  0.3376 -0.2982
  149DOPC   H2X17767   3.904   0.522  16.845  0.0832 -0.5512 -0.9836
  149DOPC   H2Y17768   3.786   0.526  16.719  0.8623  0.2144 -0.8687
  149DOPC   C2317769   3.531   1.021  16.320  0.5692  0.2648 -0.3617
  149DOPC   H3R17770   3.569   1.114  16.368  2.5207 -1.6698  2.1166
  149DOPC   H3S17771   3.423   1.034  16.297  0.5014 -0.0178 -0.2214
  149DOPC   C2417772   3.603   1.006  16.190 -0.8034  0.3623 -0.7470
  149DOPC   H4R17773   3.712   0.988  16.200 -1.0751 -1.6500 -0.8058
  149DOPC   H4S17774   3.584   1.098  16.130 -4.8094  1.7422  2.1956
  149DOPC   C2517775   3.551   0.885  16.107 -0.5503  0.3076 -0.1910
  149DOPC   H5R17776   3.442   0.895  16.088 -1.1228 -0.6436  2.2986
  149DOPC   H5S17777   3.565   0.791  16.163  1.7159  1.0358  0.5644
  149DOPC   C2617778   3.632   0.862  15.971 -0.7057  1.3283 -1.1785
  149DOPC   H6R17779   3.579   0.777  15.922  0.2220 -1.2096  1.9242
  149DOPC   H6S17780   3.736   0.838  15.999 -1.1779  1.9062  1.2529
  149DOPC   C2717781   3.644   0.989  15.889 -0.4357 -0.3884  0.2396
  149DOPC   H7R17782   3.689   1.072  15.946 -1.0193 -0.0947  0.2824
  149DOPC   H7S17783   3.544   1.005  15.843  0.6339  0.8423 -1.8280
  149DOPC   C2817784   3.744   0.970  15.782  0.1169 -0.0305  0.3111
  149DOPC   H8R17785   3.834   0.935  15.835 -0.6481 -2.0327  0.3828
  149DOPC   H8S17786   3.769   1.065  15.730  1.5386 -0.6581 -0.1953
  149DOPC   C2917787   3.707   0.871  15.672 -0.6689  0.0814 -0.3720
  149DOPC   H9R17788   3.692   0.769  15.709 -1.4347  0.1781 -0.3903
  149DOPC  C21017789   3.668   0.897  15.548  0.3699 -0.1631  0.4921
  149DOPC  H10R17790   3.653   0.819  15.471 -0.4255  1.6882 -1.3292
  149DOPC  C21117791   3.647   1.037  15.499 -0.4976 -0.3167  0.4308
  149DOPC  H11R17792   3.736   1.074  15.444  0.1829 -1.4785  0.7156
  149DOPC  H11S17793   3.619   1.107  15.580  1.2133  1.8098 -0.6959
  149DOPC  C21217794   3.537   1.056  15.392 -0.0165  0.5908 -0.5994
  149DOPC  H12R17795   3.442   1.053  15.450  0.7807 -1.1862  0.7270
  149DOPC  H12S17796   3.536   0.972  15.319 -0.1339 -0.8021  0.9398
  149DOPC  C21317797   3.547   1.178  15.308  0.5759 -0.7439  0.2179
  149DOPC  H13R17798   3.642   1.165  15.252  1.6365 -0.8501  1.9681
  149DOPC  H13S17799   3.573   1.261  15.377  1.8406 -0.9227 -0.0279
  149DOPC  C21417800   3.419   1.202  15.239  0.6886 -0.1228  0.6815
  149DOPC  H14R17801   3.346   1.259  15.301 -0.8989  0.1532 -1.3323
  149DOPC  H14S17802   3.370   1.104  15.218 -1.5683  1.2124 -0.7028
  149DOPC  C21517803   3.433   1.275  15.105 -0.3532 -0.0031  0.7299
  149DOPC  H15R17804   3.499   1.214  15.040 -0.5479  0.0403  0.4908
  149DOPC  H15S17805   3.477   1.377  15.109  0.9599 -0.4845 -0.6079
  149DOPC  C21617806   3.297   1.288  15.034  0.2991 -0.5700  0.6568
  149DOPC  H16R17807   3.233   1.335  15.112  0.1032  0.0552  0.1230
  149DOPC  H16S17808   3.251   1.190  15.011  1.1657 -0.8096 -0.0949
  149DOPC  C21717809   3.297   1.375  14.907  0.6729  1.0581 -0.3053
  149DOPC  H17R17810   3.345   1.471  14.934  0.4621  1.0936 -0.0550
  149DOPC  H17S17811   3.198   1.398  14.863 -0.2059 -4.1210 -1.6964
  149DOPC  C21817812   3.369   1.301  14.790 -0.3635  0.3309  0.0557
  149DOPC  H18R17813   3.347   1.194  14.773  1.3007 -0.1841  0.9352
  149DOPC  H18S17814   3.478   1.305  14.812 -0.7640 -0.4292  2.3635
  149DOPC  H18T17815   3.350   1.359  14.697 -0.2094  0.1342 -0.0998
  149DOPC   C3317816   3.958   0.660  16.681 -0.5265  0.9614  0.3174
  149DOPC   H3X17817   4.044   0.590  16.677 -0.9617  0.3446  1.3965
  149DOPC   H3Y17818   4.000   0.756  16.719  0.1322  1.4518 -1.5334
  149DOPC   C3417819   3.912   0.690  16.544  0.3103 -0.0029 -0.2909
  149DOPC   H4X17820   3.824   0.757  16.534 -0.2750 -0.6007  0.6740
  149DOPC   H4Y17821   3.873   0.595  16.501  1.1985 -0.1278 -0.8633
  149DOPC   C3517822   4.026   0.732  16.448  0.0605 -0.9921 -1.3438
  149DOPC   H5X17823   4.113   0.663  16.444 -0.3983 -1.6477 -0.4103
  149DOPC   H5Y17824   4.072   0.819  16.500 -1.6444  0.3940 -2.0560
  149DOPC   C3617825   3.982   0.762  16.304 -0.1377  0.1309  0.4939
  149DOPC   H6X17826   3.991   0.665  16.251  0.9134 -0.2810  1.3769
  149DOPC   H6Y17827   3.888   0.821  16.306  0.5247  1.2887 -0.9430
  149DOPC   C3717828   4.073   0.867  16.239  0.4722 -0.5853 -0.5570
  149DOPC   H7X17829   4.071   0.966  16.290 -2.9540  0.0840 -1.7310
  149DOPC   H7Y17830   4.174   0.823  16.228 -0.1462 -1.4798 -3.4297
  149DOPC   C3817831   4.021   0.891  16.092 -0.9024 -0.1971 -0.2498
  149DOPC   H8X17832   3.913   0.915  16.093 -0.2117  3.4630 -0.3429
  149DOPC   H8Y17833   4.025   0.799  16.029 -0.6492 -1.6298  1.7410
  149DOPC   C3917834   4.104   1.005  16.037 -0.1641  0.7058  0.1783
  149DOPC   H9X17835   4.118   1.089  16.107  1.6555  0.6809 -0.0881
  149DOPC  C31017836   4.173   0.994  15.921 -0.3022  0.1020 -0.4273
  149DOPC  H10X17837   4.239   1.073  15.882  0.7590 -0.3208  0.4682
  149DOPC  C31117838   4.174   0.880  15.820 -0.4262 -0.7202 -0.5354
  149DOPC  H11X17839   4.123   0.784  15.842 -0.6182 -0.3869  0.5100
  149DOPC  H11Y17840   4.277   0.843  15.803 -0.2250  0.6362 -2.5878
  149DOPC  C31217841   4.132   0.940  15.684 -0.3450 -0.2497 -1.0322
  149DOPC  H12X17842   4.033   0.990  15.693  0.2379  1.0867 -1.7052
  149DOPC  H12Y17843   4.112   0.852  15.619 -0.2351 -1.1434  0.1226
  149DOPC  C31317844   4.225   1.037  15.613 -0.2205  0.0302 -0.6267
  149DOPC  H13X17845   4.256   1.116  15.685  0.6815 -0.2675 -0.6690
  149DOPC  H13Y17846   4.323   0.992  15.583  1.1620  1.8781  0.8808
  149DOPC  C31417847   4.161   1.105  15.494 -0.4603 -0.2314  0.8371
  149DOPC  H14X17848   4.117   1.200  15.532 -2.2779 -0.1674 -1.1760
  149DOPC  H14Y17849   4.242   1.151  15.433 -1.6843  0.4858 -0.3174
  149DOPC  C31517850   4.059   1.025  15.414 -0.3866  0.2351 -0.0318
  149DOPC  H15X17851   3.970   0.990  15.471 -0.8566  0.0103 -0.8851
  149DOPC  H15Y17852   4.116   0.933  15.390 -0.9334 -0.1501  0.1131
  149DOPC  C31617853   4.017   1.092  15.279  0.0607  0.5639 -0.5192
  149DOPC  H16X17854   3.981   1.195  15.300 -1.0570  0.4753 -1.8780
  149DOPC  H16Y17855   4.104   1.103  15.211 -1.7374  0.9908 -2.8758
  149DOPC  C31717856   3.911   1.027  15.200 -0.0432  0.4266  0.3450
  149DOPC  H17X17857   3.954   0.940  15.146 -1.4287  0.4153 -0.7974
  149DOPC  H17Y17858   3.825   0.983  15.253 -1.1658  0.1436 -1.6055
  149DOPC  C31817859   3.871   1.121  15.089  0.4630  0.2891  0.2020
  149DOPC  H18X17860   3.960   1.183  15.064  0.6875  0.9246  2.3384
  149DOPC  H18Y17861   3.829   1.077  14.997 -0.4981 -0.4958  0.9949
  149DOPC  H18Z17862   3.812   1.205  15.132  0.7020 -0.2562  1.6437
  150DOPC     N17863   6.778   4.190  17.392 -0.4780 -0.1894 -0.2909
  150DOPC   C1217864   6.728   4.208  17.247 -0.8948  0.0653  0.4901
  150DOPC  H12A17865   6.668   4.298  17.253 -0.3766  0.4845 -0.4774
  150DOPC  H12B17866   6.661   4.127  17.221  1.1296 -2.2287  2.0717
  150DOPC   C1317867   6.652   4.195  17.483  0.0823 -0.3765  0.0005
  150DOPC  H13A17868   6.686   4.178  17.584  2.9035 -1.1321 -1.0011
  150DOPC  H13B17869   6.608   4.293  17.472  1.4693  0.3340  0.6428
  150DOPC  H13C17870   6.581   4.116  17.459  0.0937 -1.2413  2.4402
  150DOPC   C1417871   6.873   4.301  17.419  0.3651  0.2422 -0.2943
  150DOPC  H14A17872   6.900   4.293  17.524  0.4610  0.9487 -0.2625
  150DOPC  H14B17873   6.966   4.293  17.366 -0.4071  2.5466 -2.1273
  150DOPC  H14C17874   6.824   4.394  17.394 -1.1259 -0.8742 -1.7962
  150DOPC   C1517875   6.849   4.058  17.412 -0.2951 -0.4637  0.2604
  150DOPC  H15A17876   6.780   3.976  17.394 -0.3506 -0.1234 -1.2535
  150DOPC  H15B17877   6.883   4.038  17.512 -1.2433 -0.5730  0.5760
  150DOPC  H15C17878   6.926   4.060  17.336 -0.8045 -0.0925 -0.2552
  150DOPC   C1117879   6.831   4.212  17.127 -0.1576 -0.1919 -0.7030
  150DOPC  H11A17880   6.780   4.236  17.031  1.6172  2.1271 -1.1773
  150DOPC  H11B17881   6.893   4.305  17.128  1.7874 -1.4480  0.1654
  150DOPC     P17882   6.855   3.972  17.046  0.1277  0.0933 -0.3074
  150DOPC   O1317883   6.727   3.936  17.105 -0.1244  1.0762  1.2150
  150DOPC   O1417884   6.957   3.868  17.028  0.6512 -0.1857 -0.3106
  150DOPC   O1217885   6.920   4.095  17.121  0.5578  0.3751  0.2643
  150DOPC   O1117886   6.812   4.035  16.908  0.3715 -0.8563  0.6558
  150DOPC    C117887   6.916   4.079  16.818 -0.8066 -0.6470 -0.0760
  150DOPC    HA17888   7.015   4.035  16.843 -1.3309 -1.8637 -0.0703
  150DOPC    HB17889   6.933   4.187  16.841  2.9692 -1.3661  1.1574
  150DOPC    C217890   6.893   4.048  16.667 -0.1024 -0.5001  0.3177
  150DOPC    HS17891   6.786   4.069  16.646 -0.0282  1.3834  1.5707
  150DOPC   O2117892   6.936   3.920  16.638 -0.3865  0.2686 -0.3131
  150DOPC   C2117893   6.844   3.832  16.601 -1.2405  0.3572 -0.5200
  150DOPC   O2217894   6.725   3.843  16.608  0.8544 -0.1045 -0.0908
  150DOPC   C2217895   6.920   3.717  16.531  0.1300 -0.2571  0.1919
  150DOPC   H2R17896   6.867   3.623  16.555 -0.3588  0.3417  1.5368
  150DOPC   H2S17897   7.017   3.709  16.585  0.1988  0.4830  0.1865
  150DOPC    C317898   6.979   4.144  16.580  0.4199 -0.1713  0.4935
  150DOPC    HX17899   7.084   4.121  16.608  0.1896  0.9317  2.3942
  150DOPC    HY17900   6.955   4.246  16.619  1.3579  1.2827 -2.3915
  150DOPC   O3117901   6.977   4.139  16.434  0.2705 -0.2328 -0.0726
  150DOPC   C3117902   6.887   4.213  16.370  0.0438  0.1782  0.1842
  150DOPC   O3217903   6.792   4.273  16.417 -0.0831 -0.0590 -0.3572
  150DOPC   C3217904   6.905   4.209  16.220 -0.2445  0.4813  0.0817
  150DOPC   H2X17905   6.824   4.143  16.182  0.7305  0.5218 -2.2196
  150DOPC   H2Y17906   6.892   4.308  16.170 -0.6196  0.6775  0.5571
  150DOPC   C2317907   6.938   3.731  16.378 -0.5131 -0.4214 -0.0985
  150DOPC   H3R17908   7.029   3.680  16.340  0.4171  0.6862  0.5659
  150DOPC   H3S17909   6.960   3.838  16.354 -0.9245  0.1091  1.7392
  150DOPC   C2417910   6.816   3.691  16.293 -0.1931 -0.8395 -0.3633
  150DOPC   H4R17911   6.746   3.777  16.294 -1.6000 -1.9272 -1.4463
  150DOPC   H4S17912   6.769   3.603  16.343  1.5007 -2.9213 -2.1911
  150DOPC   C2517913   6.832   3.662  16.150 -0.8824 -0.1329  0.6778
  150DOPC   H5R17914   6.924   3.599  16.142  0.1188  1.3739 -0.0659
  150DOPC   H5S17915   6.858   3.751  16.089 -1.1077  0.1124  0.9421
  150DOPC   C2617916   6.715   3.594  16.082 -0.4848 -0.1678 -0.2597
  150DOPC   H6R17917   6.631   3.663  16.061  1.5472  2.9533  1.2671
  150DOPC   H6S17918   6.681   3.523  16.161 -1.3620  1.5205  0.9253
  150DOPC   C2717919   6.754   3.513  15.953 -1.0111  0.1467 -0.5870
  150DOPC   H7R17920   6.845   3.453  15.971 -0.9231  0.5645  0.4686
  150DOPC   H7S17921   6.783   3.588  15.876  1.4678  0.4918  0.5799
  150DOPC   C2817922   6.644   3.421  15.901  0.0726 -0.0719  0.4054
  150DOPC   H8R17923   6.560   3.485  15.866  0.8266  1.1165  0.7093
  150DOPC   H8S17924   6.620   3.339  15.972  3.8001 -1.1593  0.6452
  150DOPC   C2917925   6.702   3.358  15.776  0.9920 -1.1583  0.3450
  150DOPC   H9R17926   6.794   3.298  15.784  2.7855  1.4520  0.5299
  150DOPC  C21017927   6.646   3.380  15.654  0.4675 -0.2709 -0.4040
  150DOPC  H10R17928   6.689   3.326  15.569  0.1610  1.8124 -1.9539
  150DOPC  C21117929   6.516   3.447  15.614 -0.3027 -0.1152 -0.6372
  150DOPC  H11R17930   6.445   3.439  15.699  1.3284 -1.2475  0.6737
  150DOPC  H11S17931   6.478   3.379  15.535  1.5324 -0.5898 -1.1477
  150DOPC  C21217932   6.518   3.590  15.559 -0.6118  0.2119  0.0579
  150DOPC  H12R17933   6.420   3.615  15.513 -1.0169 -2.0099 -0.4043
  150DOPC  H12S17934   6.593   3.607  15.479 -0.2431  0.0330  0.3641
  150DOPC  C21317935   6.545   3.690  15.671 -0.0682  0.4608  0.6932
  150DOPC  H13R17936   6.584   3.784  15.627 -0.2246 -0.1142 -0.7456
  150DOPC  H13S17937   6.627   3.659  15.739  0.8377 -0.3208 -0.7090
  150DOPC  C21417938   6.426   3.726  15.762  0.8220 -0.4360  0.0654
  150DOPC  H14R17939   6.462   3.759  15.862  1.5693 -0.4257 -0.2004
  150DOPC  H14S17940   6.351   3.646  15.780 -3.2941  2.5120 -2.2081
  150DOPC  C21517941   6.361   3.842  15.682 -0.0314  0.0673 -1.0117
  150DOPC  H15R17942   6.307   3.806  15.592 -0.6266 -0.5452 -0.4199
  150DOPC  H15S17943   6.440   3.914  15.649  0.5905 -0.3653 -0.5028
  150DOPC  C21617944   6.266   3.930  15.769  0.0577 -1.0162 -0.1693
  150DOPC  H16R17945   6.229   4.007  15.699  0.3970  0.2381  0.9816
  150DOPC  H16S17946   6.318   3.991  15.846 -1.7892 -0.1140  0.4106
  150DOPC  C21717947   6.139   3.862  15.817 -0.0347 -0.4096 -0.3090
  150DOPC  H17R17948   6.162   3.760  15.854 -1.4621 -0.1068  1.5270
  150DOPC  H17S17949   6.069   3.852  15.731 -1.8790 -0.3611  1.1277
  150DOPC  C21817950   6.072   3.936  15.934  0.3064 -0.5625 -0.0868
  150DOPC  H18R17951   6.148   3.961  16.011 -0.2289  0.1434  0.2241
  150DOPC  H18S17952   5.988   3.876  15.976 -1.4617  1.3549 -0.6989
  150DOPC  H18T17953   6.027   4.033  15.906  0.9963 -0.2745 -0.2049
  150DOPC   C3317954   7.034   4.136  16.178  0.2362  0.6437  0.4550
  150DOPC   H3X17955   7.047   4.051  16.249 -0.0554  1.4793  1.5357
  150DOPC   H3Y17956   7.118   4.203  16.206  2.2876 -1.7712  0.4686
  150DOPC   C3417957   7.034   4.105  16.029  0.2540 -0.1924 -0.6470
  150DOPC   H4X17958   7.012   4.190  15.962  1.6842 -1.0186 -2.2751
  150DOPC   H4Y17959   6.972   4.016  16.005  1.0336 -0.3420 -2.2416
  150DOPC   C3517960   7.178   4.050  15.991  0.0555  0.6319 -0.0549
  150DOPC   H5X17961   7.182   3.953  16.046  0.8488  0.8813  0.3406
  150DOPC   H5Y17962   7.256   4.125  16.016  0.5735 -0.2723  1.0955
  150DOPC   C3617963   7.185   4.021  15.839 -0.3855 -0.2628 -0.4906
  150DOPC   H6X17964   7.139   3.924  15.812 -4.0920  1.1975 -0.0162
  150DOPC   H6Y17965   7.133   4.109  15.795 -2.0154  0.4142  2.4948
  150DOPC   C3717966   7.332   4.004  15.784 -0.1752 -0.6062  0.7837
  150DOPC   H7X17967   7.395   4.085  15.825 -3.2742  2.7952 -0.6828
  150DOPC   H7Y17968   7.365   3.906  15.826 -0.8337 -1.3704 -0.4214
  150DOPC   C3817969   7.338   4.017  15.632 -0.0185 -0.0786  0.6830
  150DOPC   H8X17970   7.437   4.051  15.596 -1.0814  1.9002 -0.5705
  150DOPC   H8Y17971   7.270   4.104  15.615 -1.0019 -0.7700  0.9752
  150DOPC   C3917972   7.302   3.895  15.550  0.5684  0.1547 -0.0109
  150DOPC   H9X17973   7.195   3.884  15.526  0.3260  3.1003 -0.7216
  150DOPC  C31017974   7.388   3.796  15.522  0.0894  0.9226  0.4612
  150DOPC  H10X17975   7.355   3.698  15.482  3.0112  0.7672 -1.9577
  150DOPC  C31117976   7.537   3.802  15.554 -0.9387 -0.5174  0.2941
  150DOPC  H11X17977   7.550   3.853  15.652  0.2171 -0.7212  0.2592
  150DOPC  H11Y17978   7.586   3.867  15.480  3.0036 -1.4124  1.8758
  150DOPC  C31217979   7.605   3.663  15.575  0.4905 -1.2634  0.7765
  150DOPC  H12X17980   7.566   3.610  15.665  0.8435  2.0186  3.0463
  150DOPC  H12Y17981   7.711   3.682  15.599  0.7598 -1.5696 -0.1400
  150DOPC  C31317982   7.608   3.579  15.445 -0.4022  0.1026  0.4715
  150DOPC  H13X17983   7.647   3.476  15.456  1.9452  0.8062 -0.6185
  150DOPC  H13Y17984   7.509   3.572  15.395  0.3713 -0.5918 -1.0263
  150DOPC  C31417985   7.708   3.629  15.341 -0.0628  0.1205 -0.2617
  150DOPC  H14X17986   7.708   3.739  15.322 -1.7665 -0.1434 -2.1419
  150DOPC  H14Y17987   7.806   3.582  15.364 -1.2032 -0.9740  2.8326
  150DOPC  C31517988   7.666   3.572  15.203 -0.1713 -0.0001 -0.3279
  150DOPC  H15X17989   7.570   3.622  15.179  0.5648  0.7209 -1.9184
  150DOPC  H15Y17990   7.640   3.465  15.214 -0.6848  0.2885  1.8652
  150DOPC  C31617991   7.757   3.607  15.089  0.3361  0.5330 -0.0309
  150DOPC  H16X17992   7.783   3.715  15.091  2.1100  0.2081 -2.3019
  150DOPC  H16Y17993   7.852   3.554  15.109  1.8222  1.9012 -2.8771
  150DOPC  C31717994   7.705   3.551  14.956 -0.5115 -0.0409  0.2587
  150DOPC  H17X17995   7.689   3.442  14.969 -0.0511 -0.1849 -0.3184
  150DOPC  H17Y17996   7.613   3.607  14.931 -0.0419  0.2669 -0.8821
  150DOPC  C31817997   7.818   3.557  14.849  0.5803 -0.3307  0.2903
  150DOPC  H18X17998   7.787   3.506  14.755 -0.8205  2.4527 -0.8885
  150DOPC  H18Y17999   7.839   3.663  14.826  0.0863  0.1053  1.7546
  150DOPC  H18Z18000   7.912   3.503  14.873 -0.1338 -1.9155 -0.3342
  151DOPC     N18001   2.407   1.661  17.558 -0.0875  1.0514 -0.1965
  151DOPC   C1218002   2.319   1.787  17.555 -0.0168 -0.2182  0.0310
  151DOPC  H12A18003   2.330   1.832  17.653  1.7625  1.7710 -0.9832
  151DOPC  H12B18004   2.215   1.759  17.558  0.1522 -0.8089  0.4564
  151DOPC   C1318005   2.550   1.717  17.554  0.1447 -0.2039  0.5690
  151DOPC  H13A18006   2.571   1.743  17.451 -1.1736 -0.5255  0.1967
  151DOPC  H13B18007   2.554   1.804  17.617 -3.9958  1.4909 -1.1447
  151DOPC  H13C18008   2.620   1.640  17.583  1.8880  0.7278 -0.8822
  151DOPC   C1418009   2.378   1.571  17.446 -0.2774  0.0334  0.1738
  151DOPC  H14A18010   2.398   1.621  17.353 -2.4045  1.6870  0.5369
  151DOPC  H14B18011   2.426   1.474  17.452 -2.1781 -1.0637 -1.4147
  151DOPC  H14C18012   2.276   1.537  17.446 -0.2562 -0.0348  0.3179
  151DOPC   C1518013   2.399   1.594  17.695 -0.3119 -0.1987  0.2005
  151DOPC  H15A18014   2.463   1.508  17.698 -1.0978 -0.7795  1.0745
  151DOPC  H15B18015   2.300   1.557  17.719  0.5758 -0.4368  4.2519
  151DOPC  H15C18016   2.418   1.663  17.776 -0.6878 -0.4561  0.5136
  151DOPC   C1118017   2.344   1.910  17.453  0.5161 -0.2038 -0.0269
  151DOPC  H11A18018   2.276   1.989  17.490 -2.7329 -1.7420 -2.2646
  151DOPC  H11B18019   2.450   1.942  17.465  0.7963 -1.5191  1.3799
  151DOPC     P18020   2.148   1.883  17.281  0.0597 -0.2843  0.3490
  151DOPC   O1318021   2.073   1.989  17.352  0.1507  0.0296 -0.2291
  151DOPC   O1418022   2.101   1.743  17.295 -0.1170 -0.6489 -0.1397
  151DOPC   O1218023   2.309   1.883  17.315  0.5570  0.2546  0.0537
  151DOPC   O1118024   2.149   1.919  17.129 -0.5253  0.5386  0.1128
  151DOPC    C118025   2.233   1.849  17.037  0.0119 -0.1620  0.4059
  151DOPC    HA18026   2.203   1.743  17.049 -1.1681  0.0426 -0.5663
  151DOPC    HB18027   2.342   1.864  17.053 -0.0596  0.5876  0.2440
  151DOPC    C218028   2.191   1.893  16.892 -0.0557  0.4406 -0.1945
  151DOPC    HS18029   2.220   1.815  16.817 -2.4572 -1.0319  0.3004
  151DOPC   O2118030   2.261   2.014  16.854  0.3988  0.0975 -0.2252
  151DOPC   C2118031   2.396   2.010  16.827  0.9647 -0.2901 -0.2518
  151DOPC   O2218032   2.453   1.905  16.807 -0.0174  0.3961 -0.2941
  151DOPC   C2218033   2.445   2.151  16.821 -0.2963 -0.4127  0.6577
  151DOPC   H2R18034   2.427   2.187  16.925 -0.0225 -1.5406  1.1169
  151DOPC   H2S18035   2.372   2.203  16.756  1.3507  2.9137  1.2431
  151DOPC    C318036   2.035   1.895  16.870 -0.4555 -0.8991 -0.3616
  151DOPC    HX18037   2.010   2.002  16.889  3.4055 -0.2687  2.1396
  151DOPC    HY18038   1.985   1.837  16.951  0.6962 -0.0382  1.0036
  151DOPC   O3118039   1.986   1.848  16.743  0.1534  0.3256 -0.4360
  151DOPC   C3118040   1.927   1.929  16.665 -0.4482 -0.1729  0.4921
  151DOPC   O3218041   1.890   2.042  16.683 -0.9031 -0.0501 -0.4975
  151DOPC   C3218042   1.911   1.859  16.531  0.3415  0.5338 -0.1590
  151DOPC   H2X18043   1.998   1.882  16.465  0.4391 -0.1397 -0.2737
  151DOPC   H2Y18044   1.909   1.752  16.562 -0.9411  1.2367  2.4282
  151DOPC   C2318045   2.594   2.169  16.781 -1.0013  0.0998  0.0631
  151DOPC   H3R18046   2.657   2.103  16.844 -0.0994 -0.3710 -1.2700
  151DOPC   H3S18047   2.629   2.273  16.801 -0.0619  0.9394 -4.6855
  151DOPC   C2418048   2.634   2.139  16.634  0.4201 -0.5076 -0.1075
  151DOPC   H4R18049   2.611   2.033  16.609  0.5861 -0.6003  0.1188
  151DOPC   H4S18050   2.745   2.148  16.630  0.3839  0.3339  0.5336
  151DOPC   C2518051   2.587   2.244  16.535 -0.1946  0.6130  0.7565
  151DOPC   H5R18052   2.608   2.346  16.572  0.1425  0.6208  0.5494
  151DOPC   H5S18053   2.477   2.238  16.550 -0.4128 -0.1765 -0.9333
  151DOPC   C2618054   2.624   2.208  16.388  0.5198  0.9751 -0.2028
  151DOPC   H6R18055   2.606   2.099  16.378  0.9459  1.0268 -1.7605
  151DOPC   H6S18056   2.735   2.217  16.380  0.6155 -0.8409 -1.5630
  151DOPC   C2718057   2.544   2.277  16.281 -0.1046 -0.7519  0.1558
  151DOPC   H7R18058   2.595   2.372  16.257 -0.4223 -0.2832  1.2623
  151DOPC   H7S18059   2.443   2.298  16.321 -0.5446 -3.0412  0.3984
  151DOPC   C2818060   2.522   2.213  16.152  0.6942  1.0059  0.2871
  151DOPC   H8R18061   2.469   2.116  16.165 -1.0468  1.6573 -1.3526
  151DOPC   H8S18062   2.625   2.183  16.125  1.0260 -0.8755  3.2024
  151DOPC   C2918063   2.442   2.302  16.060 -0.5194  0.7501 -0.0129
  151DOPC   H9R18064   2.334   2.312  16.077 -0.9430 -1.9054 -0.5882
  151DOPC  C21018065   2.488   2.354  15.944 -0.2436 -0.8646 -0.4620
  151DOPC  H10R18066   2.420   2.415  15.883 -0.9928 -0.8805  0.3393
  151DOPC  C21118067   2.626   2.352  15.892  0.2127 -0.3220 -0.4011
  151DOPC  H11R18068   2.703   2.321  15.966  1.3362 -1.9256 -2.1290
  151DOPC  H11S18069   2.660   2.452  15.858  0.7932 -0.0455  0.9315
  151DOPC  C21218070   2.633   2.253  15.770 -0.0255 -0.2849 -0.2679
  151DOPC  H12R18071   2.596   2.153  15.801  2.4836 -0.8609  1.1428
  151DOPC  H12S18072   2.737   2.233  15.736 -0.0028 -1.6574  0.5403
  151DOPC  C21318073   2.564   2.301  15.646 -0.2457 -0.4357  0.0456
  151DOPC  H13R18074   2.617   2.386  15.598  0.0252  0.0164  1.1169
  151DOPC  H13S18075   2.459   2.328  15.674 -0.4490 -1.5654  0.4647
  151DOPC  C21418076   2.556   2.184  15.549 -0.1949  0.4449  0.0704
  151DOPC  H14R18077   2.512   2.094  15.598  2.3983  0.2734  2.3063
  151DOPC  H14S18078   2.660   2.167  15.515 -0.5797 -0.2032 -0.8341
  151DOPC  C21518079   2.479   2.222  15.414 -0.6623 -0.3486 -0.1947
  151DOPC  H15R18080   2.375   2.246  15.445 -0.3270 -1.8084  2.3331
  151DOPC  H15S18081   2.486   2.131  15.352 -2.2410 -0.6012 -0.0408
  151DOPC  C21618082   2.547   2.337  15.333  0.4079  0.0513 -0.3260
  151DOPC  H16R18083   2.657   2.319  15.325  0.2983 -1.0314  0.4266
  151DOPC  H16S18084   2.536   2.438  15.378  0.6444 -0.4375  0.8677
  151DOPC  C21718085   2.488   2.328  15.188  0.2452 -0.2283 -0.6604
  151DOPC  H17R18086   2.377   2.334  15.198  0.0498  0.6967 -2.8490
  151DOPC  H17S18087   2.512   2.226  15.153  1.5989 -0.2125  0.1615
  151DOPC  C21818088   2.559   2.424  15.092  0.5495  0.4344 -0.0707
  151DOPC  H18R18089   2.538   2.527  15.128  2.1277  0.5126  0.7383
  151DOPC  H18S18090   2.524   2.412  14.987 -0.2324  1.7703  0.0125
  151DOPC  H18T18091   2.669   2.409  15.100  0.3739 -1.6568 -0.9741
  151DOPC   C3318092   1.783   1.888  16.451 -0.0106 -0.2639 -0.2427
  151DOPC   H3X18093   1.701   1.915  16.520  2.2859  2.3795  1.6647
  151DOPC   H3Y18094   1.760   1.791  16.401 -0.3572 -1.1721  1.5875
  151DOPC   C3418095   1.808   1.999  16.348  0.0562 -0.4016  0.2390
  151DOPC   H4X18096   1.864   2.089  16.380  1.0189 -0.9281  0.0501
  151DOPC   H4Y18097   1.703   2.031  16.327  0.9563  2.8797  0.2025
  151DOPC   C3518098   1.853   1.945  16.220  0.1183  0.5337 -0.1379
  151DOPC   H5X18099   1.789   1.861  16.183  1.0716  0.5940 -2.0508
  151DOPC   H5Y18100   1.952   1.899  16.241 -0.0622 -0.6899 -1.7253
  151DOPC   C3618101   1.875   2.050  16.112  0.3016  0.2186 -0.2203
  151DOPC   H6X18102   1.777   2.102  16.110 -0.5762 -1.3738 -0.2487
  151DOPC   H6Y18103   1.956   2.119  16.146  1.5510 -1.0738 -0.4997
  151DOPC   C3718104   1.919   1.996  15.972  0.0482  0.0890  0.1534
  151DOPC   H7X18105   2.019   1.949  15.984  0.6055  1.7381  2.8728
  151DOPC   H7Y18106   1.841   1.926  15.936 -1.1299 -0.3694  3.2580
  151DOPC   C3818107   1.926   2.116  15.873 -0.6822 -0.6210 -0.1985
  151DOPC   H8X18108   1.828   2.164  15.888 -0.0676  0.3652  0.8433
  151DOPC   H8Y18109   1.939   2.075  15.771 -0.0670 -1.1924  0.0960
  151DOPC   C3918110   2.044   2.205  15.900 -0.4855  0.4285 -0.2752
  151DOPC   H9X18111   2.119   2.153  15.962 -0.5879  1.2474  0.5415
  151DOPC  C31018112   2.076   2.324  15.844 -0.0040 -0.7123 -0.7252
  151DOPC  H10X18113   2.174   2.371  15.864 -1.0650  1.3582 -0.1154
  151DOPC  C31118114   1.993   2.406  15.745  0.2343  0.0493  0.0363
  151DOPC  H11X18115   2.035   2.509  15.752  0.2379 -0.0106  1.0293
  151DOPC  H11Y18116   1.896   2.407  15.799  2.1115 -0.2284  3.6647
  151DOPC  C31218117   1.998   2.355  15.597  0.1612 -0.2510 -0.6639
  151DOPC  H12X18118   1.941   2.260  15.585  1.2091 -0.5941 -3.9679
  151DOPC  H12Y18119   2.103   2.343  15.564  0.2108  1.4959 -1.2442
  151DOPC  C31318120   1.930   2.468  15.510 -0.2093 -0.0732 -0.2160
  151DOPC  H13X18121   1.826   2.490  15.541  0.2327 -0.5472  1.7020
  151DOPC  H13Y18122   1.973   2.565  15.541 -2.8328  0.3783  2.5450
  151DOPC  C31418123   1.958   2.439  15.370  0.8225  0.3922 -0.6984
  151DOPC  H14X18124   1.935   2.522  15.299 -0.0685  0.3550 -0.4644
  151DOPC  H14Y18125   2.062   2.401  15.360  0.7448  0.2141 -0.8323
  151DOPC  C31518126   1.888   2.311  15.322 -0.0100  0.0779 -0.1070
  151DOPC  H15X18127   1.779   2.334  15.313 -0.6792 -2.6693  0.0023
  151DOPC  H15Y18128   1.894   2.214  15.377 -2.4355  0.2404  0.5951
  151DOPC  C31618129   1.940   2.270  15.182  0.1042 -0.4380  0.1399
  151DOPC  H16X18130   2.050   2.265  15.195  0.1539 -0.3194 -0.2308
  151DOPC  H16Y18131   1.910   2.166  15.156 -0.5774 -0.0325 -0.7057
  151DOPC  C31718132   1.908   2.367  15.062 -0.1247 -0.4150  0.3007
  151DOPC  H17X18133   1.797   2.371  15.067 -0.0940 -0.6734  1.3443
  151DOPC  H17Y18134   1.935   2.475  15.062 -2.1616  0.1467  0.5954
  151DOPC  C31818135   1.954   2.311  14.930  0.0914 -0.4998 -1.0485
  151DOPC  H18X18136   1.918   2.376  14.847 -1.0834  0.4631  0.1685
  151DOPC  H18Y18137   2.065   2.310  14.931  0.1433  1.5216 -1.3983
  151DOPC  H18Z18138   1.913   2.208  14.917  2.2237 -1.7396  1.1224
  152DOPC     N18139   4.908   7.293  17.007  0.0784 -0.1055  0.6348
  152DOPC   C1218140   4.830   7.432  16.997  0.3814 -0.4339  0.0054
  152DOPC  H12A18141   4.905   7.508  16.979 -0.0494 -0.0728 -0.2708
  152DOPC  H12B18142   4.774   7.466  17.082 -1.4843  1.3713 -1.8256
  152DOPC   C1318143   4.813   7.191  17.036  0.3344  0.0808  0.5797
  152DOPC  H13A18144   4.745   7.189  16.951  0.6533 -1.4685  0.3247
  152DOPC  H13B18145   4.856   7.093  17.047  0.3492  0.3310  3.7210
  152DOPC  H13C18146   4.757   7.205  17.127  0.0483 -0.8451  0.5599
  152DOPC   C1418147   5.011   7.303  17.118  0.6155  0.0716  0.4499
  152DOPC  H14A18148   4.964   7.332  17.210  1.8572 -0.9672  1.4480
  152DOPC  H14B18149   5.059   7.207  17.120  1.4322  0.3843 -1.6102
  152DOPC  H14C18150   5.082   7.381  17.096 -0.5615  1.2363  0.6491
  152DOPC   C1518151   4.981   7.265  16.883  0.7406 -0.0847  0.7372
  152DOPC  H15A18152   5.050   7.346  16.866  0.3393  0.1644  0.2484
  152DOPC  H15B18153   4.916   7.249  16.798  0.4748 -2.3045  1.2957
  152DOPC  H15C18154   5.040   7.175  16.879  1.8597  0.6636 -0.1259
  152DOPC   C1118155   4.731   7.441  16.876 -0.5008 -0.1005 -0.0383
  152DOPC  H11A18156   4.705   7.549  16.865 -0.6437 -0.2983 -1.9691
  152DOPC  H11B18157   4.781   7.424  16.778 -2.0749  3.9440 -1.7556
  152DOPC     P18158   4.497   7.403  16.977 -0.2445  0.5902  0.1467
  152DOPC   O1318159   4.544   7.515  17.064  0.8994 -0.3627  0.0194
  152DOPC   O1418160   4.451   7.276  17.039  1.0186  0.3159 -0.0980
  152DOPC   O1218161   4.615   7.356  16.880  0.1624  0.2083 -0.2909
  152DOPC   O1118162   4.384   7.457  16.881 -0.0406  0.3743 -0.5910
  152DOPC    C118163   4.350   7.418  16.750 -0.3319  0.3895  0.0135
  152DOPC    HA18164   4.244   7.387  16.747 -0.7342  1.7680 -1.1640
  152DOPC    HB18165   4.415   7.341  16.702  0.9035  3.6814 -4.1693
  152DOPC    C218166   4.343   7.539  16.642 -0.2468  0.5928  0.2910
  152DOPC    HS18167   4.266   7.600  16.695 -0.2749 -0.9644  2.1864
  152DOPC   O2118168   4.310   7.490  16.509 -0.0065 -0.0450 -0.2368
  152DOPC   C2118169   4.182   7.481  16.481 -0.4586 -0.2747 -0.6233
  152DOPC   O2218170   4.091   7.468  16.561  0.1366  0.2137  0.0732
  152DOPC   C2218171   4.157   7.488  16.329 -0.3160 -0.0802  0.3268
  152DOPC   H2R18172   4.084   7.564  16.294  2.8991  2.5906 -1.2465
  152DOPC   H2S18173   4.129   7.385  16.300  0.1862 -0.4010  0.9632
  152DOPC    C318174   4.477   7.622  16.636 -0.1999 -0.5099  0.5503
  152DOPC    HX18175   4.562   7.552  16.624  0.3523  0.5672 -2.7280
  152DOPC    HY18176   4.493   7.680  16.730  0.2996 -0.4148  0.4073
  152DOPC   O3118177   4.481   7.703  16.515  0.0757  0.0750  0.1499
  152DOPC   C3118178   4.412   7.814  16.523  0.5966  0.4676 -0.0563
  152DOPC   O3218179   4.355   7.864  16.620 -0.4801 -0.1899  0.8275
  152DOPC   C3218180   4.406   7.877  16.383  0.1643 -0.3236 -0.1651
  152DOPC   H2X18181   4.472   7.966  16.390  0.4375 -0.5353 -0.0317
  152DOPC   H2Y18182   4.459   7.809  16.312 -0.3687 -2.5749  1.4896
  152DOPC   C2318183   4.289   7.513  16.242 -0.0096 -0.1098 -0.0680
  152DOPC   H3R18184   4.342   7.416  16.244 -0.0479 -0.1199  1.1283
  152DOPC   H3S18185   4.353   7.596  16.279  2.2700 -1.8937  0.2133
  152DOPC   C2418186   4.258   7.546  16.094  0.2345  0.1981  0.0399
  152DOPC   H4R18187   4.218   7.451  16.053 -1.2619  0.8015  0.0282
  152DOPC   H4S18188   4.352   7.581  16.045  1.2982 -2.9490 -0.3552
  152DOPC   C2518189   4.161   7.661  16.062  0.2144  0.9245  0.0829
  152DOPC   H5R18190   4.169   7.735  16.145  0.1771 -1.3328  2.2290
  152DOPC   H5S18191   4.056   7.632  16.085  0.8255 -0.5399  1.2149
  152DOPC   C2618192   4.189   7.739  15.932 -0.6458  0.0738  0.3971
  152DOPC   H6R18193   4.291   7.781  15.939 -0.1158 -1.0035 -0.4671
  152DOPC   H6S18194   4.130   7.832  15.928  0.4360  0.7271 -1.4972
  152DOPC   C2718195   4.167   7.662  15.802 -0.6685 -0.0648 -0.6302
  152DOPC   H7R18196   4.087   7.590  15.824  0.9937 -2.0472 -0.7738
  152DOPC   H7S18197   4.252   7.596  15.775 -0.1092 -1.5675  4.0608
  152DOPC   C2818198   4.115   7.744  15.682  0.1359  0.8205 -1.0759
  152DOPC   H8R18199   4.048   7.827  15.716  0.2611  0.1314  1.0335
  152DOPC   H8S18200   4.056   7.667  15.629  0.2282 -0.4950  0.6446
  152DOPC   C2918201   4.225   7.817  15.615  0.2135 -0.2834  0.3063
  152DOPC   H9R18202   4.299   7.861  15.685 -0.5743 -0.9928  1.6281
  152DOPC  C21018203   4.238   7.825  15.479  0.0004  0.2497 -0.7744
  152DOPC  H10R18204   4.322   7.884  15.438  0.5401 -0.0998 -0.1978
  152DOPC  C21118205   4.141   7.776  15.375  0.0676  0.2212  0.4905
  152DOPC  H11R18206   4.059   7.708  15.407  1.0224 -0.8443  0.7306
  152DOPC  H11S18207   4.191   7.712  15.298 -2.9534 -1.1625 -0.4899
  152DOPC  C21218208   4.085   7.885  15.278 -0.6595 -0.1795  0.5235
  152DOPC  H12R18209   4.169   7.936  15.226  0.0354 -2.4600 -0.7072
  152DOPC  H12S18210   4.040   7.969  15.336  0.9632  1.6367 -0.7259
  152DOPC  C21318211   3.973   7.846  15.179  1.3331 -0.0093 -1.0392
  152DOPC  H13R18212   3.935   7.935  15.124 -2.6743 -2.1811 -2.2530
  152DOPC  H13S18213   3.885   7.805  15.235 -0.3217  2.5149 -1.6405
  152DOPC  C21418214   4.019   7.746  15.073 -0.6460 -0.2585 -0.3544
  152DOPC  H14R18215   3.933   7.721  15.008 -2.2929 -1.3229  2.0895
  152DOPC  H14S18216   4.033   7.661  15.142 -4.8061  0.4456  1.6961
  152DOPC  C21518217   4.138   7.793  14.997  0.7880  0.0482 -0.4624
  152DOPC  H15R18218   4.226   7.825  15.058  0.1358  1.9909 -0.4558
  152DOPC  H15S18219   4.091   7.878  14.943  0.4156  1.5135  2.0064
  152DOPC  C21618220   4.170   7.695  14.889 -0.8860  0.2001  0.5028
  152DOPC  H16R18221   4.217   7.757  14.809  1.8302 -1.4223  0.6909
  152DOPC  H16S18222   4.079   7.647  14.847 -0.0035 -1.1740  0.0678
  152DOPC  C21718223   4.264   7.574  14.925 -1.4466 -1.1700 -0.4447
  152DOPC  H17R18224   4.223   7.515  15.011 -0.1708 -0.2276  0.8632
  152DOPC  H17S18225   4.362   7.618  14.956 -2.5976  0.2736  1.3412
  152DOPC  C21818226   4.293   7.481  14.802  0.4736  0.5351 -1.0919
  152DOPC  H18R18227   4.304   7.543  14.710  3.1424  3.1248  0.8014
  152DOPC  H18S18228   4.208   7.411  14.791  1.3977 -0.9336  0.6012
  152DOPC  H18T18229   4.388   7.425  14.816 -0.0230  0.2035  1.1737
  152DOPC   C3318230   4.262   7.919  16.341  0.1874  0.7216 -0.3150
  152DOPC   H3X18231   4.208   7.979  16.418  0.4711 -1.4063  1.6785
  152DOPC   H3Y18232   4.209   7.821  16.335 -0.6864  1.2674 -2.4972
  152DOPC   C3418233   4.262   7.988  16.201 -0.0669 -0.7374 -0.2971
  152DOPC   H4X18234   4.159   7.989  16.160 -0.2060  1.3182  0.0099
  152DOPC   H4Y18235   4.339   7.957  16.127  0.6202  2.5351 -1.1250
  152DOPC   C3518236   4.293   8.134  16.222  1.0014 -0.3663  0.4514
  152DOPC   H5X18237   4.403   8.144  16.214  0.8834  0.1398 -0.7261
  152DOPC   H5Y18238   4.281   8.171  16.326  2.0605  1.6721 -0.1039
  152DOPC   C3618239   4.238   8.236  16.111  0.4472  1.1089  0.7431
  152DOPC   H6X18240   4.126   8.237  16.109  0.3631 -1.4061  0.2366
  152DOPC   H6Y18241   4.267   8.341  16.130  1.6830  0.9892 -0.3584
  152DOPC   C3718242   4.289   8.196  15.969  1.1312  0.1312  0.2314
  152DOPC   H7X18243   4.249   8.094  15.953 -0.7532  0.9378 -0.5412
  152DOPC   H7Y18244   4.231   8.264  15.902 -0.1487  0.2746  1.4192
  152DOPC   C3818245   4.437   8.214  15.953 -0.3025  0.9125 -0.4236
  152DOPC   H8X18246   4.472   8.166  15.860  0.3649 -1.9322  1.1661
  152DOPC   H8Y18247   4.493   8.150  16.025  1.0912 -0.2389 -2.4374
  152DOPC   C3918248   4.490   8.357  15.966  1.1914 -0.4405  0.4057
  152DOPC   H9X18249   4.407   8.424  15.995 -0.6802 -0.8292 -3.4271
  152DOPC  C31018250   4.613   8.403  15.954  0.0569 -0.8723  0.5720
  152DOPC  H10X18251   4.624   8.512  15.959 -0.9914 -0.4710 -3.0816
  152DOPC  C31118252   4.745   8.330  15.933 -0.2765 -0.3925  0.8105
  152DOPC  H11X18253   4.795   8.390  15.854 -3.2596  1.1948 -0.0600
  152DOPC  H11Y18254   4.717   8.236  15.881 -0.6922 -0.9277  1.9654
  152DOPC  C31218255   4.836   8.298  16.046  0.8419 -0.1101 -0.2221
  152DOPC  H12X18256   4.884   8.393  16.077  0.2801  0.0137  0.2910
  152DOPC  H12Y18257   4.913   8.230  16.004 -0.6148 -1.4555 -0.8173
  152DOPC  C31318258   4.764   8.251  16.170  0.1863 -0.4367  0.3559
  152DOPC  H13X18259   4.695   8.328  16.210 -0.3949 -1.2138  0.8971
  152DOPC  H13Y18260   4.695   8.171  16.134 -3.1274  1.6232  1.6887
  152DOPC  C31418261   4.849   8.194  16.285 -0.3459  0.0677 -0.4979
  152DOPC  H14X18262   4.925   8.124  16.245  0.2698  0.0171  0.7303
  152DOPC  H14Y18263   4.905   8.277  16.333 -1.2201  1.0641 -1.1328
  152DOPC  C31518264   4.776   8.108  16.390  0.4108  0.5179  0.3621
  152DOPC  H15X18265   4.702   8.040  16.342  0.7506  0.7447 -0.4945
  152DOPC  H15Y18266   4.715   8.178  16.451  0.0471 -0.6273  1.3516
  152DOPC  C31618267   4.867   8.026  16.485 -0.6761  0.1050 -0.0407
  152DOPC  H16X18268   4.907   7.942  16.425  1.1734  1.8763 -1.4352
  152DOPC  H16Y18269   4.957   8.082  16.519 -0.0811 -1.3086  0.8093
  152DOPC  C31718270   4.791   7.986  16.617  0.7192  0.2001 -0.2879
  152DOPC  H17X18271   4.843   8.027  16.706 -0.1985 -0.7537  0.7207
  152DOPC  H17Y18272   4.688   8.029  16.626 -0.7596 -3.0616 -0.2395
  152DOPC  C31818273   4.786   7.838  16.637 -0.1637 -0.0552 -0.5192
  152DOPC  H18X18274   4.887   7.796  16.618 -0.6824 -1.6145  0.0789
  152DOPC  H18Y18275   4.750   7.820  16.740 -0.7106  2.5403 -0.1695
  152DOPC  H18Z18276   4.711   7.796  16.567 -4.1706  3.0486  1.4946
  153DOPC     N18277   6.804   5.688  16.852 -0.3473  0.0522 -1.0709
  153DOPC   C1218278   6.718   5.633  16.735  0.1228 -0.3099 -0.0238
  153DOPC  H12A18279   6.778   5.644  16.646 -2.1181  1.3560 -1.4230
  153DOPC  H12B18280   6.631   5.696  16.727 -0.4730 -1.2064 -0.7777
  153DOPC   C1318281   6.808   5.842  16.843 -0.3823  0.3247 -0.4908
  153DOPC  H13A18282   6.841   5.866  16.943 -1.7370 -1.3504  0.3989
  153DOPC  H13B18283   6.870   5.877  16.762 -2.3665 -0.8038 -2.6295
  153DOPC  H13C18284   6.703   5.870  16.846 -0.7774 -0.9182 -1.8244
  153DOPC   C1418285   6.942   5.637  16.848 -0.9777  0.0099  0.5969
  153DOPC  H14A18286   7.004   5.686  16.921  0.4943  0.9321 -1.1710
  153DOPC  H14B18287   6.942   5.531  16.871  1.7929 -0.2108  0.0011
  153DOPC  H14C18288   6.988   5.653  16.751 -0.0366 -0.4060  0.9620
  153DOPC   C1518289   6.746   5.647  16.985  0.0867 -0.0548  0.6722
  153DOPC  H15A18290   6.643   5.677  16.993 -0.3858 -1.3490 -0.2569
  153DOPC  H15B18291   6.799   5.694  17.066  3.1953  2.1831 -2.3523
  153DOPC  H15C18292   6.759   5.540  16.993  1.6344  0.2231  2.6843
  153DOPC   C1118293   6.665   5.495  16.738 -0.2169  0.4504 -0.8729
  153DOPC  H11A18294   6.622   5.463  16.640 -0.1866 -1.4491 -0.3012
  153DOPC  H11B18295   6.739   5.419  16.772 -1.0680  0.5432  1.2906
  153DOPC     P18296   6.422   5.539  16.787 -0.1314  0.2194 -0.2839
  153DOPC   O1318297   6.424   5.683  16.764 -0.1935  0.3217  0.1325
  153DOPC   O1418298   6.325   5.489  16.889 -0.1303 -0.5586  0.1032
  153DOPC   O1218299   6.562   5.491  16.834  0.1350  0.3665  0.3234
  153DOPC   O1118300   6.386   5.463  16.650 -0.0036 -0.1521  0.4761
  153DOPC    C118301   6.384   5.317  16.647 -0.2346 -0.5400 -0.5120
  153DOPC    HA18302   6.350   5.269  16.741 -0.8513 -0.0338 -0.4691
  153DOPC    HB18303   6.486   5.276  16.629  0.1494  0.6968 -1.2544
  153DOPC    C218304   6.296   5.258  16.526  0.5419 -0.2364 -0.1081
  153DOPC    HS18305   6.300   5.148  16.534  1.7583 -0.1570  0.5641
  153DOPC   O2118306   6.343   5.311  16.393 -0.1781  0.8423  0.2764
  153DOPC   C2118307   6.462   5.262  16.356 -0.2245  0.5527 -0.5283
  153DOPC   O2218308   6.529   5.181  16.420 -0.0122  0.4233 -0.3981
  153DOPC   C2218309   6.508   5.301  16.211  0.3001  0.7242  0.4607
  153DOPC   H2R18310   6.619   5.306  16.206  0.2355  0.6086 -2.2198
  153DOPC   H2S18311   6.471   5.406  16.203 -0.9655  0.2578 -0.0092
  153DOPC    C318312   6.142   5.301  16.538  0.2436  0.1934 -0.2267
  153DOPC    HX18313   6.156   5.409  16.514  1.9087 -0.0961 -0.6902
  153DOPC    HY18314   6.119   5.272  16.642  0.1353 -3.0851 -1.0397
  153DOPC   O3118315   6.050   5.249  16.440  0.1202 -0.1003 -0.0117
  153DOPC   C3118316   5.924   5.299  16.459 -0.5339  0.3829 -0.1156
  153DOPC   O3218317   5.899   5.383  16.541 -0.9993 -0.3001  0.1020
  153DOPC   C3218318   5.836   5.255  16.341  0.1906 -0.2716  0.2541
  153DOPC   H2X18319   5.820   5.146  16.352  1.0057 -0.6429 -1.8256
  153DOPC   H2Y18320   5.732   5.292  16.352 -0.8860 -2.4176 -1.8545
  153DOPC   C2318321   6.471   5.205  16.092 -0.4993  0.1783 -0.0300
  153DOPC   H3R18322   6.522   5.107  16.099  0.6424  0.5428 -2.0311
  153DOPC   H3S18323   6.521   5.237  15.997 -0.3956 -0.6146 -0.2496
  153DOPC   C2418324   6.323   5.182  16.078  0.0859 -0.4244 -0.4376
  153DOPC   H4R18325   6.282   5.257  16.008  0.1041  0.5983  0.6097
  153DOPC   H4S18326   6.275   5.207  16.175  1.6717 -1.5028  0.6785
  153DOPC   C2518327   6.288   5.040  16.037  0.0806 -0.4135 -0.1937
  153DOPC   H5R18328   6.179   5.027  16.054 -0.1647 -0.3594 -1.5828
  153DOPC   H5S18329   6.349   4.963  16.089  1.7339  0.5928 -0.5845
  153DOPC   C2618330   6.291   5.009  15.890  0.1296 -0.1535  0.4181
  153DOPC   H6R18331   6.397   5.026  15.862 -0.3244 -0.6979 -1.7915
  153DOPC   H6S18332   6.238   5.093  15.840 -0.1269 -0.2928  0.4542
  153DOPC   C2718333   6.239   4.875  15.845 -0.0186 -0.7738 -0.2239
  153DOPC   H7R18334   6.153   4.848  15.909 -0.0473  0.8353  0.4776
  153DOPC   H7S18335   6.314   4.793  15.837 -0.8438 -1.4998 -0.6193
  153DOPC   C2818336   6.171   4.889  15.705 -1.0529 -0.0884  0.4718
  153DOPC   H8R18337   6.254   4.911  15.634  0.9461  1.6851  3.1509
  153DOPC   H8S18338   6.105   4.979  15.703 -2.0665 -0.7914 -2.6041
  153DOPC   C2918339   6.096   4.766  15.664  0.7111 -0.0076 -0.2986
  153DOPC   H9R18340   6.038   4.707  15.736  0.0501  0.2744 -0.5993
  153DOPC  C21018341   6.073   4.721  15.542  0.1326  0.6057  1.1317
  153DOPC  H10R18342   6.017   4.628  15.521  0.2957  0.9429 -1.0884
  153DOPC  C21118343   6.118   4.787  15.413  0.2335  0.1665  0.3532
  153DOPC  H11R18344   6.225   4.758  15.406 -0.0188 -0.6260 -0.5333
  153DOPC  H11S18345   6.104   4.897  15.418 -0.2666  0.0742  1.2507
  153DOPC  C21218346   6.040   4.732  15.288  0.4574  0.2699 -0.7687
  153DOPC  H12R18347   6.049   4.621  15.283 -0.8918 -0.0052  1.4797
  153DOPC  H12S18348   6.084   4.764  15.192 -0.2130  2.4885 -0.3963
  153DOPC  C21318349   5.896   4.792  15.272  0.1839  0.1008  0.3661
  153DOPC  H13R18350   5.896   4.903  15.275 -0.9643  0.1195  0.1449
  153DOPC  H13S18351   5.830   4.758  15.355  1.7727 -3.3777  0.4250
  153DOPC  C21418352   5.829   4.757  15.135  0.1593  0.8398 -0.3131
  153DOPC  H14R18353   5.807   4.650  15.158 -2.0589  1.6489  1.8962
  153DOPC  H14S18354   5.898   4.781  15.052  1.4284 -1.3928  0.0124
  153DOPC  C21518355   5.689   4.812  15.121  0.1873 -0.2479 -0.0536
  153DOPC  H15R18356   5.632   4.770  15.207  2.4430  1.6489  2.5356
  153DOPC  H15S18357   5.642   4.794  15.022 -3.9874  0.1253  1.6292
  153DOPC  C21618358   5.681   4.969  15.126  0.1736 -0.2342 -0.6007
  153DOPC  H16R18359   5.755   5.001  15.050 -0.0877 -0.6338 -1.0274
  153DOPC  H16S18360   5.707   5.007  15.227 -0.1443 -4.4820  1.3056
  153DOPC  C21718361   5.548   5.038  15.087 -0.2546 -0.3706  0.1537
  153DOPC  H17R18362   5.465   4.990  15.142  0.5546 -3.2270 -0.9307
  153DOPC  H17S18363   5.528   5.033  14.977  0.0654  2.8185 -0.1438
  153DOPC  C21818364   5.558   5.184  15.119 -1.0591  0.2655 -0.1971
  153DOPC  H18R18365   5.625   5.228  15.042  2.0544 -0.5664  1.8561
  153DOPC  H18S18366   5.600   5.210  15.218 -0.8072 -0.1396 -0.1962
  153DOPC  H18T18367   5.460   5.236  15.110 -0.3559  1.5562 -0.7290
  153DOPC   C3318368   5.897   5.282  16.197 -0.4929  0.5692  0.1367
  153DOPC   H3X18369   6.003   5.249  16.190 -0.5097  0.4233  0.5449
  153DOPC   H3Y18370   5.906   5.391  16.177  1.5318  0.0687 -2.2159
  153DOPC   C3418371   5.819   5.203  16.091 -0.3088 -0.5293 -0.7349
  153DOPC   H4X18372   5.716   5.242  16.101  1.0389  2.9620  1.0949
  153DOPC   H4Y18373   5.831   5.094  16.110 -1.1891 -0.8475 -1.8562
  153DOPC   C3518374   5.870   5.252  15.956  0.2303  0.5342  0.0366
  153DOPC   H5X18375   5.980   5.247  15.943  0.2811 -1.5304  0.8807
  153DOPC   H5Y18376   5.834   5.356  15.941 -1.0281  0.2187  0.7524
  153DOPC   C3618377   5.814   5.169  15.829 -0.5377  0.1650  0.5345
  153DOPC   H6X18378   5.835   5.217  15.732  1.1950 -2.0835 -0.2757
  153DOPC   H6Y18379   5.872   5.077  15.851 -2.3559 -0.8003  1.5943
  153DOPC   C3718380   5.669   5.125  15.853  0.2350 -0.3951 -0.3064
  153DOPC   H7X18381   5.674   5.060  15.943  1.6227  0.7198  0.4570
  153DOPC   H7Y18382   5.604   5.214  15.869  0.1886 -0.2436 -1.2438
  153DOPC   C3818383   5.611   5.022  15.756  0.1620  0.0009  0.3894
  153DOPC   H8X18384   5.510   4.994  15.794 -1.3678  1.3716 -2.3114
  153DOPC   H8Y18385   5.686   4.940  15.758  1.1383  0.8337 -0.6015
  153DOPC   C3918386   5.608   5.067  15.615  0.4724 -0.5868  0.0369
  153DOPC   H9X18387   5.684   5.143  15.590  1.4387 -0.9834  1.5694
  153DOPC  C31018388   5.514   5.038  15.521  0.4152 -0.5236 -0.2468
  153DOPC  H10X18389   5.509   5.084  15.422 -3.5565  0.4916  0.2512
  153DOPC  C31118390   5.405   4.938  15.540  0.0202 -0.2630 -0.4870
  153DOPC  H11X18391   5.304   4.984  15.530  0.9283  1.7028 -1.1705
  153DOPC  H11Y18392   5.400   4.902  15.645 -0.0523  2.0321  0.3652
  153DOPC  C31218393   5.413   4.815  15.459 -0.3537  0.5929  0.0778
  153DOPC  H12X18394   5.415   4.846  15.352  2.6669  0.0177 -0.1204
  153DOPC  H12Y18395   5.317   4.767  15.488  0.1806  1.1289  3.1280
  153DOPC  C31318396   5.535   4.730  15.478  0.2737 -1.1108  0.0066
  153DOPC  H13X18397   5.627   4.762  15.423  0.0712 -2.8379 -1.4194
  153DOPC  H13Y18398   5.558   4.727  15.587 -0.4121 -0.5802  0.1689
  153DOPC  C31418399   5.517   4.583  15.423 -0.1761  0.1075 -0.3178
  153DOPC  H14X18400   5.462   4.531  15.505  2.2133 -0.4160  1.0842
  153DOPC  H14Y18401   5.458   4.585  15.329 -0.8729  0.9521  0.1219
  153DOPC  C31518402   5.651   4.507  15.398 -0.0865 -0.2213 -0.3647
  153DOPC  H15X18403   5.705   4.477  15.490  1.2121 -0.3475 -1.1451
  153DOPC  H15Y18404   5.716   4.568  15.333 -1.2624  1.4471 -0.0575
  153DOPC  C31618405   5.610   4.381  15.326  0.2394 -0.1601  0.7232
  153DOPC  H16X18406   5.538   4.405  15.245  0.6625 -0.5279  0.2328
  153DOPC  H16Y18407   5.703   4.335  15.286  0.6153  0.3050  1.0432
  153DOPC  C31718408   5.548   4.270  15.418 -0.6038 -0.5579  0.3130
  153DOPC  H17X18409   5.596   4.262  15.517 -0.8498  0.0945  0.4939
  153DOPC  H17Y18410   5.441   4.291  15.440 -1.1187 -1.0209 -1.5945
  153DOPC  C31818411   5.535   4.139  15.348  0.3476  0.1943  0.1712
  153DOPC  H18X18412   5.462   4.144  15.265  1.3421  1.4752 -0.6566
  153DOPC  H18Y18413   5.639   4.115  15.319 -0.6380 -1.6656 -2.1288
  153DOPC  H18Z18414   5.503   4.058  15.418  2.3932 -4.4656 -3.7349
  154DOPC     N18415   0.143   2.725  17.149 -1.1066  0.0461 -0.4458
  154DOPC   C1218416   0.176   2.641  17.031  0.5373 -0.1173  0.4256
  154DOPC  H12A18417   0.237   2.553  17.045  1.2804  0.4283  0.7242
  154DOPC  H12B18418   0.245   2.689  16.962  0.2326 -2.1912 -1.4170
  154DOPC   C1318419   0.071   2.851  17.109  0.2530 -0.2353  0.1217
  154DOPC  H13A18420   0.073   2.927  17.185  2.5557  0.2739 -0.3698
  154DOPC  H13B18421   0.127   2.886  17.024  1.1947 -0.5093  0.6157
  154DOPC  H13C18422  -0.030   2.831  17.074 -0.3091 -0.0294  1.5677
  154DOPC   C1418423   0.268   2.779  17.204  0.7977 -0.0117 -0.7149
  154DOPC  H14A18424   0.326   2.693  17.234 -0.2571 -0.0762  1.3050
  154DOPC  H14B18425   0.339   2.819  17.132  1.8805 -0.7144 -0.0701
  154DOPC  H14C18426   0.250   2.836  17.294  1.1613 -0.8180 -0.1086
  154DOPC   C1518427   0.068   2.641  17.240  0.1034  0.5074 -0.0358
  154DOPC  H15A18428  -0.016   2.594  17.190 -1.2763  2.6857  0.1074
  154DOPC  H15B18429   0.021   2.704  17.314 -1.4963 -0.0055 -0.5753
  154DOPC  H15C18430   0.129   2.570  17.293  0.5889  1.5646  0.8567
  154DOPC   C1118431   0.061   2.612  16.937 -0.0683 -0.0865  0.8021
  154DOPC  H11A18432  -0.029   2.595  16.999  0.3584 -0.2492  1.3846
  154DOPC  H11B18433   0.038   2.691  16.863  1.1566 -0.7845 -0.3637
  154DOPC     P18434   0.102   2.487  16.709 -0.1004 -0.1342  0.4563
  154DOPC   O1318435  -0.024   2.523  16.636  0.3571 -0.0985 -0.2252
  154DOPC   O1418436   0.158   2.356  16.673  0.5662 -0.4804 -0.3000
  154DOPC   O1218437   0.087   2.489  16.868 -0.2799 -0.2794 -0.1264
  154DOPC   O1118438   0.209   2.599  16.694  0.0809  0.0737 -0.3190
  154DOPC    C118439   0.206   2.689  16.581 -0.0120  0.1953  0.4023
  154DOPC    HA18440   0.280   2.771  16.592  1.4385 -0.7996 -1.2310
  154DOPC    HB18441   0.101   2.727  16.580  0.2024  0.7949  0.5316
  154DOPC    C218442   0.241   2.622  16.439  0.3996  0.1286 -0.0661
  154DOPC    HS18443   0.182   2.528  16.430 -1.0791  0.9760  0.4257
  154DOPC   O2118444   0.385   2.614  16.424 -0.1647  0.0647  0.9920
  154DOPC   C2118445   0.423   2.501  16.369 -0.3941 -0.6569 -0.5412
  154DOPC   O2218446   0.353   2.406  16.346 -0.2452  0.0452 -0.0640
  154DOPC   C2218447   0.570   2.516  16.339 -1.0128  0.0008  0.6583
  154DOPC   H2R18448   0.625   2.486  16.431  0.1423  0.4270  0.1251
  154DOPC   H2S18449   0.605   2.620  16.321 -1.5465 -0.0032 -0.5086
  154DOPC    C318450   0.178   2.714  16.322  0.8697 -0.2271 -0.1604
  154DOPC    HX18451   0.218   2.817  16.333  0.3631 -0.0728  0.3228
  154DOPC    HY18452   0.067   2.720  16.329  0.8784  1.7130 -1.2707
  154DOPC   O3118453   0.221   2.659  16.193  0.0418  0.1287 -0.8229
  154DOPC   C3118454   0.155   2.556  16.142  0.2698  0.0212 -0.0242
  154DOPC   O3218455   0.055   2.510  16.197 -0.0120 -0.0100 -0.3875
  154DOPC   C3218456   0.223   2.503  16.019 -0.0861  0.3825 -0.1111
  154DOPC   H2X18457   0.279   2.580  15.962  0.8227 -0.0239  0.2193
  154DOPC   H2Y18458   0.292   2.422  16.052 -3.3906 -2.8596 -0.4758
  154DOPC   C2318459   0.626   2.420  16.230  1.2077  0.1482  0.1912
  154DOPC   H3R18460   0.556   2.412  16.145 -0.8609 -1.8981  1.9561
  154DOPC   H3S18461   0.635   2.313  16.259  1.1280  0.0007 -0.3227
  154DOPC   C2418462   0.752   2.469  16.166 -0.6501  0.2863 -0.1810
  154DOPC   H4R18463   0.821   2.524  16.234 -0.4528 -1.1294  0.8078
  154DOPC   H4S18464   0.721   2.535  16.083 -1.0833 -0.2219 -0.4342
  154DOPC   C2518465   0.818   2.345  16.095  0.2127  0.0179 -0.4884
  154DOPC   H5R18466   0.744   2.274  16.052  2.2891 -2.0406 -0.9168
  154DOPC   H5S18467   0.875   2.292  16.174  1.2818  1.1585 -0.4733
  154DOPC   C2618468   0.919   2.368  15.985 -0.8931 -0.2626  0.4220
  154DOPC   H6R18469   1.008   2.407  16.037  1.3926 -1.7929 -2.0513
  154DOPC   H6S18470   0.867   2.426  15.906  0.3485 -3.6846 -3.2764
  154DOPC   C2718471   0.966   2.239  15.915 -0.1737 -0.8615 -0.0696
  154DOPC   H7R18472   0.875   2.180  15.892 -1.6341  0.7787  1.1644
  154DOPC   H7S18473   1.018   2.179  15.993  1.2338 -0.7849 -0.9288
  154DOPC   C2818474   1.050   2.268  15.794 -0.0583  0.1255 -0.4235
  154DOPC   H8R18475   1.140   2.333  15.803  0.6038 -0.2831 -3.1375
  154DOPC   H8S18476   0.985   2.332  15.732  0.5437  1.1363 -0.0355
  154DOPC   C2918477   1.092   2.144  15.721 -0.0943  0.4397 -0.5105
  154DOPC   H9R18478   1.161   2.085  15.782 -0.8960 -2.4549 -2.2406
  154DOPC  C21018479   1.052   2.093  15.602  0.3495  0.4412  0.1673
  154DOPC  H10R18480   1.096   2.003  15.556 -0.7967  0.2826 -0.6631
  154DOPC  C21118481   0.954   2.157  15.515 -0.0209 -0.3919 -0.3265
  154DOPC  H11R18482   0.892   2.233  15.567 -0.2973 -1.1089  0.4038
  154DOPC  H11S18483   0.888   2.081  15.468  0.7302  0.1153 -2.2911
  154DOPC  C21218484   1.022   2.226  15.399 -0.1375 -0.5114  0.2221
  154DOPC  H12R18485   1.054   2.144  15.331 -3.1621 -0.9906 -0.8017
  154DOPC  H12S18486   1.108   2.288  15.429 -1.2607  0.1983  2.1355
  154DOPC  C21318487   0.919   2.313  15.322  0.0619  0.4601 -0.5384
  154DOPC  H13R18488   0.980   2.383  15.261  0.2930  0.3947 -0.3791
  154DOPC  H13S18489   0.857   2.362  15.400 -0.2284 -1.3684  0.4249
  154DOPC  C21418490   0.830   2.231  15.233  0.5832  0.3386  0.3972
  154DOPC  H14R18491   0.786   2.150  15.295  0.4584 -0.0393 -0.1682
  154DOPC  H14S18492   0.887   2.195  15.145  1.9318  1.8777  0.5984
  154DOPC  C21518493   0.705   2.315  15.185 -0.0855 -0.4579 -0.4857
  154DOPC  H15R18494   0.743   2.410  15.140 -1.0856 -0.8225 -2.1881
  154DOPC  H15S18495   0.655   2.350  15.278  1.5675 -1.8437  0.9856
  154DOPC  C21618496   0.611   2.252  15.096  0.9982  0.5241 -0.7219
  154DOPC  H16R18497   0.560   2.169  15.149 -0.9011  1.0849 -1.5595
  154DOPC  H16S18498   0.672   2.203  15.017  2.3209  0.5113  0.2783
  154DOPC  C21718499   0.510   2.350  15.044 -0.1593 -0.4496  0.2126
  154DOPC  H17R18500   0.445   2.287  14.981  0.3921 -0.7608 -0.0458
  154DOPC  H17S18501   0.552   2.428  14.977 -0.5919 -1.4169 -1.2215
  154DOPC  C21818502   0.420   2.417  15.155 -1.2452  0.3301  0.0950
  154DOPC  H18R18503   0.482   2.472  15.230  0.3763 -2.4218  0.9228
  154DOPC  H18S18504   0.364   2.341  15.214  0.2985  0.0298  1.2537
  154DOPC  H18T18505   0.342   2.479  15.107  0.8486  3.3597  0.2950
  154DOPC   C3318506   0.119   2.438  15.926 -0.0555  0.0994  0.6864
  154DOPC   H3X18507   0.071   2.352  15.977 -2.5845  1.3766  0.6451
  154DOPC   H3Y18508   0.184   2.396  15.847 -0.1450 -0.3120  0.8305
  154DOPC   C3418509   0.017   2.532  15.867 -0.7116 -0.2147  0.0643
  154DOPC   H4X18510   0.057   2.632  15.894  1.7435 -1.2449  0.5031
  154DOPC   H4Y18511  -0.076   2.519  15.926 -1.3236  0.2095 -0.7928
  154DOPC   C3518512  -0.022   2.485  15.724  1.1133 -0.2920  1.0817
  154DOPC   H5X18513  -0.113   2.535  15.685  1.9213 -0.5274 -1.2250
  154DOPC   H5Y18514  -0.039   2.375  15.727  3.6005 -0.8477 -1.3072
  154DOPC   C3618515   0.084   2.517  15.611  0.1593  0.3573 -0.2309
  154DOPC   H6X18516   0.118   2.622  15.626  0.8805  0.0153  0.6379
  154DOPC   H6Y18517   0.171   2.460  15.652 -0.7233 -0.9966 -0.1725
  154DOPC   C3718518   0.068   2.482  15.458  0.0096 -0.6131 -0.1835
  154DOPC   H7X18519  -0.014   2.543  15.413 -1.4783 -0.2740  2.7515
  154DOPC   H7Y18520   0.158   2.524  15.409 -0.9883 -0.1847 -1.7245
  154DOPC   C3818521   0.052   2.333  15.436 -0.1437 -0.7189  0.1052
  154DOPC   H8X18522  -0.026   2.295  15.505 -4.2173  1.4476 -2.8981
  154DOPC   H8Y18523   0.143   2.284  15.477  0.8013  0.0033 -1.1007
  154DOPC   C3918524   0.030   2.296  15.290 -0.3366 -0.7284  0.3106
  154DOPC   H9X18525   0.110   2.243  15.236 -1.3246  1.9251 -4.2990
  154DOPC  C31018526  -0.088   2.315  15.229  0.5253 -0.8977  0.2612
  154DOPC  H10X18527  -0.099   2.265  15.132  1.3761 -0.2589 -0.1809
  154DOPC  C31118528  -0.211   2.367  15.303 -0.3804 -0.3383  0.9752
  154DOPC  H11X18529  -0.209   2.478  15.312  0.0482 -0.0647 -1.6186
  154DOPC  H11Y18530  -0.224   2.324  15.405 -2.9382  0.3894  1.0357
  154DOPC  C31218531  -0.344   2.340  15.227 -0.6516  0.1279  0.5118
  154DOPC  H12X18532  -0.429   2.356  15.296  1.0902  0.6900  2.6696
  154DOPC  H12Y18533  -0.342   2.231  15.206  2.8386  0.4551 -1.7679
  154DOPC  C31318534  -0.370   2.428  15.106  0.2628  0.4573 -0.4321
  154DOPC  H13X18535  -0.345   2.535  15.118  1.0688  0.3337 -0.8972
  154DOPC  H13Y18536  -0.327   2.397  15.008 -2.1248 -1.2023 -1.0422
  154DOPC  C31418537  -0.520   2.417  15.063 -0.1334 -0.6990 -0.0215
  154DOPC  H14X18538  -0.559   2.317  15.034  0.1736 -0.7686 -0.2080
  154DOPC  H14Y18539  -0.594   2.435  15.144 -1.2915  0.0942 -1.2221
  154DOPC  C31518540  -0.541   2.521  14.946 -1.0870  0.7384 -0.0728
  154DOPC  H15X18541  -0.471   2.506  14.861  0.1551  2.0969  0.6701
  154DOPC  H15Y18542  -0.526   2.620  14.993  0.8408  0.2019  0.5206
  154DOPC  C31618543  -0.685   2.502  14.895 -0.0450  0.5174 -0.1147
  154DOPC  H16X18544  -0.680   2.411  14.832 -0.7229 -0.0501  0.6283
  154DOPC  H16Y18545  -0.759   2.482  14.975 -0.9940 -0.5114 -1.2122
  154DOPC  C31718546  -0.728   2.618  14.810 -0.4254  0.1648 -0.2476
  154DOPC  H17X18547  -0.641   2.649  14.748 -1.1128 -0.1878 -1.4106
  154DOPC  H17Y18548  -0.801   2.585  14.734 -0.5092  1.7160 -0.8796
  154DOPC  C31818549  -0.802   2.734  14.883 -0.0106 -0.3821 -0.2257
  154DOPC  H18X18550  -0.737   2.783  14.959  1.7279  1.5265 -2.7646
  154DOPC  H18Y18551  -0.829   2.823  14.823 -1.3960 -0.2366  0.5768
  154DOPC  H18Z18552  -0.888   2.693  14.941 -0.8313  1.8952  0.2488
  155DOPC     N18553   2.844   7.276  16.917 -0.0278 -0.4160  0.0491
  155DOPC   C1218554   2.762   7.384  16.847  0.3511 -0.2650 -1.1180
  155DOPC  H12A18555   2.756   7.468  16.916  4.1360  1.7301 -2.9028
  155DOPC  H12B18556   2.662   7.358  16.817  0.5030 -0.1656 -1.7280
  155DOPC   C1318557   2.897   7.178  16.816 -0.2751  0.0803 -0.4914
  155DOPC  H13A18558   2.809   7.144  16.764 -2.4136  2.8399  1.0849
  155DOPC  H13B18559   2.970   7.232  16.758  0.3022 -0.8321 -0.6480
  155DOPC  H13C18560   2.954   7.095  16.858  2.8483  2.0558 -0.4964
  155DOPC   C1418561   2.747   7.216  17.017  0.1766  0.0059 -0.0413
  155DOPC  H14A18562   2.795   7.136  17.071 -2.8851 -0.6963  1.8737
  155DOPC  H14B18563   2.709   7.297  17.078 -1.5194  0.1950 -1.2854
  155DOPC  H14C18564   2.659   7.171  16.975 -1.1969  1.1865  1.4581
  155DOPC   C1518565   2.954   7.343  16.984  0.3576 -0.0684 -0.4749
  155DOPC  H15A18566   2.935   7.391  17.079  2.6823  0.0990 -0.0414
  155DOPC  H15B18567   3.002   7.412  16.916  3.2653 -2.3130 -0.8822
  155DOPC  H15C18568   3.028   7.271  17.014 -0.1902 -0.2372  0.5306
  155DOPC   C1118569   2.811   7.454  16.717 -0.0237 -0.3093 -0.3133
  155DOPC  H11A18570   2.819   7.369  16.646 -0.4048 -2.3859  1.9664
  155DOPC  H11B18571   2.735   7.524  16.677 -0.5928 -1.0629 -0.5853
  155DOPC     P18572   2.972   7.667  16.780  0.0867  0.1799 -0.0471
  155DOPC   O1318573   3.114   7.679  16.816  0.1238 -0.5654  0.0455
  155DOPC   O1418574   2.868   7.708  16.877  0.3468  0.3879 -0.0962
  155DOPC   O1218575   2.935   7.517  16.753 -0.1933  0.3903 -0.2268
  155DOPC   O1118576   2.948   7.730  16.644  0.2599  0.2820  0.2378
  155DOPC    C118577   2.984   7.680  16.508 -0.0096  0.3697 -0.1591
  155DOPC    HA18578   2.909   7.618  16.456 -0.1093  0.0320  0.3847
  155DOPC    HB18579   3.061   7.601  16.504 -2.2768 -2.1298  1.9863
  155DOPC    C218580   3.027   7.803  16.420  0.4181  0.0602  0.4720
  155DOPC    HS18581   3.074   7.765  16.327 -1.7908  0.4277 -0.8562
  155DOPC   O2118582   3.117   7.884  16.496 -0.0743  0.4086  0.5608
  155DOPC   C2118583   3.244   7.851  16.497  0.1865  0.1362  0.0150
  155DOPC   O2218584   3.293   7.759  16.432 -0.1718  0.5387  0.0524
  155DOPC   C2218585   3.316   7.923  16.617 -0.3820  0.1726  0.4495
  155DOPC   H2R18586   3.411   7.866  16.624 -0.1844  0.1684 -1.6466
  155DOPC   H2S18587   3.250   7.926  16.707 -0.4794  0.4365  0.3713
  155DOPC    C318588   2.901   7.887  16.382 -0.7315 -0.3975  0.6168
  155DOPC    HX18589   2.860   7.950  16.464 -1.6483  1.2331 -1.0330
  155DOPC    HY18590   2.817   7.821  16.351 -0.2637  0.1411 -2.0916
  155DOPC   O3118591   2.939   7.965  16.262 -0.3756 -0.5060 -0.7080
  155DOPC   C3118592   2.998   8.087  16.280 -0.3912  0.1375  0.3035
  155DOPC   O3218593   2.993   8.156  16.384 -0.0295  0.6195 -0.1206
  155DOPC   C3218594   3.039   8.145  16.139  0.1082  0.2071  0.3031
  155DOPC   H2X18595   2.982   8.088  16.062  1.3642  1.4579 -1.6313
  155DOPC   H2Y18596   3.001   8.249  16.136 -1.3949 -0.3477 -1.0873
  155DOPC   C2318597   3.361   8.068  16.572  0.1636  0.0699 -0.2496
  155DOPC   H3R18598   3.377   8.132  16.662  0.8034 -0.2498 -0.1242
  155DOPC   H3S18599   3.276   8.125  16.532  0.0834  2.4702  2.9365
  155DOPC   C2418600   3.476   8.074  16.470 -0.3365 -0.3123  0.0743
  155DOPC   H4R18601   3.428   8.058  16.372  1.1006 -0.5425 -0.6099
  155DOPC   H4S18602   3.557   8.000  16.485  0.4647  1.0334  3.1697
  155DOPC   C2518603   3.529   8.215  16.463 -0.0594  0.6803  0.3081
  155DOPC   H5R18604   3.573   8.232  16.564 -1.5532 -1.7889  1.4539
  155DOPC   H5S18605   3.452   8.294  16.446 -0.3578  0.1898 -0.6985
  155DOPC   C2618606   3.640   8.218  16.355  0.1561 -1.0380  0.4904
  155DOPC   H6R18607   3.714   8.141  16.386 -0.1590 -1.9726 -0.9814
  155DOPC   H6S18608   3.690   8.317  16.362 -1.2457 -0.3136  0.5488
  155DOPC   C2718609   3.591   8.181  16.216 -0.0875 -0.2574 -0.4404
  155DOPC   H7R18610   3.493   8.229  16.200  0.8570  1.3575 -1.6884
  155DOPC   H7S18611   3.563   8.073  16.209 -0.9541 -0.0587 -0.0931
  155DOPC   C2818612   3.694   8.215  16.101 -0.1759 -0.1456  0.2794
  155DOPC   H8R18613   3.733   8.318  16.116 -1.1494  0.1546  0.8178
  155DOPC   H8S18614   3.641   8.212  16.004 -1.0417  0.3656  0.7279
  155DOPC   C2918615   3.808   8.117  16.112 -0.6455 -0.4450  0.0704
  155DOPC   H9R18616   3.888   8.133  16.186  0.2120 -2.1991 -0.4274
  155DOPC  C21018617   3.811   8.002  16.047 -0.6078  0.4261  0.0682
  155DOPC  H10R18618   3.909   7.953  16.039 -0.2994  1.2571 -1.8543
  155DOPC  C21118619   3.706   7.947  15.958  0.2758  0.4342  0.2914
  155DOPC  H11R18620   3.618   8.014  15.951  1.4066  1.8391 -1.4790
  155DOPC  H11S18621   3.677   7.852  16.008  0.0131  0.2643 -0.1818
  155DOPC  C21218622   3.773   7.908  15.823 -0.3833 -0.3106 -0.4709
  155DOPC  H12R18623   3.735   7.808  15.793 -0.3259  0.1372 -2.1575
  155DOPC  H12S18624   3.884   7.899  15.820 -0.5058 -2.0520 -1.2340
  155DOPC  C21318625   3.735   8.009  15.714 -0.1170 -0.3121  0.1194
  155DOPC  H13R18626   3.803   8.096  15.732 -1.0044  0.2084  1.0709
  155DOPC  H13S18627   3.630   8.045  15.718  0.4843  1.4856  2.3229
  155DOPC  C21418628   3.757   7.959  15.567  0.4148  0.5429 -0.0302
  155DOPC  H14R18629   3.691   7.870  15.558  0.5803  0.5788 -2.1970
  155DOPC  H14S18630   3.861   7.918  15.571  0.4368  0.6575  0.7600
  155DOPC  C21518631   3.743   8.057  15.452 -0.0206  0.2062  0.3592
  155DOPC  H15R18632   3.638   8.094  15.456  0.0283  0.4714 -0.6311
  155DOPC  H15S18633   3.753   7.996  15.360  2.2626  0.3297  0.4568
  155DOPC  C21618634   3.847   8.162  15.457  0.2623  0.2771 -0.2270
  155DOPC  H16R18635   3.947   8.117  15.475 -0.2193 -0.1939  1.4037
  155DOPC  H16S18636   3.831   8.234  15.540  0.4053  0.4331 -0.3329
  155DOPC  C21718637   3.856   8.236  15.331  0.7481  0.6467  0.9442
  155DOPC  H17R18638   3.758   8.280  15.306 -0.1979 -2.4731 -1.5013
  155DOPC  H17S18639   3.886   8.165  15.250 -0.2882  0.9825  0.2440
  155DOPC  C21818640   3.965   8.340  15.349  0.6017 -0.5078  0.0645
  155DOPC  H18R18641   4.065   8.295  15.369  0.2137 -1.7524 -0.6720
  155DOPC  H18S18642   3.935   8.395  15.441  0.0071 -0.4695 -0.1518
  155DOPC  H18T18643   3.972   8.416  15.269  0.0839  0.3039  0.7698
  155DOPC   C3318644   3.194   8.142  16.112  0.3687  0.9566 -0.0319
  155DOPC   H3X18645   3.241   8.217  16.179  1.8018  0.6527 -0.6627
  155DOPC   H3Y18646   3.214   8.188  16.012 -1.7879  0.1765 -0.8880
  155DOPC   C3418647   3.252   8.006  16.125  0.2545 -0.1429  0.4618
  155DOPC   H4X18648   3.236   7.972  16.230  1.8002 -0.3037  0.6740
  155DOPC   H4Y18649   3.362   8.019  16.112  0.0280  1.1414 -0.2660
  155DOPC   C3518650   3.206   7.913  16.019  0.2190 -0.4488  0.2707
  155DOPC   H5X18651   3.096   7.908  16.009  0.0691  1.0773  0.8158
  155DOPC   H5Y18652   3.228   7.812  16.059 -1.6340 -0.4306  1.4596
  155DOPC   C3618653   3.285   7.915  15.890 -0.2536 -0.3890  0.0706
  155DOPC   H6X18654   3.231   7.986  15.824 -1.7113 -1.8711 -0.4065
  155DOPC   H6Y18655   3.383   7.963  15.912 -1.8601  3.4594 -0.2883
  155DOPC   C3718656   3.295   7.790  15.810 -1.0398  0.4757 -0.3598
  155DOPC   H7X18657   3.310   7.702  15.876 -0.4101  0.3145 -0.7156
  155DOPC   H7Y18658   3.191   7.763  15.779 -2.0851  1.5413  1.9677
  155DOPC   C3818659   3.395   7.802  15.685 -0.7305  0.1596 -0.0659
  155DOPC   H8X18660   3.494   7.782  15.732 -0.4603  2.2883  0.3424
  155DOPC   H8Y18661   3.414   7.904  15.646  1.2494 -0.3336 -0.5123
  155DOPC   C3918662   3.386   7.694  15.575  0.0063 -0.6077 -0.4845
  155DOPC   H9X18663   3.430   7.597  15.601  0.2292 -0.0688  1.3422
  155DOPC  C31018664   3.304   7.708  15.468  0.4314 -0.3606 -0.1655
  155DOPC  H10X18665   3.295   7.623  15.398 -0.6848 -0.3760 -0.0208
  155DOPC  C31118666   3.229   7.830  15.428 -0.7737  0.4864 -0.1680
  155DOPC  H11X18667   3.269   7.882  15.337  0.3183  0.0739  0.0543
  155DOPC  H11Y18668   3.233   7.903  15.512  0.3884 -1.0299  1.1485
  155DOPC  C31218669   3.079   7.794  15.400 -0.0913  0.6392  0.0633
  155DOPC  H12X18670   3.020   7.885  15.425  0.3823  0.9513  0.0470
  155DOPC  H12Y18671   3.044   7.725  15.481  2.5286  0.9626  1.5963
  155DOPC  C31318672   3.049   7.728  15.259  0.2020 -0.2393  0.0465
  155DOPC  H13X18673   3.078   7.798  15.178  0.9678  0.0901  0.5998
  155DOPC  H13Y18674   3.107   7.633  15.254 -1.8478 -1.5471 -0.0601
  155DOPC  C31418675   2.906   7.675  15.243 -0.1224  0.2755 -0.6825
  155DOPC  H14X18676   2.897   7.572  15.284  1.3198 -0.7222 -2.7308
  155DOPC  H14Y18677   2.840   7.731  15.314 -1.2948 -1.3547 -0.4358
  155DOPC  C31518678   2.843   7.689  15.103 -0.3660  0.3924  0.1254
  155DOPC  H15X18679   2.907   7.657  15.018  0.0669  1.5702 -0.0138
  155DOPC  H15Y18680   2.817   7.795  15.083  0.9533  0.6262 -0.4374
  155DOPC  C31618681   2.715   7.608  15.096  0.2835  0.4546  0.4813
  155DOPC  H16X18682   2.725   7.499  15.118 -0.2276  0.2260 -0.3747
  155DOPC  H16Y18683   2.635   7.645  15.164  0.2990 -0.0956  0.8134
  155DOPC  C31718684   2.652   7.624  14.957 -0.2617  0.4827  0.1201
  155DOPC  H17X18685   2.625   7.731  14.953  0.8578  0.8024  0.7052
  155DOPC  H17Y18686   2.733   7.616  14.883  0.5302 -0.7773  1.0772
  155DOPC  C31818687   2.533   7.534  14.919  0.7016  0.7767  0.7864
  155DOPC  H18X18688   2.561   7.427  14.907 -0.6246  0.2951  1.8090
  155DOPC  H18Y18689   2.473   7.530  15.013 -1.1597 -1.7285 -0.4116
  155DOPC  H18Z18690   2.476   7.577  14.834  0.3530 -2.3631 -0.7226
  156DOPC     N18691   6.199   4.983  17.306 -0.0407 -0.2503 -0.3707
  156DOPC   C1218692   6.079   4.944  17.233 -0.0133  0.3441 -0.3130
  156DOPC  H12A18693   6.020   5.030  17.205 -1.1941 -0.7574 -1.3276
  156DOPC  H12B18694   6.020   4.878  17.295  0.7521  0.6398  0.7640
  156DOPC   C1318695   6.292   5.059  17.217 -0.2788  0.2495 -0.1222
  156DOPC  H13A18696   6.329   5.002  17.133  3.8022  0.5379  1.2512
  156DOPC  H13B18697   6.251   5.150  17.175  1.0886  1.2604  0.6468
  156DOPC  H13C18698   6.374   5.094  17.278 -1.0043 -0.2068  1.1324
  156DOPC   C1418699   6.265   4.862  17.350 -0.4060  0.6230 -1.0798
  156DOPC  H14A18700   6.267   4.788  17.272  1.3703 -0.8747  0.2689
  156DOPC  H14B18701   6.372   4.880  17.355 -0.3402  0.5611 -2.0467
  156DOPC  H14C18702   6.248   4.831  17.452  1.9978 -1.7772 -1.2755
  156DOPC   C1518703   6.175   5.066  17.429  0.1883 -0.0131  0.0130
  156DOPC  H15A18704   6.143   5.003  17.510  0.1710 -1.3976 -1.0203
  156DOPC  H15B18705   6.089   5.130  17.411  0.1098 -0.4296 -1.2049
  156DOPC  H15C18706   6.267   5.117  17.451  0.5774  0.0915 -1.6599
  156DOPC   C1118707   6.109   4.861  17.107 -0.2622 -1.1372 -0.2192
  156DOPC  H11A18708   6.013   4.865  17.052 -0.3448 -0.0482 -0.0164
  156DOPC  H11B18709   6.183   4.913  17.041  0.9536 -1.6131  0.7402
  156DOPC     P18710   6.246   4.636  17.053  0.3979 -0.2666 -0.4530
  156DOPC   O1318711   6.203   4.500  17.082  0.6497  0.7511 -0.4448
  156DOPC   O1418712   6.386   4.669  17.094 -0.1570  0.2248 -0.0034
  156DOPC   O1218713   6.150   4.733  17.134  0.2021  0.4051  0.4139
  156DOPC   O1118714   6.218   4.673  16.905  0.0346 -0.7984  0.3186
  156DOPC    C118715   6.240   4.569  16.806  0.0758 -0.7391 -0.1493
  156DOPC    HA18716   6.142   4.518  16.796 -1.6816  2.5655 -1.3381
  156DOPC    HB18717   6.322   4.497  16.825  0.5173 -0.0186  0.7253
  156DOPC    C218718   6.254   4.633  16.668 -0.4166  0.0936  0.4284
  156DOPC    HS18719   6.357   4.675  16.674  0.5791 -1.8723 -1.3964
  156DOPC   O2118720   6.150   4.725  16.651 -0.0084  0.0416 -0.7647
  156DOPC   C2118721   6.191   4.827  16.578  0.2340 -0.5780  0.5541
  156DOPC   O2218722   6.303   4.874  16.575  0.1969 -0.0834  0.0677
  156DOPC   C2218723   6.067   4.881  16.492 -0.3974  0.1335  0.1267
  156DOPC   H2R18724   6.098   4.977  16.446 -1.6308  0.3164 -0.3807
  156DOPC   H2S18725   5.985   4.894  16.567 -1.7870 -0.4210 -1.2440
  156DOPC    C318726   6.247   4.529  16.553 -0.2692 -0.0581 -0.2281
  156DOPC    HX18727   6.139   4.511  16.538 -0.9736  2.8266  0.6806
  156DOPC    HY18728   6.288   4.431  16.585  0.7738 -0.3056 -2.1964
  156DOPC   O3118729   6.294   4.582  16.428  0.5096 -0.2808  0.5664
  156DOPC   C3118730   6.411   4.531  16.386 -0.0217  0.1087  0.0192
  156DOPC   O3218731   6.473   4.454  16.457  0.1662  0.7297 -0.2021
  156DOPC   C3218732   6.466   4.611  16.266  0.1559 -0.4953  0.5077
  156DOPC   H2X18733   6.375   4.620  16.203 -0.1893 -1.5734  0.8165
  156DOPC   H2Y18734   6.478   4.714  16.304 -0.9099 -0.3919  0.5922
  156DOPC   C2318735   6.018   4.791  16.371  0.3916  0.6725  0.6673
  156DOPC   H3R18736   5.971   4.700  16.414 -1.1240 -0.1358 -2.4108
  156DOPC   H3S18737   6.106   4.746  16.319  1.0430  1.1885  1.3001
  156DOPC   C2418738   5.936   4.859  16.251  1.2217  0.3108 -0.2131
  156DOPC   H4R18739   5.990   4.939  16.195  0.4632  0.4036 -0.8387
  156DOPC   H4S18740   5.853   4.910  16.305  0.2148 -0.3696 -1.0483
  156DOPC   C2518741   5.893   4.755  16.149  0.0225 -0.1943  0.2949
  156DOPC   H5R18742   5.838   4.669  16.193  0.9652 -0.0708  1.7790
  156DOPC   H5S18743   5.990   4.711  16.117  0.8430  0.9772  1.0608
  156DOPC   C2618744   5.800   4.815  16.042 -0.4215  0.3569 -0.1492
  156DOPC   H6R18745   5.865   4.869  15.970 -1.7590  1.3420 -0.6625
  156DOPC   H6S18746   5.734   4.887  16.095  0.5369 -0.3199  2.1080
  156DOPC   C2718747   5.710   4.717  15.965  0.5712  0.8842  0.0875
  156DOPC   H7R18748   5.664   4.773  15.882  0.3199  1.3891  0.5590
  156DOPC   H7S18749   5.636   4.664  16.029  1.7340  0.0184  0.7758
  156DOPC   C2818750   5.801   4.602  15.896 -0.1824 -0.3211 -0.2797
  156DOPC   H8R18751   5.830   4.528  15.973 -1.3664 -1.5389 -0.9534
  156DOPC   H8S18752   5.893   4.652  15.860 -1.5464  2.2413 -0.4562
  156DOPC   C2918753   5.727   4.533  15.784  0.0342  0.5859  0.4667
  156DOPC   H9R18754   5.698   4.595  15.698  2.3866 -0.2913 -1.0575
  156DOPC  C21018755   5.684   4.401  15.782 -0.5582 -0.0222  0.5696
  156DOPC  H10R18756   5.638   4.370  15.687 -1.6885  1.3256  0.6527
  156DOPC  C21118757   5.689   4.297  15.889 -0.1083  0.1383  0.2967
  156DOPC  H11R18758   5.585   4.265  15.908 -0.2519  0.9630  0.9775
  156DOPC  H11S18759   5.716   4.339  15.988 -0.2255  1.2139 -0.1184
  156DOPC  C21218760   5.768   4.176  15.853  0.1999  0.4579 -0.1489
  156DOPC  H12R18761   5.764   4.102  15.936  0.0025 -0.7245 -1.1920
  156DOPC  H12S18762   5.874   4.205  15.836 -0.1558  3.0808  1.4781
  156DOPC  C21318763   5.723   4.097  15.728  0.5784  0.2582 -0.6569
  156DOPC  H13R18764   5.732   4.167  15.642 -0.4886  1.0276 -0.1747
  156DOPC  H13S18765   5.615   4.069  15.730 -0.2221  3.0103  1.0363
  156DOPC  C21418766   5.806   3.974  15.703 -0.8409  0.6626 -0.0952
  156DOPC  H14R18767   5.791   3.889  15.772 -1.7031 -0.0331 -1.1076
  156DOPC  H14S18768   5.915   3.993  15.692 -0.3996 -1.9337 -0.9401
  156DOPC  C21518769   5.768   3.915  15.569  0.3847 -0.3656  0.2022
  156DOPC  H15R18770   5.788   3.980  15.481 -3.2024 -1.0203 -1.2571
  156DOPC  H15S18771   5.658   3.901  15.577  0.7498 -2.9933  1.9260
  156DOPC  C21618772   5.836   3.777  15.530 -0.6881 -0.4398 -0.7758
  156DOPC  H16R18773   5.767   3.710  15.473 -0.3718 -1.5296  0.0801
  156DOPC  H16S18774   5.852   3.726  15.628  0.1537 -2.4365 -1.8910
  156DOPC  C21718775   5.966   3.796  15.445  0.0341 -0.3084 -0.4411
  156DOPC  H17R18776   6.021   3.873  15.504 -1.6243  0.6116 -0.0207
  156DOPC  H17S18777   5.942   3.827  15.342 -0.2456 -0.4969 -0.4324
  156DOPC  C21818778   6.058   3.668  15.439 -0.5375  0.1805 -0.0526
  156DOPC  H18R18779   6.155   3.682  15.387  0.3334  1.9610  1.9149
  156DOPC  H18S18780   6.002   3.578  15.405 -2.0251  1.6799 -1.7321
  156DOPC  H18T18781   6.096   3.652  15.543 -2.2155 -1.8067  0.3360
  156DOPC   C3318782   6.583   4.554  16.190 -0.3644  0.3622  0.5696
  156DOPC   H3X18783   6.556   4.462  16.134 -0.9433 -0.4079  2.0704
  156DOPC   H3Y18784   6.665   4.531  16.261  1.2838  3.8415  0.0395
  156DOPC   C3418785   6.638   4.641  16.076  0.5277  0.1400  0.1323
  156DOPC   H4X18786   6.734   4.593  16.048 -0.6236 -1.6921 -0.8866
  156DOPC   H4Y18787   6.657   4.742  16.118  1.4553 -0.3459  0.9075
  156DOPC   C3518788   6.533   4.644  15.962  0.2560  0.2411  0.4219
  156DOPC   H5X18789   6.453   4.717  15.987 -0.7231 -0.9079  0.7743
  156DOPC   H5Y18790   6.491   4.541  15.953  0.8538  0.0775 -0.6519
  156DOPC   C3618791   6.597   4.680  15.825  0.4016  0.2106  0.4045
  156DOPC   H6X18792   6.604   4.790  15.818 -0.2358  0.4807  2.9678
  156DOPC   H6Y18793   6.697   4.631  15.822  0.3518  0.0961  0.6089
  156DOPC   C3718794   6.520   4.625  15.698 -0.0979  0.2065  0.4295
  156DOPC   H7X18795   6.503   4.516  15.710 -2.3923  0.1590 -2.1459
  156DOPC   H7Y18796   6.421   4.674  15.682  0.5016  2.1726  2.2803
  156DOPC   C3818797   6.604   4.638  15.573 -1.4838  1.0519  0.5644
  156DOPC   H8X18798   6.563   4.583  15.485  0.7884  2.1376 -1.2907
  156DOPC   H8Y18799   6.702   4.592  15.599 -2.1401 -1.0131 -0.3479
  156DOPC   C3918800   6.619   4.781  15.531 -0.2814 -0.8739 -0.2312
  156DOPC   H9X18801   6.552   4.857  15.573  0.2842  0.2853 -1.3737
  156DOPC  C31018802   6.717   4.827  15.442  0.8730  0.1317  0.1101
  156DOPC  H10X18803   6.710   4.933  15.414 -0.2620  0.1137  0.2510
  156DOPC  C31118804   6.826   4.751  15.377  0.1615 -0.6764 -0.0990
  156DOPC  H11X18805   6.842   4.650  15.421  0.2180 -1.3205 -1.5483
  156DOPC  H11Y18806   6.926   4.799  15.380 -0.5738  0.9107 -0.3043
  156DOPC  C31218807   6.818   4.719  15.228 -0.3546 -0.3027 -0.2193
  156DOPC  H12X18808   6.916   4.676  15.199  0.1450  0.0801  0.8694
  156DOPC  H12Y18809   6.791   4.810  15.170 -0.6752  0.0047  0.4099
  156DOPC  C31318810   6.723   4.605  15.189 -0.3598  0.1346 -0.0993
  156DOPC  H13X18811   6.726   4.534  15.274  0.8922 -0.0677 -0.2948
  156DOPC  H13Y18812   6.616   4.636  15.180 -0.6118 -0.3893  0.9919
  156DOPC  C31418813   6.767   4.533  15.057  0.2193 -0.2980 -0.1547
  156DOPC  H14X18814   6.875   4.510  15.067  0.5912  1.8103  1.2974
  156DOPC  H14Y18815   6.732   4.429  15.037  1.8688 -0.3779 -3.1284
  156DOPC  C31518816   6.752   4.621  14.934  1.0974 -0.7594  0.2489
  156DOPC  H15X18817   6.780   4.725  14.959 -0.5213 -0.1273 -0.4382
  156DOPC  H15Y18818   6.645   4.624  14.905  1.5176 -0.5984 -1.3543
  156DOPC  C31618819   6.826   4.567  14.806 -0.4319  0.0111  0.4276
  156DOPC  H16X18820   6.933   4.578  14.832  0.5109 -2.6990 -1.7807
  156DOPC  H16Y18821   6.790   4.463  14.797 -3.4640  1.0327 -0.5950
  156DOPC  C31718822   6.772   4.637  14.678 -0.8161  0.5158  0.1553
  156DOPC  H17X18823   6.662   4.624  14.681 -0.6527 -1.7393 -1.3195
  156DOPC  H17Y18824   6.798   4.745  14.687  2.9406 -0.0763 -1.4978
  156DOPC  C31818825   6.841   4.578  14.554  0.1423  0.4107  0.0488
  156DOPC  H18X18826   6.855   4.468  14.564 -1.8032  0.2644  2.0877
  156DOPC  H18Y18827   6.774   4.592  14.466 -1.9615  2.5263  1.8333
  156DOPC  H18Z18828   6.937   4.629  14.531  1.4745 -1.6962  0.6378
  157DOPC     N18829   6.487   0.124  17.240 -0.0992  0.2685 -0.5155
  157DOPC   C1218830   6.575   0.021  17.176  0.1672  1.0702  0.8169
  157DOPC  H12A18831   6.534  -0.074  17.208  0.9611  0.5905  0.4449
  157DOPC  H12B18832   6.676   0.024  17.214  0.3706 -0.6108  0.4776
  157DOPC   C1318833   6.346   0.087  17.234 -0.1611  0.0742 -0.5082
  157DOPC  H13A18834   6.301   0.177  17.275  2.8417  1.3103  0.3799
  157DOPC  H13B18835   6.309   0.076  17.133  0.2209  1.1715 -0.7887
  157DOPC  H13C18836   6.324   0.003  17.298 -1.7360  1.9161  1.5307
  157DOPC   C1418837   6.502   0.252  17.168  0.2246 -0.1354  0.1634
  157DOPC  H14A18838   6.445   0.328  17.219  2.3201  2.0554 -0.5568
  157DOPC  H14B18839   6.605   0.284  17.170 -0.0931  1.4129 -2.6707
  157DOPC  H14C18840   6.482   0.250  17.062 -0.1111 -0.8850  0.2378
  157DOPC   C1518841   6.532   0.156  17.381  0.6382 -0.2804 -0.2491
  157DOPC  H15A18842   6.631   0.198  17.390 -0.2072  1.5447  1.2102
  157DOPC  H15B18843   6.536   0.068  17.442 -1.5589 -0.7380 -0.6613
  157DOPC  H15C18844   6.459   0.226  17.420 -0.4229 -0.3514 -1.9817
  157DOPC   C1118845   6.574   0.022  17.022  0.8057  0.4373  0.6615
  157DOPC  H11A18846   6.473  -0.000  16.981  1.6612 -3.8917  0.4497
  157DOPC  H11B18847   6.619   0.120  16.992  0.7867  0.2813  0.1056
  157DOPC     P18848   6.779  -0.085  16.901  0.0888 -0.3812  0.3337
  157DOPC   O1318849   6.844  -0.221  16.891 -1.0111 -0.1446 -0.4812
  157DOPC   O1418850   6.867   0.019  16.964  0.3172 -0.6393 -0.6749
  157DOPC   O1218851   6.653  -0.092  16.992 -0.3262 -0.2314 -0.5051
  157DOPC   O1118852   6.738  -0.026  16.759  0.3313 -0.1032 -0.2544
  157DOPC    C118853   6.626  -0.096  16.687 -0.0034 -0.2279  0.2475
  157DOPC    HA18854   6.535  -0.109  16.748  0.5479 -2.1248  0.7270
  157DOPC    HB18855   6.657  -0.200  16.664 -1.3594 -0.9092  1.3766
  157DOPC    C218856   6.587  -0.011  16.559  0.2366 -0.7812 -0.1265
  157DOPC    HS18857   6.483  -0.037  16.528 -0.2469  1.7349 -0.8340
  157DOPC   O2118858   6.679  -0.022  16.452 -0.2453  0.1960  0.0921
  157DOPC   C2118859   6.677  -0.138  16.381  0.0798  0.6854  0.5346
  157DOPC   O2218860   6.591  -0.222  16.398 -0.0193  0.5049 -0.1324
  157DOPC   C2218861   6.782  -0.126  16.268 -0.1635 -0.2101  0.6753
  157DOPC   H2R18862   6.831  -0.225  16.262  1.1890  0.5199 -1.4762
  157DOPC   H2S18863   6.861  -0.050  16.290  2.5049 -2.4699 -0.5039
  157DOPC    C318864   6.571   0.140  16.597  0.5467 -0.4870 -0.0006
  157DOPC    HX18865   6.667   0.174  16.640  0.9032  0.6797 -1.6115
  157DOPC    HY18866   6.488   0.141  16.671  0.1207 -0.5565 -0.4678
  157DOPC   O3118867   6.538   0.220  16.477 -0.2114  0.1444  0.8329
  157DOPC   C3118868   6.428   0.285  16.481  0.3715 -0.1009  0.7017
  157DOPC   O3218869   6.355   0.306  16.580  0.3129 -0.0689 -0.1584
  157DOPC   C3218870   6.393   0.333  16.337  0.4901 -0.2499 -0.6177
  157DOPC   H2X18871   6.486   0.379  16.298  0.8012  0.3371  0.7366
  157DOPC   H2Y18872   6.353   0.258  16.266 -2.2737 -1.6125  2.1385
  157DOPC   C2318873   6.715  -0.104  16.134  0.3240  0.5924 -0.0331
  157DOPC   H3R18874   6.644  -0.185  16.107  0.4139  0.0969  1.1704
  157DOPC   H3S18875   6.801  -0.075  16.070  1.1419  1.3593  1.3563
  157DOPC   C2418876   6.618   0.012  16.131 -0.0255 -0.4960  0.4065
  157DOPC   H4R18877   6.670   0.108  16.147  0.2061 -0.2076 -1.8074
  157DOPC   H4S18878   6.541   0.000  16.210 -0.0689  0.9241  0.5951
  157DOPC   C2518879   6.536   0.021  15.997 -0.5811  0.5157 -0.0896
  157DOPC   H5R18880   6.461  -0.061  15.987  1.5415 -1.4120 -1.3388
  157DOPC   H5S18881   6.599   0.002  15.907 -0.8314  4.2664 -1.2266
  157DOPC   C2618882   6.486   0.163  15.985 -0.3995 -0.2941 -0.3911
  157DOPC   H6R18883   6.574   0.230  15.985 -0.6642  0.0652  0.4283
  157DOPC   H6S18884   6.421   0.195  16.069 -0.0674  2.0191 -0.9495
  157DOPC   C2718885   6.406   0.213  15.860  0.9299  0.7594 -0.8298
  157DOPC   H7R18886   6.428   0.140  15.779  0.7079 -1.9197  1.3905
  157DOPC   H7S18887   6.444   0.312  15.828  1.5137  1.3655  1.5050
  157DOPC   C2818888   6.249   0.205  15.879  0.2176 -0.1991  0.9713
  157DOPC   H8R18889   6.225   0.274  15.963 -0.7037  1.1453 -0.3355
  157DOPC   H8S18890   6.215   0.101  15.894 -3.0357  0.2922 -1.7517
  157DOPC   C2918891   6.180   0.258  15.754 -0.8284  0.1624  0.0281
  157DOPC   H9R18892   6.176   0.368  15.755  0.8711  0.2527  0.6626
  157DOPC  C21018893   6.147   0.194  15.647 -0.3346 -0.2830  0.0886
  157DOPC  H10R18894   6.106   0.256  15.567  1.5268 -0.0671 -0.7665
  157DOPC  C21118895   6.166   0.050  15.602  0.0140 -0.0177 -0.6588
  157DOPC  H11R18896   6.257   0.013  15.653  0.2073  2.2661  0.7830
  157DOPC  H11S18897   6.173   0.061  15.492  0.9268  5.1742 -0.3367
  157DOPC  C21218898   6.038  -0.042  15.621 -0.2886 -0.1464 -0.7049
  157DOPC  H12R18899   6.045  -0.114  15.536  1.7859 -0.6606 -0.1645
  157DOPC  H12S18900   5.945   0.012  15.594 -0.2029 -0.0412 -0.7911
  157DOPC  C21318901   6.028  -0.138  15.742  0.2651  0.2722 -0.3439
  157DOPC  H13R18902   5.922  -0.170  15.736  0.3038 -0.3751  1.5860
  157DOPC  H13S18903   6.029  -0.075  15.834 -1.0563 -0.4000  0.1649
  157DOPC  C21418904   6.129  -0.252  15.752  0.0708 -0.0857 -0.0942
  157DOPC  H14R18905   6.227  -0.205  15.777  0.5945 -1.9844  1.6790
  157DOPC  H14S18906   6.143  -0.297  15.651 -0.2116  1.5844 -0.9169
  157DOPC  C21518907   6.079  -0.366  15.845 -0.4196  0.6352 -0.1360
  157DOPC  H15R18908   5.982  -0.410  15.813  0.5832 -1.8237 -0.0630
  157DOPC  H15S18909   6.044  -0.315  15.937 -4.4213 -0.9225 -0.5733
  157DOPC  C21618910   6.169  -0.492  15.866 -0.4088  0.3248  0.0757
  157DOPC  H16R18911   6.187  -0.548  15.772  1.1895 -0.0619  0.5820
  157DOPC  H16S18912   6.111  -0.570  15.919 -0.2407  0.6039  0.6815
  157DOPC  C21718913   6.297  -0.469  15.938 -0.5253  0.1183  0.3335
  157DOPC  H17R18914   6.366  -0.409  15.875  0.6039  0.3091  1.7086
  157DOPC  H17S18915   6.344  -0.566  15.966 -2.1811 -1.1589 -1.0471
  157DOPC  C21818916   6.292  -0.394  16.071  0.0313 -0.0333 -0.7478
  157DOPC  H18R18917   6.244  -0.294  16.063  1.8832  0.9283 -0.3635
  157DOPC  H18S18918   6.396  -0.368  16.101  0.0930 -0.6488 -0.4174
  157DOPC  H18T18919   6.240  -0.449  16.153  0.6662 -0.3710 -0.5682
  157DOPC   C3318920   6.285   0.444  16.335  0.2943  0.6034  0.2683
  157DOPC   H3X18921   6.305   0.515  16.419 -2.5068  1.5234  0.2727
  157DOPC   H3Y18922   6.181   0.406  16.345  0.5730 -1.6046 -3.4864
  157DOPC   C3418923   6.283   0.519  16.203  0.1864  0.1539  0.4847
  157DOPC   H4X18924   6.239   0.458  16.121  2.3460  0.3038 -0.8644
  157DOPC   H4Y18925   6.384   0.555  16.174  0.1457 -0.0485  0.0887
  157DOPC   C3518926   6.207   0.655  16.228  0.4399  0.0260  0.1512
  157DOPC   H5X18927   6.263   0.710  16.306  0.0320  1.6869 -0.6813
  157DOPC   H5Y18928   6.105   0.643  16.270  1.1321 -0.6857  1.6936
  157DOPC   C3618929   6.185   0.735  16.101  0.1542  0.2082  0.4352
  157DOPC   H6X18930   6.285   0.766  16.063  0.6364  0.0142  1.5112
  157DOPC   H6Y18931   6.129   0.671  16.029 -1.1504 -0.1297  1.7019
  157DOPC   C3718932   6.108   0.861  16.153 -0.0630  0.3417  0.1717
  157DOPC   H7X18933   6.007   0.826  16.185  0.4707 -1.2887  0.1404
  157DOPC   H7Y18934   6.155   0.896  16.248 -1.1642  0.7495  0.5873
  157DOPC   C3818935   6.109   0.970  16.044  0.5329 -0.8582 -0.3161
  157DOPC   H8X18936   6.065   0.934  15.949 -1.0351  0.1324 -0.0098
  157DOPC   H8Y18937   6.208   1.005  16.009 -0.2543  0.9767 -0.8337
  157DOPC   C3918938   6.028   1.091  16.088 -0.3667  0.1526 -0.1638
  157DOPC   H9X18939   6.045   1.113  16.194 -0.1762  2.8711 -0.6885
  157DOPC  C31018940   5.917   1.133  16.028 -0.1311  0.2791 -0.8392
  157DOPC  H10X18941   5.897   1.238  16.053 -0.2830  0.0949 -0.1668
  157DOPC  C31118942   5.838   1.071  15.913  0.7541 -0.7387  0.1772
  157DOPC  H11X18943   5.733   1.102  15.932  1.3152  0.4461  1.5106
  157DOPC  H11Y18944   5.861   0.962  15.905  0.9287 -0.7049  0.2211
  157DOPC  C31218945   5.896   1.123  15.777  0.1908 -0.2474  0.1689
  157DOPC  H12X18946   6.002   1.089  15.782 -0.5148 -2.6284 -0.0157
  157DOPC  H12Y18947   5.898   1.234  15.773  1.8427 -0.2624 -0.2561
  157DOPC  C31318948   5.839   1.072  15.640 -0.2755 -0.8581 -0.2933
  157DOPC  H13X18949   5.841   0.962  15.651  1.7541 -0.7754  0.5622
  157DOPC  H13Y18950   5.735   1.107  15.621  0.8520  1.0434 -3.8472
  157DOPC  C31418951   5.921   1.107  15.526  0.4995  0.0598  0.6965
  157DOPC  H14X18952   5.919   1.215  15.501  4.0573  0.4296  1.4537
  157DOPC  H14Y18953   6.030   1.088  15.543  0.7337  0.8782  0.1433
  157DOPC  C31518954   5.882   1.028  15.404 -0.2995 -0.0965 -0.0690
  157DOPC  H15X18955   5.778   1.062  15.384 -0.1672 -0.1203 -0.8559
  157DOPC  H15Y18956   5.883   0.921  15.435  0.6842 -0.7585 -2.1723
  157DOPC  C31618957   5.964   1.050  15.276 -0.1682  0.2984  0.5976
  157DOPC  H16X18958   5.996   1.155  15.261  2.0540 -0.5313 -0.9326
  157DOPC  H16Y18959   6.056   0.989  15.264 -1.0204 -0.6582 -1.7252
  157DOPC  C31718960   5.888   1.007  15.152  0.2232 -1.1359 -0.1478
  157DOPC  H17X18961   5.788   1.049  15.177  0.3284 -1.0038  0.0596
  157DOPC  H17Y18962   5.914   1.056  15.056 -0.6377 -0.3340  0.0182
  157DOPC  C31818963   5.876   0.854  15.133 -0.0020  0.2743  0.3820
  157DOPC  H18X18964   5.772   0.814  15.129  0.4503 -0.8692 -0.3845
  157DOPC  H18Y18965   5.925   0.816  15.041 -0.6733 -0.1377  0.1806
  157DOPC  H18Z18966   5.932   0.803  15.215  2.0336  0.3901 -0.8771
  158DOPC     N18967   5.747   6.044  16.900  0.2225  0.1678 -0.4383
  158DOPC   C1218968   5.700   6.135  16.792  0.4451  0.3617  0.3150
  158DOPC  H12A18969   5.779   6.163  16.723  0.2508  1.0613  0.3670
  158DOPC  H12B18970   5.674   6.228  16.839  0.8170  1.1979 -1.0496
  158DOPC   C1318971   5.633   6.026  17.002 -0.0892  0.0077 -0.6178
  158DOPC  H13A18972   5.558   5.970  16.948  0.6482  0.0935 -1.7686
  158DOPC  H13B18973   5.666   5.968  17.087 -0.5620  0.2399 -0.2716
  158DOPC  H13C18974   5.596   6.114  17.053  0.2305 -0.0974 -0.2023
  158DOPC   C1418975   5.864   6.112  16.969 -0.6933 -0.1122  0.3682
  158DOPC  H14A18976   5.902   6.044  17.044  1.4893  0.1437 -0.4537
  158DOPC  H14B18977   5.940   6.133  16.895 -0.4855 -1.8528  0.0289
  158DOPC  H14C18978   5.831   6.198  17.025 -2.5119 -0.3568 -0.2540
  158DOPC   C1518979   5.792   5.916  16.842  0.1149 -0.0639 -0.1376
  158DOPC  H15A18980   5.829   5.847  16.916 -0.9930 -2.7571 -1.9140
  158DOPC  H15B18981   5.853   5.922  16.753 -0.6937 -0.5715 -0.7372
  158DOPC  H15C18982   5.702   5.860  16.820  0.0442 -0.3475  0.8348
  158DOPC   C1118983   5.590   6.081  16.694  0.4694  0.1721  0.2536
  158DOPC  H11A18984   5.591   6.144  16.602 -1.3204 -1.3894 -0.9027
  158DOPC  H11B18985   5.623   5.977  16.671 -2.1309 -0.5867 -0.3532
  158DOPC     P18986   5.387   6.198  16.830 -0.0570 -0.6332  0.5057
  158DOPC   O1318987   5.476   6.319  16.827  0.1023  0.2816  0.4157
  158DOPC   O1418988   5.330   6.155  16.957 -0.5479  0.1404  0.0552
  158DOPC   O1218989   5.452   6.072  16.748  0.3380 -0.5984  0.1489
  158DOPC   O1118990   5.264   6.231  16.743 -0.5522  0.0246 -0.1185
  158DOPC    C118991   5.172   6.140  16.683 -0.3493 -0.8423  0.2788
  158DOPC    HA18992   5.066   6.156  16.712 -0.6512 -0.0457 -1.1800
  158DOPC    HB18993   5.201   6.035  16.702 -2.2821 -1.4961 -0.2686
  158DOPC    C218994   5.173   6.174  16.532 -0.3676  0.2372  0.0794
  158DOPC    HS18995   5.094   6.114  16.482 -0.6513  0.6528  0.0249
  158DOPC   O2118996   5.299   6.142  16.471  0.1418  0.0842 -0.0956
  158DOPC   C2118997   5.312   6.015  16.436  0.2900 -0.3271 -0.3074
  158DOPC   O2218998   5.237   5.924  16.466 -0.3047  0.0538  0.0715
  158DOPC   C2218999   5.448   6.002  16.365 -0.2946  0.0609  0.2335
  158DOPC   H2R19000   5.509   5.924  16.416  1.4928  1.6022  0.5736
  158DOPC   H2S19001   5.500   6.099  16.353  0.2124 -0.0478  1.4000
  158DOPC    C319002   5.144   6.322  16.499 -0.1476 -0.1574  0.6785
  158DOPC    HX19003   5.219   6.394  16.539 -1.7140  3.0959 -1.8503
  158DOPC    HY19004   5.051   6.356  16.548 -0.7778  1.0371 -1.2523
  158DOPC   O3119005   5.155   6.343  16.356 -0.6203 -0.5142 -0.8951
  158DOPC   C3119006   5.046   6.317  16.291  0.0983  0.0260  0.0984
  158DOPC   O3219007   4.944   6.277  16.339  0.2308  0.4102  0.8401
  158DOPC   C3219008   5.065   6.356  16.144 -0.2893 -0.0141 -0.4046
  158DOPC   H2X19009   5.116   6.455  16.135  0.8687 -0.5091  0.4260
  158DOPC   H2Y19010   5.126   6.281  16.088  1.6815  0.6977  0.6992
  158DOPC   C2319011   5.437   5.925  16.233  0.3451  0.0893 -0.2775
  158DOPC   H3R19012   5.387   5.827  16.252 -0.2639  0.1436 -1.5384
  158DOPC   H3S19013   5.534   5.905  16.183  2.1910  1.2091  2.6180
  158DOPC   C2419014   5.349   6.014  16.139 -0.4782  0.2175  0.3359
  158DOPC   H4R19015   5.393   6.116  16.145 -0.2666  0.0530  2.1254
  158DOPC   H4S19016   5.240   6.005  16.162  0.2191 -4.2758  3.0423
  158DOPC   C2519017   5.372   5.984  15.993  0.1411  0.4607 -0.8856
  158DOPC   H5R19018   5.347   5.879  15.966 -0.9943  0.5279 -0.1413
  158DOPC   H5S19019   5.483   5.983  15.984  0.0637  1.4141 -2.3291
  158DOPC   C2619020   5.305   6.083  15.891  0.1939  0.3264 -0.1545
  158DOPC   H6R19021   5.349   6.180  15.924  2.6133 -0.7960  0.1767
  158DOPC   H6S19022   5.195   6.084  15.906 -0.1548  0.8087 -2.3705
  158DOPC   C2719023   5.348   6.041  15.748 -0.0266  0.3727 -0.2704
  158DOPC   H7R19024   5.304   5.942  15.722 -1.3452  0.4073  1.7114
  158DOPC   H7S19025   5.459   6.032  15.736  0.3157  1.9967  1.2918
  158DOPC   C2819026   5.292   6.132  15.634 -0.9065  0.0734 -0.8992
  158DOPC   H8R19027   5.182   6.135  15.653 -0.9969  0.1517 -1.4212
  158DOPC   H8S19028   5.302   6.073  15.540  0.8344 -0.8219 -0.1930
  158DOPC   C2919029   5.340   6.273  15.654  0.1505 -0.8508 -0.5270
  158DOPC   H9R19030   5.310   6.325  15.746  0.2380  1.5881 -1.7740
  158DOPC  C21019031   5.388   6.360  15.559  0.6286  0.9833  0.3038
  158DOPC  H10R19032   5.417   6.464  15.578 -0.9384  1.3865  0.6624
  158DOPC  C21119033   5.394   6.306  15.420 -0.2639  0.0630  0.4399
  158DOPC  H11R19034   5.402   6.196  15.409  2.0423  0.2091  0.1404
  158DOPC  H11S19035   5.489   6.340  15.371  0.6245 -0.8341  1.4961
  158DOPC  C21219036   5.276   6.356  15.338  0.2531 -0.1498  0.0529
  158DOPC  H12R19037   5.282   6.464  15.313  2.3736 -0.5169 -1.3765
  158DOPC  H12S19038   5.183   6.340  15.396 -0.1347  0.7861 -0.3004
  158DOPC  C21319039   5.259   6.311  15.185  0.0966  0.0047 -0.0388
  158DOPC  H13R19040   5.353   6.316  15.126  1.0391  0.6253  1.4558
  158DOPC  H13S19041   5.190   6.386  15.142  1.6233  1.7207  0.3676
  158DOPC  C21419042   5.197   6.171  15.173  0.8616  0.1428 -0.7432
  158DOPC  H14R19043   5.102   6.194  15.227  0.6222 -0.1945 -1.0154
  158DOPC  H14S19044   5.252   6.094  15.230 -0.0747  0.7032  1.0150
  158DOPC  C21519045   5.148   6.129  15.037 -0.7056 -0.2678 -0.1535
  158DOPC  H15R19046   5.243   6.111  14.983  0.9201  0.0596  2.4103
  158DOPC  H15S19047   5.086   6.213  14.999  1.6014  2.2326  1.2659
  158DOPC  C21619048   5.061   6.001  15.039 -0.6463  0.8762  0.1254
  158DOPC  H16R19049   4.984   6.028  15.113 -2.4398  0.3151 -1.4606
  158DOPC  H16S19050   5.126   5.918  15.074  2.2012  3.3455  1.1704
  158DOPC  C21719051   4.984   5.954  14.916 -0.1652 -0.4995  0.1390
  158DOPC  H17R19052   4.918   5.870  14.944 -1.2395  0.0855 -0.5621
  158DOPC  H17S19053   5.057   5.924  14.838 -0.4063 -0.5220 -0.0815
  158DOPC  C21819054   4.888   6.061  14.861 -0.0971 -0.0509 -1.2710
  158DOPC  H18R19055   4.812   6.085  14.938 -0.3094 -1.3547 -1.0558
  158DOPC  H18S19056   4.833   6.029  14.770 -0.2374 -0.3386 -1.0871
  158DOPC  H18T19057   4.950   6.150  14.836  1.2067 -0.3242  0.8023
  158DOPC   C3319058   4.925   6.364  16.079 -0.5162  0.5395 -0.0336
  158DOPC   H3X19059   4.860   6.422  16.147 -0.6711  0.0908  0.2016
  158DOPC   H3Y19060   4.879   6.263  16.075  0.5707  0.0423 -3.6563
  158DOPC   C3419061   4.920   6.426  15.940  0.3758 -0.1576 -0.2917
  158DOPC   H4X19062   4.963   6.528  15.951 -1.5219  0.6365  0.0865
  158DOPC   H4Y19063   4.819   6.446  15.900 -0.2022 -1.0345  0.6629
  158DOPC   C3519064   5.007   6.360  15.823 -0.2258  0.1264  0.0977
  158DOPC   H5X19065   4.968   6.258  15.803  1.1589 -0.1437 -1.4390
  158DOPC   H5Y19066   5.109   6.350  15.868 -0.4432  1.9210  1.1014
  158DOPC   C3619067   5.009   6.449  15.694  0.2799  0.7952 -0.6152
  158DOPC   H6X19068   4.995   6.554  15.728 -1.1832  1.1446 -2.1304
  158DOPC   H6Y19069   5.100   6.447  15.630 -0.6990  0.2216 -2.0430
  158DOPC   C3719070   4.885   6.397  15.600  0.1774  0.0403 -0.7364
  158DOPC   H7X19071   4.932   6.310  15.548 -1.1515 -1.9765  1.2369
  158DOPC   H7Y19072   4.804   6.371  15.672  0.8689  0.9499  0.4147
  158DOPC   C3819073   4.825   6.500  15.499  0.1544  0.1643  0.6661
  158DOPC   H8X19074   4.746   6.555  15.555 -2.0157 -3.2913  1.2852
  158DOPC   H8Y19075   4.767   6.439  15.427  1.2677  0.7213 -0.7541
  158DOPC   C3919076   4.916   6.590  15.424  0.1301  0.1787  0.1263
  158DOPC   H9X19077   5.000   6.537  15.376 -2.2032 -1.6678 -2.2279
  158DOPC  C31019078   4.905   6.725  15.408 -0.0774  0.5056  0.2908
  158DOPC  H10X19079   4.992   6.774  15.362 -0.8307  1.4058 -0.1990
  158DOPC  C31119080   4.806   6.819  15.476 -0.2560  0.0993  0.2467
  158DOPC  H11X19081   4.846   6.916  15.511 -0.5928  0.4535 -0.3304
  158DOPC  H11Y19082   4.765   6.766  15.564  0.9783 -1.4254 -0.0585
  158DOPC  C31219083   4.685   6.854  15.376 -0.8184  0.1456  0.3615
  158DOPC  H12X19084   4.642   6.768  15.320 -0.2784  1.1422 -1.6898
  158DOPC  H12Y19085   4.724   6.912  15.289  0.4848 -2.5253 -0.9513
  158DOPC  C31319086   4.564   6.916  15.433 -0.2714  0.0898 -0.2137
  158DOPC  H13X19087   4.489   6.921  15.351  0.3631  0.7832 -0.7655
  158DOPC  H13Y19088   4.531   6.867  15.527 -1.3136  2.5268  0.7636
  158DOPC  C31419089   4.593   7.065  15.471 -0.5559  0.7070  0.2439
  158DOPC  H14X19090   4.676   7.078  15.543  0.5447 -1.8586 -0.4432
  158DOPC  H14Y19091   4.629   7.109  15.376  0.0101  1.8411  0.9735
  158DOPC  C31519092   4.467   7.136  15.531  0.0410  0.0003 -0.1698
  158DOPC  H15X19093   4.445   7.080  15.624 -1.7918 -0.2130 -0.6859
  158DOPC  H15Y19094   4.373   7.131  15.470 -1.3418 -1.3198  1.9361
  158DOPC  C31619095   4.491   7.280  15.571 -0.2879  0.2106 -0.6849
  158DOPC  H16X19096   4.578   7.288  15.640 -0.8992  2.4979 -0.1109
  158DOPC  H16Y19097   4.534   7.335  15.485 -0.4270  0.4708 -0.5921
  158DOPC  C31719098   4.378   7.352  15.654 -0.2502  0.5421  0.0685
  158DOPC  H17X19099   4.319   7.267  15.694  3.3427 -2.1908  0.1231
  158DOPC  H17Y19100   4.428   7.413  15.732  2.5878 -0.2269 -1.0021
  158DOPC  C31819101   4.292   7.428  15.552 -0.7283 -0.0830 -0.1881
  158DOPC  H18X19102   4.358   7.512  15.522  0.0498 -0.2148  1.0717
  158DOPC  H18Y19103   4.277   7.369  15.459  2.1704  1.3007 -1.6561
  158DOPC  H18Z19104   4.199   7.476  15.590  0.2013  1.3256  0.3995
  159DOPC     N19105   6.659   1.434  16.880  0.4832 -0.3810 -0.1688
  159DOPC   C1219106   6.573   1.319  16.941 -0.5298 -0.1680 -0.0574
  159DOPC  H12A19107   6.545   1.344  17.042  0.7697  0.2438  0.2229
  159DOPC  H12B19108   6.633   1.230  16.947  0.4426  0.3732 -1.3088
  159DOPC   C1319109   6.782   1.447  16.959  0.1712 -0.8376 -0.4379
  159DOPC  H13A19110   6.849   1.363  16.957  0.1137 -0.9212  0.5433
  159DOPC  H13B19111   6.833   1.537  16.927  0.7350 -1.3782 -1.0877
  159DOPC  H13C19112   6.759   1.452  17.064 -0.1130 -0.0968 -0.5260
  159DOPC   C1419113   6.576   1.557  16.887  0.6617 -0.6502  0.8184
  159DOPC  H14A19114   6.498   1.555  16.812 -0.0699  0.0912  1.5426
  159DOPC  H14B19115   6.528   1.576  16.982  0.4385 -1.1156  0.8047
  159DOPC  H14C19116   6.629   1.648  16.864 -1.4662  0.4908  0.0907
  159DOPC   C1519117   6.689   1.401  16.737  0.0897 -1.2565  0.5050
  159DOPC  H15A19118   6.759   1.319  16.722  0.8316 -0.1037 -3.4757
  159DOPC  H15B19119   6.723   1.484  16.677 -1.6949  0.0474  1.2049
  159DOPC  H15C19120   6.601   1.363  16.689 -1.7835  2.3835  0.7676
  159DOPC   C1119121   6.436   1.280  16.875  0.4087 -0.6210 -0.0536
  159DOPC  H11A19122   6.370   1.215  16.936 -2.1905  1.9768  0.1570
  159DOPC  H11B19123   6.375   1.372  16.862  1.4146  0.0927  0.1354
  159DOPC     P19124   6.476   1.074  16.710  0.2477  0.2817 -0.0526
  159DOPC   O1319125   6.384   1.049  16.597 -0.6576 -0.1240  0.0940
  159DOPC   O1419126   6.443   0.997  16.837  0.0994 -0.1905  0.1957
  159DOPC   O1219127   6.460   1.227  16.746  0.0226 -0.3276 -0.9091
  159DOPC   O1119128   6.628   1.054  16.672 -0.7284 -0.0220 -0.1868
  159DOPC    C119129   6.704   1.111  16.570  0.6346  0.4808 -0.4580
  159DOPC    HA19130   6.797   1.149  16.617 -0.5432 -0.2040  2.7140
  159DOPC    HB19131   6.644   1.199  16.537 -2.3258  0.3352  3.6814
  159DOPC    C219132   6.746   1.014  16.461 -0.3516  0.2349 -0.1644
  159DOPC    HS19133   6.823   1.055  16.392  1.5087  1.0636  2.2659
  159DOPC   O2119134   6.633   0.963  16.387 -0.0998  0.1950 -0.0940
  159DOPC   C2119135   6.553   1.052  16.324 -0.3494  0.4457  0.1285
  159DOPC   O2219136   6.571   1.171  16.315 -0.6872  0.5896 -0.1012
  159DOPC   C2219137   6.453   0.971  16.246 -0.1662 -0.6658 -0.7237
  159DOPC   H2R19138   6.360   1.030  16.236  0.0486  0.2040  1.6595
  159DOPC   H2S19139   6.425   0.877  16.300  0.2707  0.1145  0.9370
  159DOPC    C319140   6.830   0.895  16.532 -0.2055 -0.1917 -0.3261
  159DOPC    HX19141   6.790   0.844  16.622  1.7904 -2.3187 -0.5489
  159DOPC    HY19142   6.920   0.945  16.572  0.2897 -0.0411 -1.5669
  159DOPC   O3119143   6.884   0.803  16.429 -0.0678 -0.1407  0.1327
  159DOPC   C3119144   6.816   0.687  16.423  0.1034 -0.5579 -0.3604
  159DOPC   O3219145   6.716   0.664  16.486  0.5154  0.0272 -0.7967
  159DOPC   C3219146   6.875   0.591  16.328 -0.0869 -0.0564 -0.0840
  159DOPC   H2X19147   6.863   0.635  16.227  1.6203 -0.4184 -0.4794
  159DOPC   H2Y19148   6.979   0.558  16.347 -0.3752 -1.4270 -0.7530
  159DOPC   C2319149   6.504   0.941  16.105 -0.0263  0.5748  0.1022
  159DOPC   H3R19150   6.580   1.016  16.076 -1.0539  1.4626 -0.3936
  159DOPC   H3S19151   6.418   0.947  16.035 -1.2904  0.7798  1.6063
  159DOPC   C2419152   6.588   0.808  16.077  0.8725 -0.1264  0.1946
  159DOPC   H4R19153   6.532   0.718  16.109 -0.2811  0.9096  1.2362
  159DOPC   H4S19154   6.675   0.820  16.145  0.3464 -3.1873  1.5620
  159DOPC   C2519155   6.620   0.790  15.921  0.8909 -0.0647  0.3686
  159DOPC   H5R19156   6.522   0.787  15.868 -0.5182  2.1874  2.6199
  159DOPC   H5S19157   6.674   0.694  15.907 -1.4828 -1.4965  0.5191
  159DOPC   C2619158   6.692   0.905  15.857 -0.0293  0.2521  0.7408
  159DOPC   H6R19159   6.800   0.904  15.884  0.0823  0.1526  0.3001
  159DOPC   H6S19160   6.656   1.006  15.885 -0.7090  0.2656 -0.1411
  159DOPC   C2719161   6.673   0.903  15.706  0.4471 -0.1266  0.7243
  159DOPC   H7R19162   6.739   0.975  15.653 -0.2922 -0.4799 -0.7518
  159DOPC   H7S19163   6.569   0.940  15.691  0.7451 -0.3252 -2.5213
  159DOPC   C2819164   6.689   0.764  15.648 -0.2738  0.1998 -0.5909
  159DOPC   H8R19165   6.617   0.688  15.684 -2.8151  2.8852  0.4194
  159DOPC   H8S19166   6.789   0.743  15.692 -0.3134  0.7143 -0.2436
  159DOPC   C2919167   6.696   0.761  15.494  0.1762 -0.1318  0.4269
  159DOPC   H9R19168   6.612   0.803  15.436  0.8506  0.1083 -0.3963
  159DOPC  C21019169   6.810   0.763  15.423 -0.4444  0.6788 -0.6087
  159DOPC  H10R19170   6.800   0.761  15.313  1.4262 -2.0784 -0.8107
  159DOPC  C21119171   6.948   0.746  15.480  0.2499  0.8446  0.6706
  159DOPC  H11R19172   6.955   0.822  15.561 -0.0306  0.8174  0.7211
  159DOPC  H11S19173   7.021   0.781  15.404 -2.1584  0.3069 -2.0737
  159DOPC  C21219174   6.988   0.602  15.529 -0.2987 -0.3669  0.8995
  159DOPC  H12R19175   7.007   0.534  15.443  0.8949  1.2316 -0.1744
  159DOPC  H12S19176   6.905   0.561  15.589 -2.5693  1.7262 -0.6269
  159DOPC  C21319177   7.107   0.614  15.620  0.3073  0.5140 -0.9328
  159DOPC  H13R19178   7.175   0.685  15.570  0.8584 -0.8910 -2.2803
  159DOPC  H13S19179   7.156   0.515  15.629 -1.9424 -0.9010 -2.8391
  159DOPC  C21419180   7.088   0.649  15.768  0.0198  0.3016 -0.0022
  159DOPC  H14R19181   7.041   0.564  15.822  2.1538 -2.1324 -1.7462
  159DOPC  H14S19182   7.033   0.745  15.781  0.2334  0.2454  1.6337
  159DOPC  C21519183   7.229   0.668  15.833  0.0592  0.2389 -0.2345
  159DOPC  H15R19184   7.295   0.728  15.768  1.2305 -2.6378 -1.8939
  159DOPC  H15S19185   7.275   0.569  15.855 -1.3071 -0.1639  1.0675
  159DOPC  C21619186   7.206   0.712  15.978 -0.3843  0.3941  0.3319
  159DOPC  H16R19187   7.142   0.636  16.028 -1.8785  0.6928 -1.0806
  159DOPC  H16S19188   7.162   0.813  15.984 -1.2187 -0.0298  1.8354
  159DOPC  C21719189   7.337   0.704  16.065 -0.2416 -0.9352  0.0004
  159DOPC  H17R19190   7.403   0.776  16.013 -0.8977 -0.4742 -0.2064
  159DOPC  H17S19191   7.386   0.605  16.060  0.6828 -0.5321  0.9449
  159DOPC  C21819192   7.333   0.754  16.210 -0.0074  0.9065  0.6147
  159DOPC  H18R19193   7.427   0.720  16.258 -0.9948 -2.5467  0.3819
  159DOPC  H18S19194   7.246   0.716  16.268 -0.8155 -0.9534 -1.6759
  159DOPC  H18T19195   7.337   0.865  16.212  2.1459  0.8707  0.7536
  159DOPC   C3319196   6.791   0.460  16.328 -0.3159  0.2597 -0.2970
  159DOPC   H3X19197   6.684   0.477  16.305 -0.6926  0.0209  1.1777
  159DOPC   H3Y19198   6.808   0.418  16.430  0.1438  0.3506 -0.3350
  159DOPC   C3419199   6.835   0.356  16.227 -0.7416 -0.3163  0.5683
  159DOPC   H4X19200   6.787   0.259  16.251 -1.0434 -0.1352  0.7094
  159DOPC   H4Y19201   6.940   0.332  16.250  0.3766  1.5700 -2.0278
  159DOPC   C3519202   6.813   0.397  16.076 -0.2162 -0.5074  0.0816
  159DOPC   H5X19203   6.856   0.498  16.058  0.6789 -1.1171 -1.2989
  159DOPC   H5Y19204   6.702   0.401  16.066 -0.2307  1.1130  0.6342
  159DOPC   C3619205   6.859   0.291  15.975  0.0171 -0.6311  0.3931
  159DOPC   H6X19206   6.968   0.308  15.962 -0.1163 -0.1687 -0.1555
  159DOPC   H6Y19207   6.830   0.191  16.013 -1.0933 -1.3109 -2.0552
  159DOPC   C3719208   6.803   0.311  15.830  0.1586 -0.7668  0.1477
  159DOPC   H7X19209   6.692   0.309  15.818  0.0115  1.5141  0.6317
  159DOPC   H7Y19210   6.842   0.411  15.802 -0.3219 -0.7126 -0.3561
  159DOPC   C3819211   6.863   0.212  15.725  0.7708  0.1549 -0.6441
  159DOPC   H8X19212   6.973   0.228  15.712  1.0911 -1.7334 -0.6154
  159DOPC   H8Y19213   6.818   0.233  15.626 -0.0816 -1.7299 -0.6906
  159DOPC   C3919214   6.815   0.069  15.757 -0.0369  0.7727  0.5362
  159DOPC   H9X19215   6.706   0.057  15.749 -0.2207  0.6875  2.6093
  159DOPC  C31019216   6.888  -0.034  15.801 -0.5886 -0.5290  0.2712
  159DOPC  H10X19217   6.844  -0.133  15.817  1.8365 -1.5206  1.2098
  159DOPC  C31119218   7.037  -0.022  15.850 -0.3201  0.1576 -0.5706
  159DOPC  H11X19219   7.044  -0.099  15.930 -2.2257 -1.8431 -2.2068
  159DOPC  H11Y19220   7.060   0.080  15.887  0.2154 -0.4089  0.7021
  159DOPC  C31219221   7.145  -0.057  15.743 -0.6536 -1.0762 -0.5351
  159DOPC  H12X19222   7.242  -0.058  15.796 -0.5005 -1.0291 -0.8115
  159DOPC  H12Y19223   7.146   0.036  15.683 -2.0953 -0.8310 -0.2216
  159DOPC  C31319224   7.131  -0.178  15.650  0.1188 -0.4062 -0.0392
  159DOPC  H13X19225   7.034  -0.166  15.596 -0.1086  1.0811  0.6263
  159DOPC  H13Y19226   7.207  -0.167  15.570  2.7893  0.7658  2.4567
  159DOPC  C31419227   7.146  -0.311  15.729  0.2227 -1.1011  0.4576
  159DOPC  H14X19228   7.249  -0.324  15.768 -0.2974 -1.7138  1.6796
  159DOPC  H14Y19229   7.076  -0.288  15.812  1.0163  1.3055  0.5589
  159DOPC  C31519230   7.091  -0.436  15.661  0.3284  0.0675  0.2228
  159DOPC  H15X19231   6.994  -0.400  15.621  0.8643  1.6901  0.3136
  159DOPC  H15Y19232   7.080  -0.522  15.731  2.1300 -0.2762  0.1375
  159DOPC  C31619233   7.175  -0.488  15.545  0.2349  0.8854  0.2720
  159DOPC  H16X19234   7.162  -0.417  15.460 -4.8926  1.5812  1.3246
  159DOPC  H16Y19235   7.282  -0.486  15.572  0.5479  1.5913 -0.9229
  159DOPC  C31719236   7.132  -0.631  15.508 -0.1246  0.7598 -0.0144
  159DOPC  H17X19237   7.221  -0.689  15.473  0.9984  3.0184 -1.1468
  159DOPC  H17Y19238   7.102  -0.682  15.602 -0.5858  2.2424  0.6561
  159DOPC  C31819239   7.015  -0.647  15.411  0.0396 -0.1680  0.2446
  159DOPC  H18X19240   6.957  -0.741  15.399 -0.0528  0.2220 -3.9406
  159DOPC  H18Y19241   6.942  -0.570  15.443 -1.3746 -0.4563 -2.0716
  159DOPC  H18Z19242   7.042  -0.626  15.305 -1.2052 -2.0015 -0.4771
  160DOPC     N19243   1.506   5.492  17.198  0.1915  0.1747 -0.1408
  160DOPC   C1219244   1.645   5.443  17.222 -0.1450  0.4022 -0.5991
  160DOPC  H12A19245   1.657   5.336  17.210  0.7033  0.4537 -0.3180
  160DOPC  H12B19246   1.646   5.458  17.329 -3.7565  0.1423 -0.4059
  160DOPC   C1319247   1.504   5.635  17.243 -0.3916  0.5657 -0.5359
  160DOPC  H13A19248   1.520   5.637  17.350  0.6627 -0.4316 -0.6630
  160DOPC  H13B19249   1.579   5.699  17.199 -3.2525  3.6815 -1.3121
  160DOPC  H13C19250   1.408   5.684  17.231  0.7383  2.3446 -3.3836
  160DOPC   C1419251   1.412   5.406  17.281 -0.4805  1.1170  0.0548
  160DOPC  H14A19252   1.435   5.437  17.382  2.9041  1.5648 -0.7120
  160DOPC  H14B19253   1.307   5.427  17.267 -0.0169  3.4260 -0.3877
  160DOPC  H14C19254   1.436   5.301  17.272  2.4772  1.7163  0.0412
  160DOPC   C1519255   1.467   5.477  17.055  0.2994 -0.0117  0.0548
  160DOPC  H15A19256   1.475   5.377  17.017 -3.9798  0.3201 -2.3177
  160DOPC  H15B19257   1.535   5.538  16.997 -0.1510 -1.2309 -1.8361
  160DOPC  H15C19258   1.362   5.501  17.045  0.2298 -0.6801 -0.9056
  160DOPC   C1119259   1.765   5.507  17.150  0.2948  0.5154 -0.4795
  160DOPC  H11A19260   1.850   5.472  17.211 -0.7277 -3.5010 -1.0560
  160DOPC  H11B19261   1.765   5.475  17.043 -1.5556  1.8196 -0.9234
  160DOPC     P19262   1.862   5.757  17.135 -0.2793 -0.2231  0.3129
  160DOPC   O1319263   1.918   5.766  17.271 -0.2143  0.0764  0.1929
  160DOPC   O1419264   1.804   5.880  17.075  0.3035 -0.2596 -0.5848
  160DOPC   O1219265   1.754   5.648  17.141 -0.3476  0.3718  0.0342
  160DOPC   O1119266   1.982   5.696  17.052  0.2151  0.0581 -0.4197
  160DOPC    C119267   2.045   5.771  16.952 -0.0159  0.6542  0.0195
  160DOPC    HA19268   2.149   5.731  16.950 -0.1637  0.2709 -0.6896
  160DOPC    HB19269   2.053   5.880  16.970 -0.3806  1.0880 -2.1046
  160DOPC    C219270   1.993   5.733  16.807  0.3886  0.4140  0.1025
  160DOPC    HS19271   2.075   5.753  16.735  0.4800 -0.5058 -0.0635
  160DOPC   O2119272   1.876   5.809  16.775  0.5069 -0.2892 -0.2724
  160DOPC   C2119273   1.895   5.944  16.756 -0.5980 -0.1785 -1.1080
  160DOPC   O2219274   2.002   5.996  16.748 -0.4177  0.1208  0.1132
  160DOPC   C2219275   1.756   6.009  16.761  0.4912  0.2177 -0.1304
  160DOPC   H2R19276   1.763   6.107  16.814 -0.4934  0.7185 -0.8761
  160DOPC   H2S19277   1.690   5.942  16.820 -1.0681  0.7887 -1.1619
  160DOPC    C319278   1.957   5.581  16.795 -1.2251 -0.8530  0.0785
  160DOPC    HX19279   1.867   5.561  16.857 -1.4613 -3.7472 -1.0784
  160DOPC    HY19280   2.047   5.524  16.824 -0.2264 -0.0758 -1.3716
  160DOPC   O3119281   1.937   5.553  16.655 -0.1711  1.0667  0.5342
  160DOPC   C3119282   1.817   5.518  16.612 -0.0782 -0.7389 -0.4594
  160DOPC   O3219283   1.713   5.498  16.672  0.2611 -0.3567  0.0032
  160DOPC   C3219284   1.834   5.503  16.461 -0.6368 -0.1004  0.4710
  160DOPC   H2X19285   1.858   5.398  16.433  0.5779  0.5349 -1.0362
  160DOPC   H2Y19286   1.735   5.525  16.415 -0.5186  3.0328  1.4996
  160DOPC   C2319287   1.693   6.017  16.621  0.1811  0.8931 -0.1307
  160DOPC   H3R19288   1.764   6.056  16.544  0.7636 -2.2561 -1.3316
  160DOPC   H3S19289   1.613   6.094  16.627 -0.7255 -0.1382  1.6916
  160DOPC   C2419290   1.613   5.885  16.582 -0.7517  0.3217  1.0271
  160DOPC   H4R19291   1.553   5.856  16.671 -2.2081  0.3530  0.0850
  160DOPC   H4S19292   1.682   5.798  16.572  0.3246  1.2173  0.3594
  160DOPC   C2519293   1.522   5.905  16.466 -0.2278 -0.0203  0.4411
  160DOPC   H5R19294   1.449   5.987  16.484  0.7301  1.1269 -0.7673
  160DOPC   H5S19295   1.467   5.810  16.453  0.0988 -0.1787  0.2061
  160DOPC   C2619296   1.590   5.932  16.328  0.5846 -0.4146 -0.0405
  160DOPC   H6R19297   1.674   5.862  16.311  1.0715  0.8154 -3.7944
  160DOPC   H6S19298   1.634   6.034  16.330 -2.7643  1.1504  2.2817
  160DOPC   C2719299   1.483   5.926  16.220  0.3219  0.4254  0.1810
  160DOPC   H7R19300   1.404   6.000  16.247  1.3741  1.4553  0.4991
  160DOPC   H7S19301   1.435   5.826  16.218  1.4532 -0.1176 -0.6037
  160DOPC   C2819302   1.534   5.953  16.084  0.4289 -0.3874  0.4262
  160DOPC   H8R19303   1.608   6.036  16.093 -0.6565  0.5508  1.0055
  160DOPC   H8S19304   1.453   5.994  16.021  0.5669 -0.2195  0.3548
  160DOPC   C2919305   1.596   5.833  16.020 -0.0928  0.7345  0.2831
  160DOPC   H9R19306   1.699   5.810  16.051 -0.1622  0.6723  0.4639
  160DOPC  C21019307   1.552   5.766  15.913 -0.0279 -0.4815 -0.8645
  160DOPC  H10R19308   1.607   5.678  15.876 -1.9049 -1.1310 -2.2280
  160DOPC  C21119309   1.424   5.792  15.838 -0.0309 -0.4102 -0.5493
  160DOPC  H11R19310   1.352   5.859  15.890 -1.5912 -3.5610  1.6983
  160DOPC  H11S19311   1.365   5.700  15.824  0.2040 -0.7793  0.7304
  160DOPC  C21219312   1.449   5.849  15.697  0.2919  0.5968  0.6025
  160DOPC  H12R19313   1.534   5.920  15.696  2.7110 -2.0286 -1.8924
  160DOPC  H12S19314   1.362   5.905  15.657  0.6930  1.5438  1.0194
  160DOPC  C21319315   1.494   5.746  15.586  0.0974 -0.3804 -0.0724
  160DOPC  H13R19316   1.570   5.671  15.616 -0.1131 -0.6041 -0.1026
  160DOPC  H13S19317   1.544   5.796  15.500  0.8319  1.2390  1.2317
  160DOPC  C21419318   1.369   5.668  15.543 -0.8432 -0.7699  0.0312
  160DOPC  H14R19319   1.284   5.738  15.532  0.0993  0.0799 -2.5966
  160DOPC  H14S19320   1.351   5.586  15.617  3.6611 -1.7712  0.3568
  160DOPC  C21519321   1.392   5.621  15.399  0.1370 -0.0347  0.0156
  160DOPC  H15R19322   1.482   5.555  15.400  0.4435  0.3876  0.8639
  160DOPC  H15S19323   1.403   5.715  15.341 -0.1703 -0.2316 -0.3627
  160DOPC  C21619324   1.271   5.548  15.348  0.7365  0.2031 -0.9529
  160DOPC  H16R19325   1.182   5.614  15.357  0.0201 -0.5565 -2.2266
  160DOPC  H16S19326   1.247   5.460  15.411  1.1014  2.9797  3.5325
  160DOPC  C21719327   1.289   5.498  15.209 -0.0055  0.5551 -0.0252
  160DOPC  H17R19328   1.188   5.459  15.184  0.5429 -0.9896  0.0568
  160DOPC  H17S19329   1.357   5.411  15.201 -1.0744 -0.1678 -1.9642
  160DOPC  C21819330   1.316   5.598  15.089 -0.1716  0.2202  0.2796
  160DOPC  H18R19331   1.422   5.630  15.098  0.9219 -2.7239 -0.7034
  160DOPC  H18S19332   1.256   5.690  15.101 -0.0441  0.3366  0.0332
  160DOPC  H18T19333   1.299   5.546  14.992 -0.2783  1.8578 -0.6276
  160DOPC   C3319334   1.941   5.598  16.398 -0.4786 -0.4049  0.5645
  160DOPC   H3X19335   2.037   5.580  16.450 -1.0541 -0.1152  1.7650
  160DOPC   H3Y19336   1.906   5.703  16.411  0.3719  0.0285 -0.4254
  160DOPC   C3419337   1.963   5.576  16.247 -0.3099 -0.3992  0.3302
  160DOPC   H4X19338   1.862   5.557  16.206  0.5474 -1.6607 -1.3015
  160DOPC   H4Y19339   2.021   5.482  16.234  1.7828  0.8309  0.3212
  160DOPC   C3519340   2.045   5.678  16.180 -0.4683  0.2012  0.2549
  160DOPC   H5X19341   2.137   5.688  16.242  0.3933 -0.1357 -0.9302
  160DOPC   H5Y19342   1.993   5.775  16.167  1.0977  1.1568  0.8814
  160DOPC   C3619343   2.094   5.631  16.043 -0.4363 -0.2600  0.0669
  160DOPC   H6X19344   2.165   5.712  16.014 -1.3692  0.3782 -0.5181
  160DOPC   H6Y19345   2.156   5.541  16.060  1.7923  0.6857 -2.3020
  160DOPC   C3719346   1.986   5.614  15.941  0.2916  0.0739 -0.1789
  160DOPC   H7X19347   1.921   5.527  15.967  1.5247 -0.9316 -0.3500
  160DOPC   H7Y19348   1.930   5.710  15.944  0.0849  0.0003 -1.2414
  160DOPC   C3819349   2.040   5.596  15.799 -0.4263  0.3471 -0.8637
  160DOPC   H8X19350   2.085   5.496  15.784  0.1227  0.8467 -2.7200
  160DOPC   H8Y19351   2.129   5.663  15.795 -0.6720  0.9421  1.7241
  160DOPC   C3919352   1.939   5.635  15.693  0.2222 -0.5971 -0.7553
  160DOPC   H9X19353   1.942   5.738  15.655 -2.0069 -0.6431 -1.1480
  160DOPC  C31019354   1.838   5.556  15.648  0.0966 -0.5126  0.0657
  160DOPC  H10X19355   1.780   5.609  15.571  2.1281  1.0092 -0.5089
  160DOPC  C31119356   1.789   5.417  15.682  0.6406 -0.1831 -0.7669
  160DOPC  H11X19357   1.685   5.428  15.719  0.9116  1.7072 -0.4358
  160DOPC  H11Y19358   1.843   5.357  15.758 -0.7140 -2.9985 -1.8897
  160DOPC  C31219359   1.777   5.329  15.550 -0.1559  0.1794 -0.0029
  160DOPC  H12X19360   1.696   5.377  15.489 -0.1118  0.6097  0.2706
  160DOPC  H12Y19361   1.752   5.224  15.575  1.6820 -0.3714 -0.3395
  160DOPC  C31319362   1.908   5.327  15.463 -0.5259 -0.2989 -0.4892
  160DOPC  H13X19363   1.938   5.431  15.437  1.4770 -0.3739  1.2940
  160DOPC  H13Y19364   1.985   5.271  15.520 -1.2183 -0.6431  0.1156
  160DOPC  C31419365   1.892   5.255  15.328  0.9032 -0.2353  0.0113
  160DOPC  H14X19366   1.837   5.160  15.341  1.8320 -0.7992 -0.0352
  160DOPC  H14Y19367   1.830   5.314  15.258  1.1230  0.7283  0.6213
  160DOPC  C31519368   2.026   5.236  15.261  0.3437 -0.0986 -0.8530
  160DOPC  H15X19369   2.075   5.156  15.320 -0.3519  1.5352  2.1355
  160DOPC  H15Y19370   2.080   5.332  15.275  0.2460 -0.1815  0.1524
  160DOPC  C31619371   2.009   5.195  15.110  0.3845  0.0667 -1.2067
  160DOPC  H16X19372   1.934   5.254  15.052 -0.9463 -0.9956 -0.6176
  160DOPC  H16Y19373   2.113   5.211  15.073  0.6839  0.3295 -0.2722
  160DOPC  C31719374   1.967   5.044  15.079  0.4407  0.3335 -0.1974
  160DOPC  H17X19375   1.864   5.040  15.122  0.5082  0.3037 -0.0372
  160DOPC  H17Y19376   1.965   5.021  14.971 -1.7923  1.2701 -0.3943
  160DOPC  C31819377   2.059   4.946  15.145 -0.3394 -0.0788  0.3851
  160DOPC  H18X19378   2.037   4.839  15.124  5.1557 -1.2060 -1.4644
  160DOPC  H18Y19379   2.166   4.960  15.115 -0.9069  1.3645 -1.1369
  160DOPC  H18Z19380   2.069   4.956  15.255  3.2809 -0.0087  0.1729
  161DOPC     N19381   3.803   6.919  16.954  0.1060  0.6245  0.1194
  161DOPC   C1219382   3.952   6.950  16.957  0.1183  0.6818  0.4864
  161DOPC  H12A19383   3.974   6.939  17.062 -1.8942 -1.9165  0.7285
  161DOPC  H12B19384   3.975   7.050  16.924  0.8521  0.6412  0.8526
  161DOPC   C1319385   3.752   6.940  16.808 -0.5326 -0.6359 -0.3091
  161DOPC  H13A19386   3.814   6.876  16.748 -0.2345 -0.8820  0.2497
  161DOPC  H13B19387   3.646   6.919  16.813 -1.0282  1.7294  0.5791
  161DOPC  H13C19388   3.766   7.044  16.780  0.2092  0.0349  2.2457
  161DOPC   C1419389   3.715   7.002  17.039  0.4636  0.2834 -0.2980
  161DOPC  H14A19390   3.697   7.102  17.004 -0.3819  1.4908  3.1977
  161DOPC  H14B19391   3.617   6.956  17.041  0.9820 -0.8427  0.4603
  161DOPC  H14C19392   3.744   6.998  17.143 -0.4110 -2.6970 -0.0637
  161DOPC   C1519393   3.767   6.780  16.985 -0.0541  0.1188 -0.8332
  161DOPC  H15A19394   3.838   6.710  16.942  1.8815 -1.5915  4.3438
  161DOPC  H15B19395   3.668   6.753  16.953 -0.1066 -3.8325  1.9468
  161DOPC  H15C19396   3.763   6.755  17.090 -1.5211 -1.7216 -1.2774
  161DOPC   C1119397   4.033   6.846  16.879  1.4302 -0.8019 -0.4590
  161DOPC  H11A19398   3.967   6.815  16.795 -1.9623  1.9750  0.9041
  161DOPC  H11B19399   4.127   6.892  16.844  1.0835 -0.0729 -0.4567
  161DOPC     P19400   4.184   6.735  17.064  0.0209 -0.5953 -0.2640
  161DOPC   O1319401   4.183   6.609  17.144  0.1122  1.2571  0.7318
  161DOPC   O1419402   4.189   6.857  17.143  0.2977  0.5442  0.1546
  161DOPC   O1219403   4.058   6.742  16.969  0.7337  0.1362  0.7791
  161DOPC   O1119404   4.312   6.730  16.967 -0.2152  0.4094 -0.3303
  161DOPC    C119405   4.320   6.660  16.842 -0.1470 -0.4373 -0.3671
  161DOPC    HA19406   4.227   6.613  16.805  1.0210 -2.4019 -0.9785
  161DOPC    HB19407   4.389   6.574  16.857  3.9042  2.5902  0.0448
  161DOPC    C219408   4.391   6.743  16.743  0.0538  0.0067 -0.7278
  161DOPC    HS19409   4.482   6.775  16.798  0.0584 -1.7275  0.3396
  161DOPC   O2119410   4.313   6.853  16.709  0.2880  0.9598  0.3804
  161DOPC   C2119411   4.368   6.973  16.695 -0.7525 -0.4551 -0.2509
  161DOPC   O2219412   4.483   7.004  16.721 -0.2698 -0.0274 -0.1746
  161DOPC   C2219413   4.252   7.066  16.648 -0.2285 -0.1039  0.3905
  161DOPC   H2R19414   4.252   7.146  16.725 -0.8207  0.5649 -0.2861
  161DOPC   H2S19415   4.153   7.015  16.650  0.3048 -1.5287 -2.6579
  161DOPC    C319416   4.431   6.667  16.614  0.2366 -0.0159 -0.4983
  161DOPC    HX19417   4.343   6.667  16.545 -0.6633  0.1004  0.6172
  161DOPC    HY19418   4.435   6.558  16.635 -2.7587 -0.8948 -3.4884
  161DOPC   O3119419   4.543   6.726  16.545 -0.3527  0.4073 -0.5075
  161DOPC   C3119420   4.660   6.733  16.609 -0.1149 -0.7767 -0.0961
  161DOPC   O3219421   4.690   6.673  16.710  0.1916 -0.0902 -0.4988
  161DOPC   C3219422   4.732   6.851  16.548  0.2606  0.1427 -0.0152
  161DOPC   H2X19423   4.654   6.929  16.536  0.2646  0.1919  0.2672
  161DOPC   H2Y19424   4.819   6.874  16.613  0.5063  1.1668 -0.6796
  161DOPC   C2319425   4.293   7.142  16.516 -0.2523 -1.1883 -0.6443
  161DOPC   H3R19426   4.387   7.199  16.507  0.2635 -1.9641 -0.2792
  161DOPC   H3S19427   4.210   7.215  16.501  0.4081 -0.4936 -0.9355
  161DOPC   C2419428   4.301   7.042  16.395 -0.1836  0.9299 -0.7963
  161DOPC   H4R19429   4.197   7.015  16.368 -0.1128 -0.8422  0.5384
  161DOPC   H4S19430   4.352   6.950  16.431 -0.9483  0.8268  0.0701
  161DOPC   C2519431   4.374   7.111  16.276  0.7309 -1.0229 -0.5462
  161DOPC   H5R19432   4.469   7.148  16.320  0.9142 -0.2486 -1.5654
  161DOPC   H5S19433   4.308   7.189  16.233  0.7316 -1.0864 -0.6616
  161DOPC   C2619434   4.406   7.016  16.161 -0.0278 -0.0138 -0.1900
  161DOPC   H6R19435   4.313   6.981  16.112 -0.3529 -0.8650  0.9904
  161DOPC   H6S19436   4.469   6.929  16.187 -1.4732 -1.1438 -0.3892
  161DOPC   C2719437   4.486   7.080  16.048 -0.4046 -0.1472  0.8979
  161DOPC   H7R19438   4.579   7.125  16.089 -0.4127  0.5634  0.1627
  161DOPC   H7S19439   4.449   7.163  15.985 -0.4321 -0.1233  0.9456
  161DOPC   C2819440   4.534   6.971  15.947  0.1856  0.2566 -0.6376
  161DOPC   H8R19441   4.592   7.026  15.870  0.2603 -0.3037 -0.9893
  161DOPC   H8S19442   4.449   6.925  15.893 -0.7465 -0.3068  1.2269
  161DOPC   C2919443   4.615   6.849  15.997 -0.3938  0.2327  0.0710
  161DOPC   H9R19444   4.570   6.786  16.075 -0.1850 -0.0339 -0.0209
  161DOPC  C21019445   4.735   6.806  15.949 -0.7280  0.2443  0.5093
  161DOPC  H10R19446   4.775   6.713  15.993 -0.9816 -0.2822 -0.3362
  161DOPC  C21119447   4.818   6.862  15.834  0.3034 -0.3124  0.1005
  161DOPC  H11R19448   4.761   6.895  15.744  0.4884 -2.4786 -0.8939
  161DOPC  H11S19449   4.893   6.782  15.814 -0.7932 -1.7144  1.3118
  161DOPC  C21219450   4.890   6.979  15.890 -0.6023  0.1333  0.5789
  161DOPC  H12R19451   4.934   6.954  15.989 -0.6676 -1.2303  0.2940
  161DOPC  H12S19452   4.813   7.056  15.909  0.2873  0.8921  1.1864
  161DOPC  C21319453   5.004   7.023  15.802  0.2419 -1.1205 -0.4637
  161DOPC  H13R19454   5.051   6.940  15.747  1.9794 -1.4198  1.3633
  161DOPC  H13S19455   5.090   7.065  15.857 -0.7348  2.0682 -1.1630
  161DOPC  C21419456   4.963   7.138  15.706  0.1577 -0.1198  0.1104
  161DOPC  H14R19457   4.942   7.232  15.762 -2.2963 -0.5857  0.0800
  161DOPC  H14S19458   4.862   7.111  15.667  0.9804 -1.7914 -0.9555
  161DOPC  C21519459   5.054   7.159  15.587  0.3800  0.1420  0.1393
  161DOPC  H15R19460   5.023   7.086  15.509  1.1066 -0.2010  0.1616
  161DOPC  H15S19461   5.160   7.138  15.611  0.0853 -1.5289  0.0937
  161DOPC  C21619462   5.047   7.303  15.542 -0.1096 -0.4191 -0.2527
  161DOPC  H16R19463   5.118   7.309  15.457  0.2359 -2.9983 -0.2216
  161DOPC  H16S19464   5.096   7.365  15.620  0.8923  0.9058 -1.8710
  161DOPC  C21719465   4.904   7.350  15.508  0.0650  0.2145  0.3313
  161DOPC  H17R19466   4.914   7.460  15.501  0.7259  0.2534  1.5022
  161DOPC  H17S19467   4.826   7.312  15.578  0.0937 -2.5702 -1.0177
  161DOPC  C21819468   4.883   7.290  15.367  0.7113 -0.5673  0.0957
  161DOPC  H18R19469   4.971   7.296  15.300  0.4420 -1.0727 -0.3070
  161DOPC  H18S19470   4.792   7.331  15.318  0.5370 -2.9774 -1.7924
  161DOPC  H18T19471   4.853   7.185  15.388  0.4515 -0.3465  0.8532
  161DOPC   C3319472   4.793   6.821  16.408 -0.8346  0.2840  0.8729
  161DOPC   H3X19473   4.836   6.916  16.370 -0.3568 -0.1610  0.2640
  161DOPC   H3Y19474   4.704   6.785  16.353 -0.1841 -0.4325  0.2636
  161DOPC   C3419475   4.892   6.699  16.396  0.3174  0.3861  0.2544
  161DOPC   H4X19476   4.838   6.602  16.398  1.3760 -0.3679 -2.4504
  161DOPC   H4Y19477   4.961   6.712  16.482 -0.4536 -0.3783  0.9993
  161DOPC   C3519478   4.989   6.709  16.278 -0.0832 -0.2459  0.0878
  161DOPC   H5X19479   4.939   6.683  16.182 -1.1247  0.8740  0.3031
  161DOPC   H5Y19480   5.060   6.625  16.294 -0.5315 -0.5544  0.4910
  161DOPC   C3619481   5.067   6.843  16.259 -0.7692 -0.7618 -0.3150
  161DOPC   H6X19482   5.012   6.910  16.190  0.9938  0.6867 -0.3880
  161DOPC   H6Y19483   5.086   6.886  16.360 -1.6297 -2.8660  0.8291
  161DOPC   C3719484   5.206   6.817  16.199 -0.6668  1.3597  0.9246
  161DOPC   H7X19485   5.273   6.906  16.198 -0.6221  1.3795 -2.0645
  161DOPC   H7Y19486   5.255   6.744  16.267 -0.8122  1.6139  1.3074
  161DOPC   C3819487   5.210   6.766  16.057  0.7260  0.1953  0.2523
  161DOPC   H8X19488   5.157   6.837  15.989 -1.3287 -0.8955  0.6225
  161DOPC   H8Y19489   5.139   6.680  16.051  0.2706  0.6389 -1.4772
  161DOPC   C3919490   5.355   6.734  16.022  1.0619  0.0461 -0.2742
  161DOPC   H9X19491   5.433   6.733  16.099 -0.6005  2.9853  1.6755
  161DOPC  C31019492   5.389   6.703  15.898 -0.1082  0.4834 -0.0317
  161DOPC  H10X19493   5.495   6.675  15.888 -0.5328 -1.1712 -0.1146
  161DOPC  C31119494   5.301   6.688  15.775 -0.5722 -0.4471  0.5394
  161DOPC  H11X19495   5.197   6.724  15.790 -0.7643 -1.7640  3.0588
  161DOPC  H11Y19496   5.291   6.580  15.754 -0.4417 -0.2852 -0.3656
  161DOPC  C31219497   5.360   6.751  15.642  0.7330 -0.3264  0.3814
  161DOPC  H12X19498   5.464   6.716  15.626  0.7112 -0.3509  0.2925
  161DOPC  H12Y19499   5.365   6.859  15.668  0.6896 -0.6811  1.9712
  161DOPC  C31319500   5.288   6.718  15.513 -0.2323  0.4830  0.6181
  161DOPC  H13X19501   5.274   6.609  15.497  0.2791  0.4538  0.3527
  161DOPC  H13Y19502   5.181   6.746  15.521 -0.2107  0.7493  0.0098
  161DOPC  C31419503   5.344   6.793  15.388  0.0075 -0.0244  0.2267
  161DOPC  H14X19504   5.454   6.778  15.377 -0.1550 -0.8588 -0.3911
  161DOPC  H14Y19505   5.300   6.751  15.295  1.6538 -0.2400 -0.4969
  161DOPC  C31519506   5.302   6.944  15.387 -0.0817  0.1061 -0.2714
  161DOPC  H15X19507   5.328   6.986  15.487  0.1827 -0.0893 -0.2542
  161DOPC  H15Y19508   5.192   6.940  15.377 -0.0929  1.5394 -0.9475
  161DOPC  C31619509   5.364   7.023  15.271  0.4928 -0.2756 -0.0767
  161DOPC  H16X19510   5.473   7.027  15.291  0.0974  2.6771  2.0140
  161DOPC  H16Y19511   5.343   6.960  15.182 -3.3704  1.6126 -0.6720
  161DOPC  C31719512   5.320   7.166  15.268 -0.3838 -0.1425 -0.0411
  161DOPC  H17X19513   5.210   7.171  15.255 -0.6777  0.8074  2.3259
  161DOPC  H17Y19514   5.339   7.209  15.369 -2.0556 -1.0276  0.6865
  161DOPC  C31819515   5.385   7.247  15.156  0.3018  0.3748 -0.4979
  161DOPC  H18X19516   5.349   7.352  15.165 -0.4963  0.0391  0.3846
  161DOPC  H18Y19517   5.495   7.241  15.169  0.0650  0.2744  1.9348
  161DOPC  H18Z19518   5.352   7.210  15.056 -2.0262  0.2463  0.2660
  162DOPC     N19519   2.303   5.045  17.106 -0.2391 -0.2040 -0.2895
  162DOPC   C1219520   2.238   4.909  17.109 -0.0346 -0.0866  0.7655
  162DOPC  H12A19521   2.223   4.883  17.213  0.9916  0.2229  1.0027
  162DOPC  H12B19522   2.296   4.838  17.053 -0.5316  0.7414 -0.8593
  162DOPC   C1319523   2.220   5.146  17.182 -0.0080 -0.2848 -0.3587
  162DOPC  H13A19524   2.231   5.249  17.153 -1.4844 -0.6063 -2.2172
  162DOPC  H13B19525   2.115   5.123  17.172 -0.1409 -0.2991  0.9162
  162DOPC  H13C19526   2.252   5.151  17.285  0.0667  0.4166 -0.4116
  162DOPC   C1419527   2.317   5.091  16.963 -0.3094  0.0189  0.5526
  162DOPC  H14A19528   2.385   5.030  16.905  0.6688  0.6200  1.0287
  162DOPC  H14B19529   2.221   5.094  16.914  0.3942  0.7796 -0.8346
  162DOPC  H14C19530   2.356   5.192  16.957  3.5774 -1.2278  1.5191
  162DOPC   C1519531   2.437   5.038  17.174 -0.2364  0.4556  0.5843
  162DOPC  H15A19532   2.482   5.135  17.160 -2.6058  1.5565  0.1918
  162DOPC  H15B19533   2.514   4.969  17.140 -0.5784  1.3223 -2.2457
  162DOPC  H15C19534   2.417   5.017  17.278 -1.6210 -2.4608 -0.1700
  162DOPC   C1119535   2.095   4.907  17.042 -0.1903  0.3522  0.0760
  162DOPC  H11A19536   2.106   4.946  16.939  0.2989  0.3643  0.1291
  162DOPC  H11B19537   2.067   4.800  17.053  0.8434  0.2170  1.9129
  162DOPC     P19538   1.845   4.942  17.090  0.0323 -0.2515  0.2905
  162DOPC   O1319539   1.776   5.074  17.081  0.7601 -0.1472  0.4619
  162DOPC   O1419540   1.793   4.849  17.196 -0.0991  0.2580 -0.1546
  162DOPC   O1219541   1.994   4.978  17.113  0.1419  0.2364  0.8468
  162DOPC   O1119542   1.841   4.877  16.949 -0.6030 -0.5070  0.3643
  162DOPC    C119543   1.832   4.960  16.827  0.1154 -0.2565  0.0044
  162DOPC    HA19544   1.889   4.914  16.744  1.5144  0.5360  0.4964
  162DOPC    HB19545   1.884   5.055  16.853  0.4283 -0.6883  1.0040
  162DOPC    C219546   1.686   4.989  16.790  0.1387 -0.5932 -0.7863
  162DOPC    HS19547   1.643   5.026  16.885  0.2216 -1.7584 -0.2784
  162DOPC   O2119548   1.632   4.866  16.741  0.1729 -0.1586  0.0918
  162DOPC   C2119549   1.499   4.856  16.745  0.3891 -0.3723  0.6870
  162DOPC   O2219550   1.424   4.933  16.797 -0.5135 -0.0790  0.4617
  162DOPC   C2219551   1.452   4.735  16.676 -0.0724  1.0666 -0.0204
  162DOPC   H2R19552   1.346   4.716  16.704  0.1293  1.0224  0.7376
  162DOPC   H2S19553   1.509   4.646  16.708 -0.1548  1.0917  0.1984
  162DOPC    C319554   1.669   5.099  16.682  0.0560  0.5959 -0.4316
  162DOPC    HX19555   1.726   5.190  16.709  0.0679  0.2986  0.5881
  162DOPC    HY19556   1.565   5.138  16.683 -0.3578 -0.4506  0.5689
  162DOPC   O3119557   1.698   5.044  16.546  0.2663 -0.1655 -0.0761
  162DOPC   C3119558   1.811   5.077  16.487  0.1368 -0.6242  0.1854
  162DOPC   O3219559   1.888   5.163  16.536  0.0179  0.0917  0.2165
  162DOPC   C3219560   1.837   4.995  16.362 -0.3839 -0.1689 -0.6424
  162DOPC   H2X19561   1.740   4.955  16.327 -0.5581 -0.7939  0.5041
  162DOPC   H2Y19562   1.898   5.049  16.286 -0.1892 -0.1543 -0.4776
  162DOPC   C2319563   1.465   4.742  16.525 -0.8464  0.9348  0.1905
  162DOPC   H3R19564   1.438   4.645  16.478 -0.2342 -0.2559  2.1785
  162DOPC   H3S19565   1.571   4.762  16.498 -0.1038 -0.5128  1.8410
  162DOPC   C2419566   1.375   4.847  16.458  0.0252  0.5653  0.6828
  162DOPC   H4R19567   1.299   4.892  16.527  0.7515  2.0310  0.5620
  162DOPC   H4S19568   1.326   4.797  16.372 -0.5896  0.9341  0.8095
  162DOPC   C2519569   1.448   4.962  16.386 -0.2651 -0.1636  0.8604
  162DOPC   H5R19570   1.549   4.922  16.363 -0.9777 -1.2116 -0.6551
  162DOPC   H5S19571   1.443   5.051  16.452 -0.4164 -0.6170  1.4774
  162DOPC   C2619572   1.396   4.981  16.241  0.0215  0.3959  0.0798
  162DOPC   H6R19573   1.449   5.076  16.215  4.2290 -2.1431 -1.7162
  162DOPC   H6S19574   1.286   4.995  16.250 -0.3440 -2.0850  0.1968
  162DOPC   C2719575   1.440   4.876  16.144 -0.7002  0.3659 -0.1005
  162DOPC   H7R19576   1.404   4.775  16.170 -1.8404  0.8271  0.1775
  162DOPC   H7S19577   1.551   4.884  16.142 -0.7514  1.1005 -0.8176
  162DOPC   C2819578   1.399   4.907  15.997  0.2765  0.5016 -0.3312
  162DOPC   H8R19579   1.289   4.894  15.992  0.1506  0.1471  2.0890
  162DOPC   H8S19580   1.447   4.824  15.941 -0.7231 -0.5354  0.3155
  162DOPC   C2919581   1.445   5.033  15.935 -0.0661  0.5411 -0.2706
  162DOPC   H9R19582   1.536   5.079  15.977  1.6704 -3.2076  0.5366
  162DOPC  C21019583   1.379   5.112  15.851  0.1537 -0.0004  0.1896
  162DOPC  H10R19584   1.412   5.214  15.825 -3.3884  0.7521 -2.1645
  162DOPC  C21119585   1.242   5.093  15.788  0.1806  0.0694 -0.9255
  162DOPC  H11R19586   1.168   5.142  15.856  0.7073  0.8105 -0.8845
  162DOPC  H11S19587   1.221   4.984  15.794 -1.2006  0.2141 -2.3731
  162DOPC  C21219588   1.230   5.140  15.645 -0.0267 -0.0583  0.2400
  162DOPC  H12R19589   1.296   5.078  15.581  0.4803 -0.6184  1.2670
  162DOPC  H12S19590   1.264   5.245  15.630  2.7838 -0.5129  2.4026
  162DOPC  C21319591   1.094   5.128  15.580 -0.4217 -0.5873  0.4870
  162DOPC  H13R19592   1.102   5.179  15.482 -0.9614 -1.9557 -0.3023
  162DOPC  H13S19593   1.025   5.195  15.636  0.7157 -1.2064  2.7423
  162DOPC  C21419594   1.050   4.984  15.568 -0.2016  0.1290 -0.1094
  162DOPC  H14R19595   1.032   4.941  15.669 -2.3297 -0.9751 -0.9032
  162DOPC  H14S19596   1.134   4.926  15.526 -0.0934  0.3578 -0.2084
  162DOPC  C21519597   0.930   4.975  15.474 -0.5570  0.6446 -0.0605
  162DOPC  H15R19598   0.948   5.030  15.380  0.1057  0.6010  0.0330
  162DOPC  H15S19599   0.843   5.011  15.532  0.1082  1.3639  0.5239
  162DOPC  C21619600   0.904   4.840  15.420 -0.0074  0.5478  0.2102
  162DOPC  H16R19601   0.991   4.797  15.365  0.2501 -0.9798  1.7257
  162DOPC  H16S19602   0.820   4.852  15.348  0.1397 -0.4094 -0.1328
  162DOPC  C21719603   0.851   4.747  15.527  0.3212 -0.0905  0.3738
  162DOPC  H17R19604   0.775   4.802  15.585  0.5065  1.7647 -1.0599
  162DOPC  H17S19605   0.922   4.702  15.600  0.5613 -0.8211 -0.2931
  162DOPC  C21819606   0.789   4.626  15.449 -1.4787 -0.3611 -0.1159
  162DOPC  H18R19607   0.752   4.569  15.537 -1.2250  0.9155  0.8468
  162DOPC  H18S19608   0.877   4.584  15.395  0.0488  1.9699  0.4358
  162DOPC  H18T19609   0.708   4.662  15.383 -0.8294  0.3547 -0.5353
  162DOPC   C3319610   1.909   4.865  16.410 -0.2675 -0.0829  0.1854
  162DOPC   H3X19611   1.924   4.799  16.323  1.2384 -1.0714  1.1456
  162DOPC   H3Y19612   1.846   4.810  16.483 -1.5232  0.1238 -0.7114
  162DOPC   C3419613   2.047   4.877  16.471 -0.4605 -0.3402 -0.0363
  162DOPC   H4X19614   2.081   4.785  16.523 -0.3827 -0.4856 -0.3457
  162DOPC   H4Y19615   2.060   4.951  16.553 -1.9774 -0.7057  0.5618
  162DOPC   C3519616   2.163   4.904  16.371 -0.3451  0.2921 -0.0434
  162DOPC   H5X19617   2.250   4.915  16.439  0.6056 -1.4934 -0.9165
  162DOPC   H5Y19618   2.152   4.998  16.313  0.9653 -0.6574 -1.9347
  162DOPC   C3619619   2.185   4.779  16.289  0.0351 -0.1759  0.0401
  162DOPC   H6X19620   2.216   4.693  16.352 -1.7058 -0.6206  0.3356
  162DOPC   H6Y19621   2.101   4.744  16.225  2.0016 -0.9112 -2.2714
  162DOPC   C3719622   2.308   4.807  16.203 -0.0840 -0.1198  0.1927
  162DOPC   H7X19623   2.292   4.910  16.165  1.3658 -0.4483 -1.4733
  162DOPC   H7Y19624   2.401   4.808  16.263  0.2291 -1.8729 -0.2138
  162DOPC   C3819625   2.337   4.713  16.082  0.2736  0.0408  0.2962
  162DOPC   H8X19626   2.382   4.617  16.113  0.6842  0.8121  2.2194
  162DOPC   H8Y19627   2.410   4.767  16.017 -0.4212 -1.5346 -1.9162
  162DOPC   C3919628   2.211   4.704  15.991 -0.9256  0.0088  0.1411
  162DOPC   H9X19629   2.171   4.800  15.955  0.6033  1.6750  2.5992
  162DOPC  C31019630   2.147   4.602  15.944 -0.0339 -0.1627  0.1286
  162DOPC  H10X19631   2.049   4.611  15.895 -0.7777 -0.0109  1.5852
  162DOPC  C31119632   2.191   4.457  15.978 -0.5060 -0.4131 -0.7024
  162DOPC  H11X19633   2.108   4.386  15.996  1.2200 -2.4569 -0.4399
  162DOPC  H11Y19634   2.256   4.450  16.068  1.1773  1.3311 -1.6848
  162DOPC  C31219635   2.283   4.399  15.867  0.4376 -0.0434 -0.0950
  162DOPC  H12X19636   2.335   4.306  15.897  0.4447 -1.2686 -3.5359
  162DOPC  H12Y19637   2.372   4.460  15.839 -0.3744  0.9444 -0.6091
  162DOPC  C31319638   2.207   4.358  15.737  0.2360  0.5032  0.5099
  162DOPC  H13X19639   2.152   4.264  15.761 -0.6620  0.7960 -0.3354
  162DOPC  H13Y19640   2.139   4.440  15.705  0.4645  0.7376  0.6242
  162DOPC  C31419641   2.306   4.326  15.616 -0.0565 -0.1996 -1.3651
  162DOPC  H14X19642   2.337   4.425  15.576 -1.3406  1.4202  1.2889
  162DOPC  H14Y19643   2.401   4.290  15.660  1.0004  0.3697 -3.1268
  162DOPC  C31519644   2.257   4.236  15.505  0.3921  0.6809  0.5840
  162DOPC  H15X19645   2.170   4.278  15.450 -0.0968 -0.5661  0.3807
  162DOPC  H15Y19646   2.217   4.139  15.540 -1.3754  1.3331  0.5247
  162DOPC  C31619647   2.370   4.198  15.411 -0.2779  0.4194 -0.1917
  162DOPC  H16X19648   2.424   4.291  15.385 -0.5739  0.6687  0.0780
  162DOPC  H16Y19649   2.439   4.130  15.465 -0.9351 -0.4258 -0.3794
  162DOPC  C31719650   2.321   4.117  15.284  0.3340  0.8245 -0.6569
  162DOPC  H17X19651   2.411   4.089  15.225  0.4620  0.9594 -0.5264
  162DOPC  H17Y19652   2.253   4.039  15.323 -1.0486  2.3641  0.1220
  162DOPC  C31819653   2.249   4.200  15.183  0.0820 -0.0974 -0.2527
  162DOPC  H18X19654   2.241   4.149  15.085  0.7079 -1.6684  0.4766
  162DOPC  H18Y19655   2.152   4.231  15.227 -0.0058 -2.4122  1.3952
  162DOPC  H18Z19656   2.309   4.292  15.167 -2.0343  1.6550  1.1830
  163DOPC     N19657   1.530   1.403  17.439 -0.0521 -0.0632 -0.6344
  163DOPC   C1219658   1.507   1.416  17.290 -0.0468 -0.7169 -0.0078
  163DOPC  H12A19659   1.567   1.494  17.245 -1.3480  0.5964  0.4666
  163DOPC  H12B19660   1.409   1.457  17.277  0.9419  2.0065  0.5065
  163DOPC   C1319661   1.488   1.528  17.507  0.2809 -0.0533  0.3188
  163DOPC  H13A19662   1.513   1.530  17.612  0.3693  1.2111  0.2906
  163DOPC  H13B19663   1.527   1.617  17.459 -1.1263  2.2656  3.1745
  163DOPC  H13C19664   1.381   1.542  17.507  0.5310  2.6055  1.9958
  163DOPC   C1419665   1.678   1.378  17.463 -0.1406 -0.0141 -0.0045
  163DOPC  H14A19666   1.697   1.387  17.569 -0.7697 -0.3068  0.1354
  163DOPC  H14B19667   1.713   1.284  17.422 -1.0090 -0.7601  0.9428
  163DOPC  H14C19668   1.727   1.456  17.406 -1.1541  0.3653 -0.3646
  163DOPC   C1519669   1.461   1.284  17.496  0.1598  0.0158 -0.3179
  163DOPC  H15A19670   1.355   1.294  17.479  0.3918 -0.8026 -2.6214
  163DOPC  H15B19671   1.467   1.281  17.604 -2.1354  2.1589 -0.0612
  163DOPC  H15C19672   1.510   1.196  17.456  0.4137 -1.1447  2.2683
  163DOPC   C1119673   1.518   1.290  17.200  0.6396 -0.3264 -0.1708
  163DOPC  H11A19674   1.530   1.328  17.097  0.9217  2.4173  0.8101
  163DOPC  H11B19675   1.609   1.236  17.234 -0.4996 -1.0497  1.9452
  163DOPC     P19676   1.267   1.238  17.135  0.4679  0.3039 -0.3526
  163DOPC   O1319677   1.227   1.373  17.174  0.1760  0.5019 -0.3969
  163DOPC   O1419678   1.167   1.129  17.172 -0.3552  0.5252  0.4350
  163DOPC   O1219679   1.401   1.208  17.212  0.7212  0.3392 -0.5898
  163DOPC   O1119680   1.309   1.228  16.982 -0.5697 -0.2794  0.5536
  163DOPC    C119681   1.372   1.103  16.944  0.1215 -0.6719  0.4426
  163DOPC    HA19682   1.288   1.034  16.921 -2.0439  1.3766  1.7156
  163DOPC    HB19683   1.430   1.046  17.020  1.4597  0.9323  0.6606
  163DOPC    C219684   1.466   1.115  16.818  0.0781 -0.7322  0.0890
  163DOPC    HS19685   1.529   1.024  16.820 -0.8794 -1.4180  0.1540
  163DOPC   O2119686   1.552   1.230  16.815  0.0583  0.0708 -0.5448
  163DOPC   C2119687   1.661   1.216  16.751  0.3727 -0.5467  0.2900
  163DOPC   O2219688   1.686   1.123  16.675 -0.2656  0.0651 -0.0768
  163DOPC   C2219689   1.751   1.341  16.764  0.2121  0.3776  0.1691
  163DOPC   H2R19690   1.754   1.360  16.874  0.0350 -1.5792  0.5498
  163DOPC   H2S19691   1.700   1.429  16.719  0.3565  0.7932  0.7980
  163DOPC    C319692   1.372   1.114  16.687 -1.0321 -0.5870 -0.1671
  163DOPC    HX19693   1.442   1.115  16.601  3.0207 -0.7157  2.8664
  163DOPC    HY19694   1.311   1.207  16.698 -1.5504 -0.1931 -4.5566
  163DOPC   O3119695   1.290   0.999  16.680  0.2136 -0.3826 -0.0050
  163DOPC   C3119696   1.340   0.891  16.604 -0.0107 -0.2703  0.0433
  163DOPC   O3219697   1.448   0.887  16.551  0.1325 -0.3899  0.3412
  163DOPC   C3219698   1.231   0.779  16.587  0.4703 -0.2929 -0.0088
  163DOPC   H2X19699   1.246   0.701  16.664 -2.5603  0.6025  1.6357
  163DOPC   H2Y19700   1.133   0.827  16.605 -0.3913 -0.6445 -3.1923
  163DOPC   C2319701   1.890   1.321  16.722 -0.3791  0.9299  0.3801
  163DOPC   H3R19702   1.893   1.278  16.619 -4.0083  0.9193  0.1184
  163DOPC   H3S19703   1.938   1.248  16.789 -0.6124 -1.8380 -2.2462
  163DOPC   C2419704   1.968   1.455  16.723 -0.0586 -0.3254 -0.1022
  163DOPC   H4R19705   1.988   1.483  16.828  0.6822 -0.2181 -0.2637
  163DOPC   H4S19706   1.910   1.535  16.672  1.7087  0.6446 -0.7031
  163DOPC   C2519707   2.108   1.436  16.661  0.5468 -0.7219  0.9272
  163DOPC   H5R19708   2.150   1.345  16.708 -0.9449 -2.0267 -0.1980
  163DOPC   H5S19709   2.172   1.524  16.688  0.3234 -0.2448 -0.0493
  163DOPC   C2619710   2.115   1.423  16.514 -0.2746  0.1485  0.0613
  163DOPC   H6R19711   2.079   1.321  16.490 -1.1553  0.8673 -1.8936
  163DOPC   H6S19712   2.219   1.427  16.474 -0.8565  0.5932 -1.5028
  163DOPC   C2719713   2.053   1.535  16.428 -0.0394  0.8378 -0.4883
  163DOPC   H7R19714   2.100   1.632  16.455  1.8615  0.1265 -1.1268
  163DOPC   H7S19715   1.945   1.544  16.451 -0.5200  1.4409 -2.6863
  163DOPC   C2819716   2.059   1.490  16.280  0.5637  0.1533  0.7784
  163DOPC   H8R19717   1.989   1.405  16.269  0.2960  0.5152 -0.4708
  163DOPC   H8S19718   2.163   1.458  16.256 -0.3086 -2.1379 -0.2277
  163DOPC   C2919719   2.026   1.607  16.190  0.2174  0.0565 -0.1382
  163DOPC   H9R19720   2.079   1.700  16.215 -0.0994 -0.3957  2.5175
  163DOPC  C21019721   1.937   1.599  16.084  0.2253 -0.7258 -0.0307
  163DOPC  H10R19722   1.919   1.688  16.022 -0.9797  0.0035  1.2816
  163DOPC  C21119723   1.851   1.482  16.037  0.3691 -0.0687 -0.3087
  163DOPC  H11R19724   1.829   1.401  16.111  1.2276 -1.3473 -1.4058
  163DOPC  H11S19725   1.922   1.428  15.971 -1.9527 -0.9129 -2.2840
  163DOPC  C21219726   1.713   1.533  15.975  0.1599  0.5161  0.6061
  163DOPC  H12R19727   1.649   1.449  15.942  0.2627 -0.4641  2.7303
  163DOPC  H12S19728   1.735   1.593  15.884 -1.8804 -1.4562 -1.3106
  163DOPC  C21319729   1.629   1.605  16.080 -0.0450 -0.3940 -0.0858
  163DOPC  H13R19730   1.688   1.691  16.117 -1.7670  1.0035 -0.4834
  163DOPC  H13S19731   1.600   1.539  16.165  0.1478 -2.4532 -1.5291
  163DOPC  C21419732   1.499   1.668  16.025  0.0681  0.6761 -0.5205
  163DOPC  H14R19733   1.506   1.691  15.916  3.0234  0.7834 -0.3767
  163DOPC  H14S19734   1.491   1.766  16.077  1.4112  1.0371 -0.9548
  163DOPC  C21519735   1.370   1.580  16.061  0.4073  0.4736  0.1387
  163DOPC  H15R19736   1.347   1.577  16.169  0.1712 -2.0007  0.0892
  163DOPC  H15S19737   1.394   1.476  16.030 -0.9392  0.1737  0.0429
  163DOPC  C21619738   1.252   1.610  15.973  0.0295 -0.0235  0.2593
  163DOPC  H16R19739   1.170   1.537  15.990  0.6082 -0.6957  0.1967
  163DOPC  H16S19740   1.298   1.606  15.871  1.9261  1.7025  0.9816
  163DOPC  C21719741   1.185   1.741  15.993  0.4779  0.4255  0.7760
  163DOPC  H17R19742   1.105   1.755  15.917  1.8860 -0.5812 -0.9595
  163DOPC  H17S19743   1.250   1.829  15.975  2.2205 -0.3594  2.7654
  163DOPC  C21819744   1.131   1.766  16.130 -0.1987 -0.3408 -0.6370
  163DOPC  H18R19745   1.099   1.872  16.139  0.7525 -0.0674 -0.3391
  163DOPC  H18S19746   1.213   1.744  16.201 -1.3719  0.8576  1.1828
  163DOPC  H18T19747   1.056   1.688  16.155  1.6625 -2.5489 -1.6228
  163DOPC   C3319748   1.233   0.714  16.441  0.5984 -0.2015  0.0681
  163DOPC   H3X19749   1.337   0.680  16.419  0.6876 -0.9856  1.5371
  163DOPC   H3Y19750   1.212   0.793  16.367 -2.2207 -1.7301 -0.9092
  163DOPC   C3419751   1.130   0.603  16.422 -0.0294  0.5477  0.8468
  163DOPC   H4X19752   1.026   0.638  16.442 -0.0628  0.5991  0.5866
  163DOPC   H4Y19753   1.154   0.521  16.492 -0.4016 -0.3041 -0.0044
  163DOPC   C3519754   1.140   0.537  16.275  0.1826 -0.1207  0.0622
  163DOPC   H5X19755   1.060   0.460  16.270 -0.7526  0.9062 -2.2926
  163DOPC   H5Y19756   1.233   0.476  16.274  0.3382  0.1047  0.4867
  163DOPC   C3619757   1.123   0.631  16.151 -0.2713 -0.0400  0.0777
  163DOPC   H6X19758   1.023   0.679  16.153  0.0617  0.6395  1.1114
  163DOPC   H6Y19759   1.201   0.710  16.146 -0.0564  0.0268  3.0075
  163DOPC   C3719760   1.124   0.557  16.019  0.1118  0.0967 -0.6331
  163DOPC   H7X19761   1.223   0.507  16.020 -0.1378 -0.3979 -0.2946
  163DOPC   H7Y19762   1.042   0.482  16.017 -1.2307  1.2932  2.4613
  163DOPC   C3819763   1.112   0.650  15.895  0.0003 -0.3354 -0.3158
  163DOPC   H8X19764   1.156   0.604  15.803 -0.8405  2.0729 -2.0236
  163DOPC   H8Y19765   1.172   0.742  15.909  1.8968 -1.7968  1.7916
  163DOPC   C3919766   0.974   0.683  15.852  0.1857  0.1667  0.3330
  163DOPC   H9X19767   0.893   0.637  15.910 -0.0462 -2.3095 -1.7802
  163DOPC  C31019768   0.930   0.762  15.751 -0.8841  0.2441  0.8672
  163DOPC  H10X19769   0.824   0.773  15.724 -0.1944  2.2597 -1.2867
  163DOPC  C31119770   1.016   0.825  15.645 -0.1399 -0.7058  0.4401
  163DOPC  H11X19771   1.119   0.790  15.667  0.5183  0.2118 -0.9772
  163DOPC  H11Y19772   1.027   0.934  15.660  2.1318 -0.6767 -0.8595
  163DOPC  C31219773   0.986   0.798  15.500 -0.2628 -0.0979 -0.4206
  163DOPC  H12X19774   0.876   0.804  15.481 -0.5812  2.3226  1.6382
  163DOPC  H12Y19775   1.017   0.697  15.468  0.9140 -0.3692  1.4424
  163DOPC  C31319776   1.053   0.894  15.406 -0.6286  1.0279  0.8145
  163DOPC  H13X19777   1.026   0.986  15.462 -1.4723  0.6988  0.9613
  163DOPC  H13Y19778   1.163   0.876  15.403 -0.9178 -0.8678 -0.8790
  163DOPC  C31419779   0.987   0.895  15.268  0.0308  0.8342 -0.3690
  163DOPC  H14X19780   0.885   0.934  15.283  0.3233  0.8513  1.9202
  163DOPC  H14Y19781   1.040   0.964  15.199 -0.1094  0.3793 -0.9418
  163DOPC  C31519782   0.975   0.755  15.206 -0.1845 -0.7595 -0.0643
  163DOPC  H15X19783   0.932   0.681  15.277 -0.9342  0.4986  0.8256
  163DOPC  H15Y19784   1.080   0.722  15.189 -0.1078 -0.0578 -1.0339
  163DOPC  C31619785   0.904   0.763  15.073 -0.2151  0.2939  0.0349
  163DOPC  H16X19786   0.883   0.658  15.041 -0.0359  0.2329  0.1157
  163DOPC  H16Y19787   0.808   0.819  15.074  0.3328  1.3508 -1.7513
  163DOPC  C31719788   0.973   0.836  14.963 -0.1372 -0.2650  0.8415
  163DOPC  H17X19789   1.010   0.936  14.995  1.3751 -0.2154 -0.9068
  163DOPC  H17Y19790   1.066   0.780  14.940  0.4977  0.5583  1.3218
  163DOPC  C31819791   0.889   0.862  14.840 -0.0381 -0.5411 -0.3837
  163DOPC  H18X19792   0.816   0.946  14.848  1.5893  0.8430  0.7662
  163DOPC  H18Y19793   0.951   0.891  14.753  1.4217  1.6208  1.2649
  163DOPC  H18Z19794   0.837   0.766  14.820 -1.6396  0.1796  0.0890
  164DOPC     N19795   2.199   7.431  17.107  0.8272  0.4459  0.0693
  164DOPC   C1219796   2.178   7.403  16.958  0.1484 -0.4788  0.4328
  164DOPC  H12A19797   2.178   7.500  16.912  3.4051  0.2558  1.7670
  164DOPC  H12B19798   2.077   7.368  16.940 -0.6658  1.3491  1.2459
  164DOPC   C1319799   2.098   7.516  17.162  0.2396  0.3043 -0.9043
  164DOPC  H13A19800   2.003   7.466  17.173  0.7458 -0.8330 -1.5329
  164DOPC  H13B19801   2.113   7.537  17.267 -0.0835  0.0445 -0.8069
  164DOPC  H13C19802   2.091   7.605  17.101  3.7384  2.1118  1.0259
  164DOPC   C1419803   2.337   7.483  17.130  0.5513  0.3930  0.7122
  164DOPC  H14A19804   2.377   7.477  17.230  1.5250  0.9914  0.3797
  164DOPC  H14B19805   2.405   7.442  17.056 -0.7417 -0.7003  0.0783
  164DOPC  H14C19806   2.316   7.586  17.109 -2.3424 -0.0605  1.0221
  164DOPC   C1519807   2.187   7.304  17.176 -0.6501 -0.3472 -0.1414
  164DOPC  H15A19808   2.175   7.304  17.284  0.6742 -0.4283  0.0231
  164DOPC  H15B19809   2.278   7.247  17.161 -0.3648 -0.0702  0.5109
  164DOPC  H15C19810   2.105   7.252  17.129 -0.8847 -0.4207  0.3348
  164DOPC   C1119811   2.297   7.318  16.891 -0.2396 -0.0130 -0.6593
  164DOPC  H11A19812   2.324   7.237  16.963  2.3548 -0.2351 -1.7576
  164DOPC  H11B19813   2.255   7.270  16.800 -1.1521  1.0146 -0.7851
  164DOPC     P19814   2.451   7.463  16.729 -0.1266 -0.0751 -0.1103
  164DOPC   O1319815   2.547   7.378  16.658  0.6438 -0.3058 -0.1794
  164DOPC   O1419816   2.507   7.597  16.765  0.3938 -0.0451  0.5723
  164DOPC   O1219817   2.409   7.402  16.867 -0.4220 -0.4058 -0.4615
  164DOPC   O1119818   2.317   7.476  16.652  0.6037  0.3723 -0.4554
  164DOPC    C119819   2.279   7.385  16.547 -0.7486 -0.7441 -0.2308
  164DOPC    HA19820   2.177   7.357  16.579 -1.4181  1.9344  0.2147
  164DOPC    HB19821   2.341   7.293  16.542 -1.2176 -1.0073 -2.5638
  164DOPC    C219822   2.295   7.444  16.405  0.0470 -0.5220 -0.1295
  164DOPC    HS19823   2.271   7.367  16.328 -0.4439 -0.0935 -0.4192
  164DOPC   O2119824   2.432   7.486  16.382 -0.3532  0.2937 -0.6692
  164DOPC   C2119825   2.511   7.386  16.340  0.8167 -0.3667 -0.3934
  164DOPC   O2219826   2.482   7.272  16.309 -0.1974 -0.5335 -0.6555
  164DOPC   C2219827   2.655   7.437  16.362  0.3670  0.3540  0.0303
  164DOPC   H2R19828   2.712   7.348  16.396  0.0826  0.0701 -0.2331
  164DOPC   H2S19829   2.662   7.506  16.449 -0.3996 -0.7129  0.9804
  164DOPC    C319830   2.207   7.575  16.395 -0.8847  0.5481 -0.3992
  164DOPC    HX19831   2.242   7.648  16.471 -0.2703 -0.4744  0.3312
  164DOPC    HY19832   2.101   7.558  16.421 -0.1263 -0.7528  2.2320
  164DOPC   O3119833   2.203   7.622  16.260 -0.1592 -0.2763 -0.4072
  164DOPC   C3119834   2.288   7.724  16.236 -0.4389 -0.7052 -0.1617
  164DOPC   O3219835   2.350   7.784  16.322  0.2338  0.5815  0.2861
  164DOPC   C3219836   2.268   7.785  16.100 -0.2539 -0.2660 -0.0615
  164DOPC   H2X19837   2.194   7.867  16.114  0.7196  0.2277  2.8034
  164DOPC   H2Y19838   2.355   7.843  16.062  0.5263 -1.3077  0.0948
  164DOPC   C2319839   2.713   7.500  16.238 -0.8227  0.3781 -0.4058
  164DOPC   H3R19840   2.703   7.433  16.150  2.0837  0.5252 -0.9693
  164DOPC   H3S19841   2.820   7.512  16.266 -1.0472 -0.4028  0.8796
  164DOPC   C2419842   2.653   7.636  16.194  0.4481  0.0505  0.6867
  164DOPC   H4R19843   2.623   7.688  16.288 -0.7142 -0.0715  0.4017
  164DOPC   H4S19844   2.550   7.617  16.156  1.0140 -0.2415 -0.7479
  164DOPC   C2519845   2.724   7.715  16.082  0.3390  0.0952  0.0554
  164DOPC   H5R19846   2.740   7.657  15.988 -3.1638  0.2140 -0.7577
  164DOPC   H5S19847   2.819   7.754  16.124  1.3169 -0.8707 -1.1803
  164DOPC   C2619848   2.630   7.828  16.032  0.5785  0.8557  0.0545
  164DOPC   H6R19849   2.569   7.882  16.107 -1.5135  0.7911 -1.5171
  164DOPC   H6S19850   2.566   7.774  15.959 -0.7507  2.1882  0.2023
  164DOPC   C2719851   2.701   7.934  15.946 -0.3413  0.1361 -0.0932
  164DOPC   H7R19852   2.755   7.994  16.022  0.2348 -0.1736 -0.2463
  164DOPC   H7S19853   2.617   7.988  15.898 -0.5296 -0.5580 -0.5514
  164DOPC   C2819854   2.807   7.887  15.842  0.6633 -0.6760 -0.5122
  164DOPC   H8R19855   2.879   7.817  15.889 -2.5851 -2.6757  1.9669
  164DOPC   H8S19856   2.863   7.981  15.821 -2.1757  1.2353 -0.1648
  164DOPC   C2919857   2.747   7.840  15.712 -0.4620  0.4526 -0.1268
  164DOPC   H9R19858   2.744   7.732  15.696  1.8825  0.4824 -1.3108
  164DOPC  C21019859   2.693   7.915  15.618  0.4122 -0.7982  0.1140
  164DOPC  H10R19860   2.663   7.864  15.525  2.2566  0.7680 -1.4243
  164DOPC  C21119861   2.692   8.065  15.618  0.0129 -0.2928  0.1284
  164DOPC  H11R19862   2.709   8.105  15.721  0.2943 -1.5057  0.5672
  164DOPC  H11S19863   2.590   8.104  15.598 -0.4315 -1.5159 -0.0685
  164DOPC  C21219864   2.811   8.109  15.535  0.1886  0.3588 -0.2446
  164DOPC  H12R19865   2.794   8.079  15.429 -0.3579 -3.1752  0.7156
  164DOPC  H12S19866   2.899   8.046  15.561 -0.1865 -0.2798 -0.4881
  164DOPC  C21319867   2.861   8.248  15.558  0.2519  0.0827  0.8301
  164DOPC  H13R19868   2.880   8.271  15.665 -0.4844  1.0931  0.7586
  164DOPC  H13S19869   2.780   8.313  15.521 -0.1738 -1.2150 -0.6316
  164DOPC  C21419870   2.986   8.285  15.479 -0.2491 -0.4804  0.5233
  164DOPC  H14R19871   2.981   8.395  15.463 -0.9247 -0.5564  0.1971
  164DOPC  H14S19872   2.985   8.243  15.376  0.2127 -0.6315  0.5768
  164DOPC  C21519873   3.113   8.235  15.552 -0.1639 -0.4995  0.1540
  164DOPC  H15R19874   3.128   8.126  15.538 -0.2808 -0.5445  0.3835
  164DOPC  H15S19875   3.105   8.262  15.659  3.0562  2.9277 -0.2561
  164DOPC  C21619876   3.248   8.302  15.511 -0.0963 -0.8439  0.0388
  164DOPC  H16R19877   3.240   8.410  15.538 -1.0341 -1.5630  2.9524
  164DOPC  H16S19878   3.270   8.301  15.402  2.2093  0.9351  0.4037
  164DOPC  C21719879   3.372   8.235  15.577  0.2199 -1.2756  0.4291
  164DOPC  H17R19880   3.456   8.300  15.544 -3.5004  2.8104 -2.1959
  164DOPC  H17S19881   3.377   8.133  15.534 -0.7678 -0.5856 -1.4542
  164DOPC  C21819882   3.374   8.237  15.737 -0.1335  0.3233  0.6315
  164DOPC  H18R19883   3.359   8.344  15.762  1.8466  1.1416 -1.3122
  164DOPC  H18S19884   3.466   8.194  15.782 -0.1003 -2.4645 -1.7967
  164DOPC  H18T19885   3.284   8.181  15.770  0.4794 -1.1843 -0.1408
  164DOPC   C3319886   2.190   7.691  15.997 -0.3722  0.4868  0.3326
  164DOPC   H3X19887   2.081   7.680  16.017 -0.7207 -2.1064 -2.2861
  164DOPC   H3Y19888   2.232   7.588  15.989  0.5634  0.9758 -1.5623
  164DOPC   C3419889   2.206   7.742  15.850  0.6286 -0.1319 -0.3024
  164DOPC   H4X19890   2.165   7.665  15.782 -0.9768 -0.5984  1.1212
  164DOPC   H4Y19891   2.315   7.753  15.830  0.1794  0.0192 -3.0198
  164DOPC   C3519892   2.134   7.876  15.823 -0.0464 -0.4138 -0.5624
  164DOPC   H5X19893   2.173   7.955  15.891 -1.9763  1.7322 -1.7941
  164DOPC   H5Y19894   2.024   7.890  15.836  0.4311  2.7156  0.9983
  164DOPC   C3619895   2.161   7.927  15.684 -0.3293 -0.2050  0.4512
  164DOPC   H6X19896   2.269   7.952  15.676  0.1190 -1.7674  1.1555
  164DOPC   H6Y19897   2.142   7.845  15.611  3.1092 -1.3040  0.6177
  164DOPC   C3719898   2.080   8.047  15.644  0.2857 -0.0023  0.4455
  164DOPC   H7X19899   1.971   8.023  15.644 -0.1519  1.7541 -0.9436
  164DOPC   H7Y19900   2.101   8.133  15.711  0.2128 -0.0548  0.5358
  164DOPC   C3819901   2.101   8.091  15.496  0.1505 -0.6204  0.6350
  164DOPC   H8X19902   2.211   8.106  15.499 -0.2714  3.3040  1.5366
  164DOPC   H8Y19903   2.054   8.190  15.478  1.2121  0.0098  1.2068
  164DOPC   C3919904   2.047   7.992  15.391 -0.6250 -0.2775 -0.1793
  164DOPC   H9X19905   1.949   7.946  15.406 -1.9901  2.0793 -1.3276
  164DOPC  C31019906   2.132   7.951  15.295  0.9585 -0.3357  0.0460
  164DOPC  H10X19907   2.098   7.872  15.226  2.2868 -1.5811  0.7402
  164DOPC  C31119908   2.281   7.979  15.270  0.6506  1.0620 -0.0728
  164DOPC  H11X19909   2.323   8.050  15.344 -0.8833  1.6841  0.2319
  164DOPC  H11Y19910   2.309   8.027  15.174  1.9628  0.2945 -0.1010
  164DOPC  C31219911   2.350   7.840  15.267 -0.6139  0.6576  0.1692
  164DOPC  H12X19912   2.447   7.848  15.213 -2.0302  0.6788 -2.5295
  164DOPC  H12Y19913   2.294   7.771  15.200 -0.1861 -0.5638  1.0376
  164DOPC  C31319914   2.374   7.775  15.405  0.3174 -0.1442 -0.1544
  164DOPC  H13X19915   2.409   7.847  15.482  0.8889 -1.5159  0.8965
  164DOPC  H13Y19916   2.275   7.738  15.439  0.1025  0.3615 -0.2163
  164DOPC  C31419917   2.460   7.647  15.389 -1.5614 -0.2642 -0.1458
  164DOPC  H14X19918   2.554   7.680  15.340 -0.8493  2.7885  2.8814
  164DOPC  H14Y19919   2.408   7.563  15.339 -1.1682 -0.5760 -0.0335
  164DOPC  C31519920   2.489   7.587  15.526 -0.2130 -0.0085 -0.3741
  164DOPC  H15X19921   2.405   7.539  15.580  0.8938 -0.5039  0.9794
  164DOPC  H15Y19922   2.524   7.667  15.594 -0.9323 -1.0600  1.2818
  164DOPC  C31619923   2.604   7.482  15.523  0.2132  0.2725 -0.4593
  164DOPC  H16X19924   2.579   7.391  15.464  0.2765 -0.1600  0.1813
  164DOPC  H16Y19925   2.679   7.515  15.447  0.3009  0.5404 -0.2579
  164DOPC  C31719926   2.663   7.443  15.659  0.7065 -0.0083  0.0137
  164DOPC  H17X19927   2.718   7.347  15.656  2.1882  0.8313 -1.4859
  164DOPC  H17Y19928   2.715   7.531  15.702  0.2024  0.6987 -0.8053
  164DOPC  C31819929   2.552   7.416  15.759  0.2801 -0.2183  0.0786
  164DOPC  H18X19930   2.488   7.504  15.783 -1.0026 -0.9810 -0.4954
  164DOPC  H18Y19931   2.491   7.330  15.725  0.5524 -0.9837  1.4490
  164DOPC  H18Z19932   2.598   7.389  15.857  1.9197 -0.2828 -0.6715
  165DOPC     N19933   6.583   6.351  16.747  0.2490 -0.4403  0.2224
  165DOPC   C1219934   6.663   6.463  16.810  0.8171  0.4167  0.7102
  165DOPC  H12A19935   6.731   6.416  16.880  2.1330  1.5984  0.2678
  165DOPC  H12B19936   6.597   6.525  16.870 -0.8442 -1.2234  0.6943
  165DOPC   C1319937   6.484   6.397  16.640 -0.3599  0.2590 -0.1205
  165DOPC  H13A19938   6.527   6.482  16.589  1.5460  0.0107  0.9455
  165DOPC  H13B19939   6.473   6.328  16.558  1.4629 -0.9515  0.5747
  165DOPC  H13C19940   6.393   6.431  16.687  0.9379  2.5756  0.9108
  165DOPC   C1419941   6.503   6.276  16.850 -0.5210 -0.2779  0.3191
  165DOPC  H14A19942   6.569   6.251  16.931 -0.6752  1.0301  0.8705
  165DOPC  H14B19943   6.424   6.342  16.885 -0.4866 -0.4027  0.6337
  165DOPC  H14C19944   6.454   6.188  16.811  1.1769 -1.6455  1.1254
  165DOPC   C1519945   6.671   6.253  16.676 -0.5536  0.4923 -0.4774
  165DOPC  H15A19946   6.698   6.286  16.577 -3.7035  0.8805 -1.3209
  165DOPC  H15B19947   6.627   6.155  16.672 -0.7925  0.6185 -1.2594
  165DOPC  H15C19948   6.760   6.247  16.736 -1.0081  1.5978  0.3485
  165DOPC   C1119949   6.736   6.558  16.714  0.3579  0.5549  0.2376
  165DOPC  H11A19950   6.816   6.618  16.764  1.8070 -1.0410 -0.0685
  165DOPC  H11B19951   6.792   6.505  16.634 -0.6117 -0.0222 -0.0756
  165DOPC     P19952   6.609   6.772  16.691  0.6975 -0.2032  0.0569
  165DOPC   O1319953   6.685   6.815  16.807 -0.3420 -0.0382  0.0392
  165DOPC   O1419954   6.459   6.773  16.701  0.4045 -0.1989 -0.6968
  165DOPC   O1219955   6.636   6.630  16.639 -0.4743  0.1233  0.2712
  165DOPC   O1119956   6.651   6.866  16.573 -0.0874  0.3659  0.2240
  165DOPC    C119957   6.737   6.818  16.465 -0.0836  0.1530  0.1952
  165DOPC    HA19958   6.673   6.766  16.391 -1.2538  4.8953 -2.5205
  165DOPC    HB19959   6.821   6.755  16.503 -0.6821 -0.5337  0.4041
  165DOPC    C219960   6.804   6.940  16.385  0.5394 -0.2709 -0.4305
  165DOPC    HS19961   6.844   7.007  16.465 -0.6731 -0.5989  0.4910
  165DOPC   O2119962   6.702   7.010  16.311 -0.0101 -0.3116 -0.3072
  165DOPC   C2119963   6.714   7.138  16.281 -0.4327 -0.1174  0.1321
  165DOPC   O2219964   6.812   7.202  16.317 -0.0243 -0.2887 -0.0731
  165DOPC   C2219965   6.612   7.166  16.170 -0.1707  0.6727 -0.0472
  165DOPC   H2R19966   6.615   7.276  16.162 -1.3391  0.8120  1.1751
  165DOPC   H2S19967   6.511   7.134  16.201 -0.3624  0.6372 -0.6919
  165DOPC    C319968   6.923   6.898  16.293 -0.0839  0.2793  0.0362
  165DOPC    HX19969   6.998   6.849  16.359 -2.8576 -2.1792  1.6086
  165DOPC    HY19970   6.977   6.982  16.243 -2.1796  0.0772 -2.8140
  165DOPC   O3119971   6.875   6.810  16.194 -0.1931 -0.3226 -0.1910
  165DOPC   C3119972   6.890   6.676  16.195  0.2559 -0.2588 -0.9978
  165DOPC   O3219973   6.949   6.615  16.280  0.1754  0.0264 -0.1862
  165DOPC   C3219974   6.829   6.616  16.079 -0.6043  0.6176 -0.2964
  165DOPC   H2X19975   6.837   6.505  16.075 -0.0019  0.6908 -1.6007
  165DOPC   H2Y19976   6.720   6.637  16.088 -0.8327  0.2699 -2.0096
  165DOPC   C2319977   6.658   7.098  16.038 -0.1458 -0.5563  1.2011
  165DOPC   H3R19978   6.571   7.096  15.969 -0.4846 -0.6376  1.6263
  165DOPC   H3S19979   6.694   6.995  16.060  1.0382 -0.2127  0.9295
  165DOPC   C2419980   6.777   7.171  15.976 -0.7100 -0.7974  0.6653
  165DOPC   H4R19981   6.851   7.101  15.932  1.0603  1.0429  0.5717
  165DOPC   H4S19982   6.833   7.231  16.051  0.1327 -1.0662  0.2664
  165DOPC   C2519983   6.738   7.277  15.867  0.0058  0.0645  0.4235
  165DOPC   H5R19984   6.826   7.342  15.847 -0.1601  0.6253  1.4268
  165DOPC   H5S19985   6.652   7.333  15.909 -0.0759 -0.7714  1.4098
  165DOPC   C2619986   6.700   7.227  15.725  0.4739 -0.4531 -0.7217
  165DOPC   H6R19987   6.604   7.171  15.715  0.0779  0.2000 -0.6603
  165DOPC   H6S19988   6.778   7.160  15.682 -0.7655 -0.3258 -3.4188
  165DOPC   C2719989   6.693   7.346  15.623 -0.8551  0.1129  0.6021
  165DOPC   H7R19990   6.678   7.308  15.519 -0.8921  1.7141  0.0007
  165DOPC   H7S19991   6.792   7.396  15.626  0.6664 -2.5654 -0.9757
  165DOPC   C2819992   6.587   7.448  15.647 -0.1771 -0.7005  0.3730
  165DOPC   H8R19993   6.619   7.500  15.740 -0.5199 -1.6390  1.0304
  165DOPC   H8S19994   6.496   7.399  15.689 -0.8752 -0.0416 -0.3299
  165DOPC   C2919995   6.566   7.541  15.529  0.7505  0.3804 -0.5779
  165DOPC   H9R19996   6.639   7.623  15.529  1.0319  0.3961  3.9400
  165DOPC  C21019997   6.467   7.535  15.438 -0.8737 -0.2017 -0.1054
  165DOPC  H10R19998   6.464   7.614  15.361  2.7816  0.2876  0.0556
  165DOPC  C21119999   6.366   7.429  15.439  0.5086  0.4307  0.3779
  165DOPC  H11R20000   6.269   7.482  15.427 -0.3228 -0.8285  1.3183
  165DOPC  H11S20001   6.351   7.368  15.531 -0.1915  0.7118  0.4558
  165DOPC  C21220002   6.399   7.334  15.321 -0.7042 -0.3811 -0.6306
  165DOPC  H12R20003   6.507   7.309  15.330 -0.5267  0.5818  0.1251
  165DOPC  H12S20004   6.389   7.382  15.221 -0.6975 -1.0673 -0.9663
  165DOPC  C21320005   6.327   7.198  15.318  0.2158 -0.0033  0.0494
  165DOPC  H13R20006   6.351   7.136  15.406  0.3348  0.5405  0.4037
  165DOPC  H13S20007   6.350   7.146  15.222  0.8249 -1.1995  0.8257
  165DOPC  C21420008   6.176   7.220  15.323 -0.2541 -0.1613 -0.1016
  165DOPC  H14R20009   6.154   7.295  15.244  1.8277  0.3493 -0.2405
  165DOPC  H14S20010   6.143   7.271  15.416 -0.4873  1.7406 -1.1705
  165DOPC  C21520011   6.093   7.099  15.291  0.3807  0.2096 -0.3154
  165DOPC  H15R20012   6.104   7.015  15.364 -1.1094 -0.1536 -0.4568
  165DOPC  H15S20013   6.145   7.068  15.198 -0.6121  1.2774 -1.2606
  165DOPC  C21620014   5.950   7.123  15.255 -0.0437  0.1019 -0.1610
  165DOPC  H16R20015   5.892   7.128  15.350 -0.5374  2.7693 -0.5118
  165DOPC  H16S20016   5.920   7.025  15.214  2.0336  0.7972 -3.8036
  165DOPC  C21720017   5.929   7.226  15.153 -0.3618 -0.3652  0.4372
  165DOPC  H17R20018   6.009   7.215  15.077  2.7515  0.7431  3.2681
  165DOPC  H17S20019   5.941   7.327  15.197  0.7249 -0.0121 -0.6531
  165DOPC  C21820020   5.801   7.203  15.075 -0.0518  0.0867 -0.3019
  165DOPC  H18R20021   5.710   7.230  15.134 -1.4565 -2.0926 -1.3343
  165DOPC  H18S20022   5.798   7.099  15.035  2.4808  0.0446 -0.4976
  165DOPC  H18T20023   5.802   7.264  14.982  0.2159  0.5193 -0.0177
  165DOPC   C3320024   6.871   6.678  15.947 -0.1171  0.2887 -0.1148
  165DOPC   H3X20025   6.980   6.666  15.928 -0.6894 -2.7711 -2.1458
  165DOPC   H3Y20026   6.840   6.785  15.936 -0.1209  0.1791 -1.3423
  165DOPC   C3420027   6.795   6.617  15.830 -0.1254  0.0535 -0.5855
  165DOPC   H4X20028   6.689   6.600  15.858  0.1805 -1.7498 -0.3707
  165DOPC   H4Y20029   6.834   6.513  15.829  1.5431  0.6424 -0.2131
  165DOPC   C3520030   6.826   6.677  15.694  0.4090 -0.0198  0.1360
  165DOPC   H5X20031   6.933   6.705  15.678  0.1059 -0.2748 -2.9642
  165DOPC   H5Y20032   6.767   6.772  15.696 -0.8627 -0.8095  2.0543
  165DOPC   C3620033   6.781   6.591  15.577 -0.0740 -0.1091  0.2588
  165DOPC   H6X20034   6.858   6.511  15.566 -1.6777 -2.0800  2.2461
  165DOPC   H6Y20035   6.678   6.554  15.597 -0.5816 -0.0493 -2.0184
  165DOPC   C3720036   6.767   6.666  15.441  0.0089  0.2659  0.6207
  165DOPC   H7X20037   6.732   6.587  15.371 -0.5967 -0.1415  1.3594
  165DOPC   H7Y20038   6.868   6.696  15.406 -1.3684  1.0451 -3.0528
  165DOPC   C3820039   6.683   6.789  15.439  0.0453 -0.4367  0.3110
  165DOPC   H8X20040   6.725   6.870  15.503 -1.1178 -0.7992  1.5922
  165DOPC   H8Y20041   6.588   6.766  15.492  0.7095  0.9877  2.2410
  165DOPC   C3920042   6.666   6.838  15.302  0.1863  0.2719 -0.0233
  165DOPC   H9X20043   6.751   6.900  15.270  0.2376  1.3034  1.9286
  165DOPC  C31020044   6.564   6.821  15.219  0.2165  0.8630  0.6987
  165DOPC  H10X20045   6.562   6.863  15.118 -0.0334 -1.6632 -0.4333
  165DOPC  C31120046   6.444   6.742  15.264 -0.2572  0.0303  0.2687
  165DOPC  H11X20047   6.412   6.794  15.357  2.6242  1.7067  0.4194
  165DOPC  H11Y20048   6.475   6.642  15.303 -0.6288  0.0557  0.6359
  165DOPC  C31220049   6.328   6.739  15.169 -0.0180 -0.2583  0.1356
  165DOPC  H12X20050   6.371   6.702  15.074  0.0797  0.2213 -0.0097
  165DOPC  H12Y20051   6.286   6.840  15.148  2.0314  1.0220  1.7498
  165DOPC  C31320052   6.213   6.640  15.209 -0.2318 -0.1303 -0.1454
  165DOPC  H13X20053   6.181   6.687  15.304  0.1777  1.1639 -0.6219
  165DOPC  H13Y20054   6.131   6.644  15.134 -0.5582 -1.1646  0.1493
  165DOPC  C31420055   6.261   6.497  15.241  0.2110 -0.2939 -0.4892
  165DOPC  H14X20056   6.326   6.461  15.158 -0.1324  1.5604 -1.5988
  165DOPC  H14Y20057   6.318   6.497  15.336 -0.2907 -2.3313 -0.1243
  165DOPC  C31520058   6.142   6.403  15.251  0.6228 -0.4037  0.9482
  165DOPC  H15X20059   6.059   6.465  15.291  1.2830  1.1985 -0.0557
  165DOPC  H15Y20060   6.159   6.308  15.307  3.2521 -1.1803 -0.9723
  165DOPC  C31620061   6.103   6.352  15.107  0.4424 -0.0368  0.0903
  165DOPC  H16X20062   6.082   6.442  15.044 -2.7034 -0.5324  0.2545
  165DOPC  H16Y20063   6.195   6.302  15.071  0.5491 -1.3600  2.0859
  165DOPC  C31720064   5.979   6.258  15.094 -0.5185 -0.3571 -0.7070
  165DOPC  H17X20065   5.967   6.252  14.984 -0.4709  0.2348 -0.7475
  165DOPC  H17Y20066   5.992   6.153  15.129  0.6792 -0.1477 -0.4822
  165DOPC  C31820067   5.848   6.305  15.152 -0.2686  0.1355 -0.2609
  165DOPC  H18X20068   5.806   6.396  15.105  0.1828 -0.0468 -1.0442
  165DOPC  H18Y20069   5.774   6.224  15.133 -0.2909  0.6431 -2.6233
  165DOPC  H18Z20070   5.835   6.322  15.261 -1.0496  0.5060 -0.4035
  166DOPC     N20071   0.207   1.594  17.003  0.0412  0.2877  0.1538
  166DOPC   C1220072   0.246   1.594  16.861 -0.3221  0.4830  0.0914
  166DOPC  H12A20073   0.351   1.618  16.853 -0.3838  0.5129 -0.7285
  166DOPC  H12B20074   0.203   1.682  16.815  0.8962 -0.0298 -2.1703
  166DOPC   C1320075   0.240   1.725  17.057  0.7442  0.5513 -0.0196
  166DOPC  H13A20076   0.329   1.765  17.011  1.6820 -0.0774  1.1943
  166DOPC  H13B20077   0.159   1.795  17.040 -2.4534 -2.4987  1.4661
  166DOPC  H13C20078   0.242   1.715  17.165 -1.3243  1.2439  0.1369
  166DOPC   C1420079   0.286   1.490  17.080 -0.2841 -0.2217  0.0365
  166DOPC  H14A20080   0.267   1.502  17.185 -2.5444 -0.3185 -0.3080
  166DOPC  H14B20081   0.254   1.391  17.051  1.0761 -0.7305  0.2044
  166DOPC  H14C20082   0.391   1.514  17.072 -0.3557 -0.0537 -0.4313
  166DOPC   C1520083   0.060   1.572  17.029 -0.5487  0.4078  0.0350
  166DOPC  H15A20084   0.040   1.575  17.135  2.2988  3.3273  0.6359
  166DOPC  H15B20085   0.032   1.472  16.998 -1.9993  0.8785 -0.2985
  166DOPC  H15C20086  -0.006   1.641  16.977 -1.3541 -1.3710 -1.4269
  166DOPC   C1120087   0.211   1.469  16.780 -0.4771 -0.6341  0.3726
  166DOPC  H11A20088   0.102   1.451  16.792 -0.7744  1.2988  0.9323
  166DOPC  H11B20089   0.228   1.497  16.673 -0.1233 -1.0988  0.3065
  166DOPC     P20090   0.435   1.348  16.772 -0.0621  0.2799  0.2523
  166DOPC   O1320091   0.476   1.218  16.818  0.5374  0.9350 -0.0852
  166DOPC   O1420092   0.509   1.464  16.826  0.2561  0.1222  0.4846
  166DOPC   O1220093   0.289   1.360  16.826  0.0477  0.2551  0.1482
  166DOPC   O1120094   0.417   1.350  16.610  0.0804  0.4653 -0.1448
  166DOPC    C120095   0.453   1.220  16.551 -0.1763 -0.0659  0.7186
  166DOPC    HA20096   0.376   1.140  16.558 -1.8790  1.5781  1.4176
  166DOPC    HB20097   0.550   1.181  16.590  0.2866  0.8942  0.5499
  166DOPC    C220098   0.478   1.237  16.399  0.3392 -0.2786  0.6765
  166DOPC    HS20099   0.528   1.147  16.357 -0.4646 -0.0860 -0.7914
  166DOPC   O2120100   0.552   1.359  16.367 -0.1620  0.2796  0.2210
  166DOPC   C2120101   0.676   1.363  16.404  0.1774 -0.4741  0.5451
  166DOPC   O2220102   0.748   1.276  16.450  0.1584 -0.0577  0.2519
  166DOPC   C2220103   0.726   1.509  16.365  0.0537  0.2280  0.0071
  166DOPC   H2R20104   0.717   1.579  16.451  1.8394 -0.8778  1.1540
  166DOPC   H2S20105   0.658   1.545  16.284 -1.6066 -0.4956  1.0239
  166DOPC    C320106   0.347   1.248  16.318 -0.5121 -0.7003  0.6214
  166DOPC    HX20107   0.285   1.327  16.367 -0.1780 -0.9576  1.4810
  166DOPC    HY20108   0.289   1.155  16.337 -0.3855 -0.7007  1.0189
  166DOPC   O3120109   0.360   1.268  16.174 -0.0596  0.1672 -0.5445
  166DOPC   C3120110   0.363   1.395  16.126 -0.0316 -0.0541 -0.4385
  166DOPC   O3220111   0.352   1.499  16.187 -0.3206  0.4066  0.1505
  166DOPC   C3220112   0.371   1.392  15.970  0.9288  0.3066 -0.4414
  166DOPC   H2X20113   0.462   1.345  15.925 -0.1483 -0.9707 -1.3754
  166DOPC   H2Y20114   0.289   1.323  15.941  2.3248 -1.7902  0.3680
  166DOPC   C2320115   0.860   1.503  16.308 -0.0768  0.1648  0.4721
  166DOPC   H3R20116   0.935   1.469  16.382 -0.8600 -0.3652  1.0476
  166DOPC   H3S20117   0.891   1.609  16.292  0.2317  0.3824  2.2838
  166DOPC   C2420118   0.873   1.432  16.169 -0.2725 -0.8703  0.4337
  166DOPC   H4R20119   0.836   1.328  16.182  0.6758 -1.3177 -0.3527
  166DOPC   H4S20120   0.981   1.426  16.144 -0.5198 -0.4216 -0.7830
  166DOPC   C2520121   0.794   1.495  16.049  0.3358  0.0775 -0.0702
  166DOPC   H5R20122   0.838   1.596  16.029 -1.3283  0.7234 -0.6527
  166DOPC   H5S20123   0.686   1.489  16.072  0.1657 -1.7226 -1.1633
  166DOPC   C2620124   0.812   1.406  15.930  0.7106  0.1322 -0.1512
  166DOPC   H6R20125   0.765   1.308  15.954  2.1693 -0.8099 -1.0007
  166DOPC   H6S20126   0.918   1.382  15.907  1.3430  1.3138  1.3647
  166DOPC   C2720127   0.727   1.461  15.812 -0.6204  0.2861 -0.6084
  166DOPC   H7R20128   0.775   1.550  15.766  0.6364  0.5846  1.1334
  166DOPC   H7S20129   0.640   1.505  15.865  0.6498  2.6879 -0.3714
  166DOPC   C2820130   0.688   1.350  15.719 -0.5715  0.7013  0.1752
  166DOPC   H8R20131   0.623   1.384  15.636 -0.9483 -0.8872 -0.2215
  166DOPC   H8S20132   0.618   1.275  15.761  0.3012 -2.0014 -2.7816
  166DOPC   C2920133   0.798   1.255  15.678 -0.3022 -0.7316  0.6523
  166DOPC   H9R20134   0.865   1.202  15.749  0.1502 -1.8196 -0.5527
  166DOPC  C21020135   0.836   1.231  15.550  0.1372 -0.5952  0.2789
  166DOPC  H10R20136   0.918   1.161  15.532  0.1275 -0.0433 -2.3587
  166DOPC  C21120137   0.783   1.292  15.422 -0.0765  0.1253 -0.2072
  166DOPC  H11R20138   0.673   1.302  15.436 -0.4027 -2.5979 -0.3535
  166DOPC  H11S20139   0.787   1.218  15.339  0.1507 -1.0792  0.8398
  166DOPC  C21220140   0.846   1.427  15.386  0.3037  0.4650 -0.0009
  166DOPC  H12R20141   0.941   1.447  15.440  0.6366  1.2995 -0.8854
  166DOPC  H12S20142   0.764   1.500  15.402 -2.0679 -2.1212  0.6324
  166DOPC  C21320143   0.890   1.430  15.243  0.7479 -0.2017  0.3508
  166DOPC  H13R20144   0.959   1.349  15.208  1.5262  1.3412 -1.8485
  166DOPC  H13S20145   0.943   1.527  15.231 -1.4761  0.8856 -1.1427
  166DOPC  C21420146   0.776   1.425  15.142  0.1684 -0.1424  0.0787
  166DOPC  H14R20147   0.681   1.380  15.177 -0.0857 -0.2640 -0.7408
  166DOPC  H14S20148   0.813   1.361  15.059  0.9546 -1.2571  1.2490
  166DOPC  C21520149   0.742   1.567  15.090 -0.0351 -0.0666 -0.2310
  166DOPC  H15R20150   0.686   1.561  14.994 -1.7243  1.5332  0.6141
  166DOPC  H15S20151   0.835   1.626  15.071 -0.4293  0.0240 -2.0569
  166DOPC  C21620152   0.658   1.633  15.196 -0.2320  0.1078 -0.3897
  166DOPC  H16R20153   0.721   1.655  15.285  1.6951 -1.9235 -1.1413
  166DOPC  H16S20154   0.572   1.570  15.227  0.5824 -0.0153  1.8136
  166DOPC  C21720155   0.608   1.760  15.144 -0.0557 -0.0931  1.0122
  166DOPC  H17R20156   0.535   1.807  15.213 -0.0200  1.4740  0.0344
  166DOPC  H17S20157   0.552   1.732  15.053 -0.3541  1.6815  0.6101
  166DOPC  C21820158   0.708   1.874  15.105  0.1662 -0.3516  0.4557
  166DOPC  H18R20159   0.766   1.846  15.015 -4.5454 -2.0061 -2.4919
  166DOPC  H18S20160   0.774   1.903  15.189 -1.4185  0.1849  1.5816
  166DOPC  H18T20161   0.657   1.968  15.078  2.3559  0.8630  0.3606
  166DOPC   C3320162   0.352   1.532  15.905  0.0136 -0.2703 -0.5738
  166DOPC   H3X20163   0.427   1.606  15.941 -0.8746 -0.6461  2.2373
  166DOPC   H3Y20164   0.261   1.579  15.946  0.0924 -0.2863 -0.3752
  166DOPC   C3420165   0.351   1.541  15.747 -0.2546  0.5582 -0.1191
  166DOPC   H4X20166   0.444   1.502  15.702 -0.1048 -0.3508  0.9314
  166DOPC   H4Y20167   0.335   1.647  15.718  0.4937  1.0264  1.0905
  166DOPC   C3520168   0.236   1.456  15.686  0.0365 -0.2352 -0.1578
  166DOPC   H5X20169   0.144   1.518  15.688  1.4059  1.9060  0.0948
  166DOPC   H5Y20170   0.215   1.362  15.741 -1.1129  0.2727  0.2885
  166DOPC   C3620171   0.261   1.442  15.538  0.2121 -0.1702 -0.4037
  166DOPC   H6X20172   0.289   1.543  15.502  2.6386  0.0626  1.7803
  166DOPC   H6Y20173   0.354   1.383  15.523 -0.4144 -1.2299 -0.2373
  166DOPC   C3720174   0.147   1.368  15.457 -1.2762  0.4709  0.0446
  166DOPC   H7X20175   0.150   1.263  15.493 -3.0881  0.2854 -0.2911
  166DOPC   H7Y20176   0.047   1.408  15.480 -1.7732 -0.8070  0.1972
  166DOPC   C3820177   0.162   1.375  15.302 -0.0438 -0.0268  0.1121
  166DOPC   H8X20178   0.082   1.309  15.262 -0.5228  0.2085  0.6747
  166DOPC   H8Y20179   0.265   1.341  15.274 -0.6752 -0.5761 -1.6643
  166DOPC   C3920180   0.129   1.507  15.244  0.6316 -0.8046  0.1224
  166DOPC   H9X20181   0.031   1.551  15.265  0.9158  1.3307 -2.4588
  166DOPC  C31020182   0.189   1.572  15.136  0.4522 -0.2816  0.2311
  166DOPC  H10X20183   0.137   1.661  15.097  1.6101 -0.2352 -1.3213
  166DOPC  C31120184   0.302   1.521  15.049  0.2336  0.4007  0.1026
  166DOPC  H11X20185   0.344   1.430  15.098  0.7005  0.3326 -0.4121
  166DOPC  H11Y20186   0.383   1.596  15.054  0.4446  0.3237 -1.6434
  166DOPC  C31220187   0.253   1.503  14.906  0.0546  0.0368  0.5687
  166DOPC  H12X20188   0.350   1.500  14.851 -0.8161 -2.2990 -0.9909
  166DOPC  H12Y20189   0.208   1.597  14.867  2.0384  0.3800 -1.0781
  166DOPC  C31320190   0.169   1.374  14.897  0.1125  0.3317 -0.2462
  166DOPC  H13X20191   0.235   1.288  14.920  0.0163  0.8262  2.0823
  166DOPC  H13Y20192   0.089   1.378  14.974 -1.2381  1.4878 -1.6360
  166DOPC  C31420193   0.105   1.371  14.755  0.3816  0.9429 -0.1114
  166DOPC  H14X20194   0.025   1.447  14.749 -1.4921 -0.8461  0.9548
  166DOPC  H14Y20195   0.183   1.393  14.679  0.8486 -1.5677 -0.4322
  166DOPC  C31520196   0.034   1.242  14.730 -1.2893 -0.2952 -0.3651
  166DOPC  H15X20197   0.120   1.172  14.725 -0.7177  0.4184 -0.7405
  166DOPC  H15Y20198  -0.017   1.233  14.632  1.5281  0.2808 -2.0022
  166DOPC  C31620199  -0.067   1.191  14.840  0.3623 -0.0170 -0.5199
  166DOPC  H16X20200  -0.025   1.185  14.943 -2.8431  0.6663  0.9318
  166DOPC  H16Y20201  -0.145   1.269  14.849 -0.9101 -1.3219  0.0835
  166DOPC  C31720202  -0.133   1.056  14.805 -0.3381  0.0352 -0.1470
  166DOPC  H17X20203  -0.179   1.059  14.703  1.2580 -1.7039 -0.9814
  166DOPC  H17Y20204  -0.062   0.970  14.796  0.6692  0.7248  0.9958
  166DOPC  C31820205  -0.252   1.018  14.893 -0.0179 -0.2406 -0.3593
  166DOPC  H18X20206  -0.209   1.011  14.995 -0.5795 -0.9459 -0.1558
  166DOPC  H18Y20207  -0.335   1.092  14.900 -0.0461 -0.3634  0.9710
  166DOPC  H18Z20208  -0.302   0.924  14.860 -0.6027 -0.8537  2.0114
  167DOPC     N20209   6.679   0.790  17.025 -0.7445 -0.1414 -0.6361
  167DOPC   C1220210   6.614   0.922  17.076  0.2026 -0.1682 -0.3568
  167DOPC  H12A20211   6.565   0.905  17.171  0.3182 -0.0538 -0.2757
  167DOPC  H12B20212   6.540   0.953  17.005 -0.8740 -0.9481  0.3859
  167DOPC   C1320213   6.813   0.764  17.086  0.2445 -0.8312  0.8529
  167DOPC  H13A20214   6.861   0.676  17.048  0.2586 -0.1451 -0.7730
  167DOPC  H13B20215   6.882   0.847  17.087 -1.1140  0.3436  1.4954
  167DOPC  H13C20216   6.798   0.751  17.193 -0.0975  1.1117  1.0851
  167DOPC   C1420217   6.688   0.801  16.876  0.7669  0.0525  0.0497
  167DOPC  H14A20218   6.767   0.869  16.848  0.2215  1.2739  1.3475
  167DOPC  H14B20219   6.709   0.708  16.825  0.0341 -1.0432  1.6536
  167DOPC  H14C20220   6.600   0.851  16.838  1.7942 -1.6915 -5.5937
  167DOPC   C1520221   6.585   0.679  17.046 -0.0571  0.2264 -0.9345
  167DOPC  H15A20222   6.490   0.698  16.997 -1.1165  0.3443  1.0594
  167DOPC  H15B20223   6.562   0.657  17.149 -0.4871 -0.7622 -1.2269
  167DOPC  H15C20224   6.624   0.588  17.001  0.0357 -0.9735  1.4382
  167DOPC   C1120225   6.716   1.031  17.096  0.3522  0.5694  0.5640
  167DOPC  H11A20226   6.663   1.121  17.134 -0.1333  1.3557 -1.8233
  167DOPC  H11B20227   6.793   0.995  17.168 -0.7591  0.1557  1.5839
  167DOPC     P20228   6.927   1.081  16.937  0.0478  0.2336  0.0459
  167DOPC   O1320229   7.008   1.037  17.052  0.0488 -0.1193 -0.1454
  167DOPC   O1420230   6.969   1.210  16.886  0.6286 -0.1127  0.4167
  167DOPC   O1220231   6.775   1.082  16.975  0.6418  0.5887 -0.2363
  167DOPC   O1120232   6.942   0.979  16.818  0.3054  0.1574  0.5128
  167DOPC    C120233   7.038   0.870  16.823  0.8131 -0.9843 -0.3411
  167DOPC    HA20234   7.000   0.788  16.758  1.0545 -1.2391 -0.1658
  167DOPC    HB20235   7.057   0.824  16.922 -0.3236 -0.8981 -0.0713
  167DOPC    C220236   7.178   0.915  16.769 -0.1214  0.4349  0.1580
  167DOPC    HS20237   7.209   0.995  16.840 -1.2865  0.0953  1.0916
  167DOPC   O2120238   7.166   0.967  16.637 -0.3997 -0.0263 -0.0876
  167DOPC   C2120239   7.255   1.054  16.604  0.4923 -0.0733  0.6334
  167DOPC   O2220240   7.344   1.100  16.672 -0.4728 -0.5401 -0.8069
  167DOPC   C2220241   7.214   1.094  16.463 -0.0405 -0.7916  0.4772
  167DOPC   H2R20242   7.113   1.134  16.486  1.2605  3.7228 -0.7937
  167DOPC   H2S20243   7.217   0.999  16.404 -0.1138 -1.4362  1.4939
  167DOPC    C320244   7.285   0.802  16.789 -0.7331 -0.3322 -0.4312
  167DOPC    HX20245   7.296   0.778  16.896  1.2502 -1.1179 -0.7577
  167DOPC    HY20246   7.385   0.834  16.753 -0.4188 -2.1992 -1.3197
  167DOPC   O3120247   7.249   0.688  16.717 -0.1189  0.3203  0.5453
  167DOPC   C3120248   7.287   0.663  16.596  0.1720 -0.1293 -0.0655
  167DOPC   O3220249   7.354   0.736  16.523 -0.0484 -0.3702  0.1423
  167DOPC   C3220250   7.234   0.525  16.555 -0.4593 -0.0106 -0.3087
  167DOPC   H2X20251   7.217   0.463  16.646  0.0461  1.0913  0.5555
  167DOPC   H2Y20252   7.136   0.539  16.504 -0.1685  0.4480 -0.7464
  167DOPC   C2320253   7.300   1.202  16.386 -0.1281 -0.1437 -0.1287
  167DOPC   H3R20254   7.400   1.157  16.369 -0.1505 -1.4674  2.6897
  167DOPC   H3S20255   7.304   1.291  16.452 -0.7885 -0.5077  0.4197
  167DOPC   C2420256   7.240   1.255  16.253 -0.0878 -0.0076  0.0509
  167DOPC   H4R20257   7.320   1.312  16.199 -0.5924  0.7714  0.1097
  167DOPC   H4S20258   7.159   1.328  16.271  0.6316  0.4827  1.4498
  167DOPC   C2520259   7.199   1.148  16.149 -0.7482  0.0485 -0.3197
  167DOPC   H5R20260   7.100   1.104  16.177 -0.0187 -0.8993  0.9149
  167DOPC   H5S20261   7.275   1.067  16.149 -1.2197 -0.3993 -0.1789
  167DOPC   C2620262   7.193   1.206  16.007 -0.2098 -0.3686 -0.0067
  167DOPC   H6R20263   7.293   1.240  15.973 -0.9646  0.2444 -1.7254
  167DOPC   H6S20264   7.140   1.304  16.010  0.5115  0.0213  0.2494
  167DOPC   C2720265   7.142   1.110  15.897 -0.2830  0.2461  0.0189
  167DOPC   H7R20266   7.031   1.097  15.893 -0.5369  2.3130 -1.8609
  167DOPC   H7S20267   7.191   1.011  15.910  0.7531  0.6523 -0.7172
  167DOPC   C2820268   7.191   1.164  15.764 -0.0983 -0.5674 -0.5882
  167DOPC   H8R20269   7.300   1.169  15.746 -0.4585  2.0292 -2.7420
  167DOPC   H8S20270   7.155   1.269  15.762  0.8814 -0.0341  2.9457
  167DOPC   C2920271   7.129   1.090  15.643 -0.5016 -0.2841 -0.5912
  167DOPC   H9R20272   7.020   1.096  15.630 -0.4989 -1.1241 -1.0868
  167DOPC  C21020273   7.195   1.010  15.556  0.2972  0.1963 -0.0900
  167DOPC  H10R20274   7.136   0.979  15.468 -1.4404  2.0186  0.3773
  167DOPC  C21120275   7.340   0.969  15.545  0.1637  0.2724 -0.6008
  167DOPC  H11R20276   7.354   0.875  15.489  0.9268 -1.5622  2.4081
  167DOPC  H11S20277   7.380   0.940  15.645  1.9265 -0.1484 -1.4114
  167DOPC  C21220278   7.437   1.086  15.502 -0.2792 -0.6538 -0.1680
  167DOPC  H12R20279   7.425   1.116  15.396 -2.1850  0.1639  0.2382
  167DOPC  H12S20280   7.409   1.178  15.557  0.4527  0.5708 -1.7735
  167DOPC  C21320281   7.583   1.052  15.520 -0.7631  0.1467 -0.2524
  167DOPC  H13R20282   7.642   1.116  15.450  0.2823 -1.5337 -0.9784
  167DOPC  H13S20283   7.608   0.955  15.472  0.4909  0.1431  0.3583
  167DOPC  C21420284   7.645   1.050  15.663 -0.0886 -0.4725  0.6627
  167DOPC  H14R20285   7.749   1.011  15.662  0.1964  0.2578 -0.5317
  167DOPC  H14S20286   7.593   0.972  15.723  0.2677 -0.4057  1.0614
  167DOPC  C21520287   7.628   1.184  15.731  0.2068  0.6048 -0.2482
  167DOPC  H15R20288   7.518   1.201  15.742  0.3977  0.4830  2.7524
  167DOPC  H15S20289   7.672   1.264  15.668  1.5998  0.9887  1.1614
  167DOPC  C21620290   7.695   1.187  15.871 -0.1448 -0.0353  0.2669
  167DOPC  H16R20291   7.802   1.155  15.869 -0.1043  0.0487 -2.5808
  167DOPC  H16S20292   7.642   1.107  15.926 -1.6687 -0.0461 -1.1707
  167DOPC  C21720293   7.683   1.325  15.934  0.8283 -0.1732 -0.1944
  167DOPC  H17R20294   7.583   1.357  15.898  0.3407 -0.6835  0.6595
  167DOPC  H17S20295   7.757   1.396  15.891  0.6068  1.4693  1.9862
  167DOPC  C21820296   7.681   1.325  16.087 -0.6320 -0.0470  0.1347
  167DOPC  H18R20297   7.785   1.327  16.125 -0.1347  0.6813 -1.2022
  167DOPC  H18S20298   7.621   1.244  16.133  0.4388 -0.7241  0.3714
  167DOPC  H18T20299   7.639   1.421  16.127 -2.5638  0.3063 -2.5216
  167DOPC   C3320300   7.317   0.447  16.454 -0.7477 -0.4919 -0.4248
  167DOPC   H3X20301   7.404   0.410  16.513 -0.7436  1.6506  1.0232
  167DOPC   H3Y20302   7.369   0.520  16.389  3.3638 -1.0150  1.9032
  167DOPC   C3420303   7.247   0.331  16.381 -0.8062  0.3620 -0.0361
  167DOPC   H4X20304   7.163   0.379  16.327  0.1471 -0.6314 -2.5106
  167DOPC   H4Y20305   7.210   0.263  16.462  2.1569  0.2050  1.3241
  167DOPC   C3520306   7.330   0.264  16.278 -0.2805  0.2329 -0.1612
  167DOPC   H5X20307   7.404   0.196  16.325 -1.6746 -1.5412 -0.4216
  167DOPC   H5Y20308   7.384   0.344  16.224 -1.8332  0.4726 -1.4249
  167DOPC   C3620309   7.240   0.205  16.173 -0.0835  0.0588 -0.0246
  167DOPC   H6X20310   7.178   0.281  16.122  0.2473 -0.1851 -0.8027
  167DOPC   H6Y20311   7.298   0.140  16.104 -1.7883 -0.0576 -1.4123
  167DOPC   C3720312   7.139   0.111  16.231 -0.0772  0.2623  0.2544
  167DOPC   H7X20313   7.067   0.162  16.298 -1.7470  0.2311 -1.4324
  167DOPC   H7Y20314   7.083   0.062  16.149  0.6078  1.9088 -1.2641
  167DOPC   C3820315   7.204  -0.013  16.311 -0.2187 -0.3509  0.1884
  167DOPC   H8X20316   7.119  -0.080  16.335 -2.0008  1.5946 -0.4842
  167DOPC   H8Y20317   7.244   0.024  16.408  0.4345  0.2934 -0.3054
  167DOPC   C3920318   7.314  -0.080  16.231 -0.1182 -0.5603 -0.4550
  167DOPC   H9X20319   7.405  -0.021  16.214 -1.4656  1.5122 -0.8430
  167DOPC  C31020320   7.292  -0.192  16.160 -0.4468 -0.1416 -0.1320
  167DOPC  H10X20321   7.377  -0.238  16.108 -0.7053  0.8497 -1.4775
  167DOPC  C31120322   7.160  -0.270  16.146 -0.6117 -0.2358 -0.1278
  167DOPC  H11X20323   7.134  -0.300  16.042  1.4715  0.4141 -0.8946
  167DOPC  H11Y20324   7.080  -0.199  16.176  0.5198  1.4473 -0.9226
  167DOPC  C31220325   7.161  -0.405  16.226 -0.2631 -1.0086  0.2305
  167DOPC  H12X20326   7.057  -0.443  16.220 -0.2086 -1.2001  0.5091
  167DOPC  H12Y20327   7.177  -0.384  16.334 -1.8443 -1.0269  0.4814
  167DOPC  C31320328   7.254  -0.516  16.168 -0.3874  0.2456 -0.4502
  167DOPC  H13X20329   7.361  -0.486  16.174 -0.8917  2.0564  0.0013
  167DOPC  H13Y20330   7.245  -0.600  16.240 -1.4930  2.4085  2.0854
  167DOPC  C31420331   7.221  -0.558  16.021  0.0572 -0.0681  0.3004
  167DOPC  H14X20332   7.112  -0.564  16.002  0.5293 -1.1993 -2.7062
  167DOPC  H14Y20333   7.267  -0.486  15.950  0.1304 -0.7551 -0.3632
  167DOPC  C31520334   7.282  -0.696  15.984  0.7313 -0.2717  1.1247
  167DOPC  H15X20335   7.233  -0.771  16.050  3.1927 -2.1528  0.9242
  167DOPC  H15Y20336   7.390  -0.696  16.007  0.9232  0.9467  0.2937
  167DOPC  C31620337   7.262  -0.740  15.834 -0.4194 -0.2702  0.2804
  167DOPC  H16X20338   7.154  -0.754  15.814 -0.7173 -1.3331  2.3492
  167DOPC  H16Y20339   7.306  -0.663  15.767 -1.6068  1.5028  1.4296
  167DOPC  C31720340   7.324  -0.875  15.801 -0.7522  0.3897 -0.3558
  167DOPC  H17X20341   7.434  -0.869  15.817 -0.6151 -1.8642 -0.0957
  167DOPC  H17Y20342   7.296  -0.954  15.875  0.2830  1.5907  1.3911
  167DOPC  C31820343   7.295  -0.926  15.663 -0.1862  0.5340 -0.9521
  167DOPC  H18X20344   7.332  -0.857  15.584  1.5449  0.5044 -0.2097
  167DOPC  H18Y20345   7.337  -1.027  15.646  2.2865  1.4538 -0.7651
  167DOPC  H18Z20346   7.185  -0.930  15.646 -0.3370 -0.0583  0.0978
  168DOPC     N20347   2.811   6.390  17.320  0.1905 -0.2784  0.8721
  168DOPC   C1220348   2.692   6.447  17.239  0.1263 -0.6899  0.0785
  168DOPC  H12A20349   2.723   6.540  17.194  0.8255 -1.3987 -0.9354
  168DOPC  H12B20350   2.611   6.474  17.306 -0.0058  0.2312 -0.4403
  168DOPC   C1320351   2.930   6.375  17.233  0.6035  0.4899  0.6062
  168DOPC  H13A20352   2.953   6.474  17.195 -2.0842  1.0460  0.2633
  168DOPC  H13B20353   3.015   6.337  17.287 -0.5146 -0.6335  1.6324
  168DOPC  H13C20354   2.897   6.315  17.150 -1.3084  2.9878 -0.5950
  168DOPC   C1420355   2.771   6.262  17.376 -0.3054 -0.2929 -0.0627
  168DOPC  H14A20356   2.847   6.220  17.439  0.3639 -2.0942 -1.9693
  168DOPC  H14B20357   2.678   6.272  17.430 -0.1233  2.1414 -0.0803
  168DOPC  H14C20358   2.761   6.191  17.295 -1.5405  0.4375 -0.5810
  168DOPC   C1520359   2.847   6.480  17.433 -0.3441 -0.5058 -0.5525
  168DOPC  H15A20360   2.760   6.508  17.491  0.3283  1.0713 -0.2690
  168DOPC  H15B20361   2.903   6.569  17.410 -1.0309 -0.0745 -0.5742
  168DOPC  H15C20362   2.907   6.424  17.503 -0.0554  0.1670 -0.2584
  168DOPC   C1120363   2.637   6.372  17.115 -0.1060  0.5331 -0.4364
  168DOPC  H11A20364   2.620   6.265  17.143  2.1067 -0.0863 -1.2705
  168DOPC  H11B20365   2.545   6.413  17.068 -0.6796  0.4600  0.5765
  168DOPC     P20366   2.756   6.483  16.912 -0.3059 -0.0974 -0.2478
  168DOPC   O1320367   2.868   6.447  16.822  0.6123  0.0125 -0.1970
  168DOPC   O1420368   2.767   6.610  16.984 -0.1161  0.2156 -0.4561
  168DOPC   O1220369   2.740   6.360  17.014  0.2920 -0.6469 -0.4077
  168DOPC   O1120370   2.614   6.492  16.831 -0.1776 -0.4929  0.1233
  168DOPC    C120371   2.574   6.372  16.761  0.1098  0.3879  0.6915
  168DOPC    HA20372   2.466   6.358  16.778 -0.0224 -1.5196 -1.3229
  168DOPC    HB20373   2.618   6.278  16.800 -1.9619 -1.8873 -2.0251
  168DOPC    C220374   2.599   6.382  16.605 -0.0183  0.4773 -0.3070
  168DOPC    HS20375   2.695   6.438  16.605  0.2796 -0.0280  1.0321
  168DOPC   O2120376   2.499   6.465  16.539  0.4499  0.2642 -0.1806
  168DOPC   C2120377   2.545   6.588  16.499 -0.9380  0.1173  0.2173
  168DOPC   O2220378   2.657   6.633  16.514  0.3167 -0.2044 -0.1160
  168DOPC   C2220379   2.432   6.658  16.427  0.8854  0.7599 -0.9689
  168DOPC   H2R20380   2.426   6.758  16.476 -1.9858  0.1741  0.0932
  168DOPC   H2S20381   2.338   6.600  16.439 -0.6498  3.3785  0.5242
  168DOPC    C320382   2.600   6.242  16.539  0.5268 -0.4634 -0.2601
  168DOPC    HX20383   2.495   6.207  16.550 -0.2219  1.6096 -0.3627
  168DOPC    HY20384   2.667   6.165  16.584  0.1134 -0.9930 -0.5454
  168DOPC   O3120385   2.638   6.241  16.395  0.5049 -0.3399  0.4144
  168DOPC   C3120386   2.767   6.241  16.374 -0.0020 -0.0856 -0.3695
  168DOPC   O3220387   2.846   6.253  16.467  0.0281  0.1869 -0.1740
  168DOPC   C3220388   2.813   6.220  16.227 -0.5343  0.0011  0.1270
  168DOPC   H2X20389   2.857   6.118  16.222  2.2574  1.1416 -0.6161
  168DOPC   H2Y20390   2.726   6.236  16.160 -0.1768  0.2072 -0.2985
  168DOPC   C2320391   2.464   6.684  16.273 -0.1593  0.3299  0.3440
  168DOPC   H3R20392   2.558   6.741  16.256 -0.8065  1.9225  1.7867
  168DOPC   H3S20393   2.377   6.742  16.235 -0.3868 -0.7043 -0.7723
  168DOPC   C2420394   2.476   6.541  16.204  0.1363  0.0580 -0.5737
  168DOPC   H4R20395   2.400   6.468  16.239  0.2980 -0.0181 -0.3834
  168DOPC   H4S20396   2.574   6.503  16.241  0.6569  0.0897 -1.8583
  168DOPC   C2520397   2.446   6.562  16.058 -0.2541 -0.0174  1.3042
  168DOPC   H5R20398   2.493   6.660  16.036  1.4922 -1.1159 -0.0732
  168DOPC   H5S20399   2.338   6.566  16.031 -0.0995 -0.6730  0.5380
  168DOPC   C2620400   2.527   6.452  15.977  0.6044 -0.6977  0.5559
  168DOPC   H6R20401   2.495   6.346  15.976 -1.4461 -0.1230 -0.5253
  168DOPC   H6S20402   2.631   6.456  16.016  1.1971 -1.7083 -0.8499
  168DOPC   C2720403   2.543   6.482  15.823 -0.1234  0.0674  0.2397
  168DOPC   H7R20404   2.538   6.593  15.813 -1.4744 -0.0293 -0.3951
  168DOPC   H7S20405   2.444   6.459  15.776 -0.1733  0.5353  0.1071
  168DOPC   C2820406   2.653   6.415  15.750 -0.0661  0.1526 -0.9905
  168DOPC   H8R20407   2.747   6.455  15.795 -0.5646  0.0885  0.1258
  168DOPC   H8S20408   2.629   6.444  15.645 -0.2205  2.0594 -0.4724
  168DOPC   C2920409   2.667   6.264  15.768  0.4671  0.1091  0.8164
  168DOPC   H9R20410   2.576   6.214  15.806 -0.9210  1.4248 -0.6691
  168DOPC  C21020411   2.764   6.182  15.722 -0.0060 -0.6694  0.4236
  168DOPC  H10R20412   2.759   6.078  15.756 -0.0208 -1.1441 -0.9728
  168DOPC  C21120413   2.888   6.228  15.632 -0.0297  0.2191 -0.5741
  168DOPC  H11R20414   2.978   6.167  15.653 -0.8531 -0.8722 -0.1357
  168DOPC  H11S20415   2.909   6.337  15.643 -1.8336  0.4992  0.6217
  168DOPC  C21220416   2.851   6.215  15.477  0.0537 -0.6170 -0.6668
  168DOPC  H12R20417   2.763   6.282  15.466 -0.7351 -1.7884 -1.7374
  168DOPC  H12S20418   2.806   6.118  15.448 -1.2920  0.3007 -1.7910
  168DOPC  C21320419   2.966   6.232  15.379  0.0041 -0.0819 -0.0967
  168DOPC  H13R20420   3.015   6.133  15.370  1.2530  0.5810 -0.8758
  168DOPC  H13S20421   3.040   6.307  15.417  0.5509  0.5519 -2.2895
  168DOPC  C21420422   2.916   6.271  15.237 -0.6611 -0.3322 -1.1185
  168DOPC  H14R20423   2.864   6.368  15.251 -0.9278 -0.4198 -1.4835
  168DOPC  H14S20424   2.832   6.205  15.205 -0.6257 -0.8254 -0.2242
  168DOPC  C21520425   3.028   6.266  15.135  0.2473  0.4341 -0.3406
  168DOPC  H15R20426   2.987   6.230  15.038 -1.5029  0.0311  0.5052
  168DOPC  H15S20427   3.105   6.198  15.176 -1.3249 -0.7130  0.8373
  168DOPC  C21620428   3.089   6.408  15.130 -0.8690  0.4127 -0.2052
  168DOPC  H16R20429   3.147   6.430  15.223 -2.1151  1.7914  0.2758
  168DOPC  H16S20430   3.015   6.488  15.111  0.2768  1.1499 -1.7898
  168DOPC  C21720431   3.188   6.415  15.017  0.6183 -0.2795  0.1247
  168DOPC  H17R20432   3.239   6.514  15.020 -1.1498  0.6668  0.6882
  168DOPC  H17S20433   3.132   6.405  14.921  0.3405 -0.3365  0.2910
  168DOPC  C21820434   3.305   6.318  15.019 -0.2267 -0.4521  0.1271
  168DOPC  H18R20435   3.376   6.335  14.935  1.3679  0.7358  1.6405
  168DOPC  H18S20436   3.266   6.217  14.998  1.1254 -1.2076  1.0946
  168DOPC  H18T20437   3.353   6.327  15.119  0.6147 -0.0824 -0.2987
  168DOPC   C3320438   2.934   6.309  16.195 -0.2135 -0.5088 -0.2310
  168DOPC   H3X20439   2.972   6.277  16.095  0.5527  0.4335 -0.2605
  168DOPC   H3Y20440   3.019   6.296  16.265 -1.1296  2.0274  1.4616
  168DOPC   C3420441   2.894   6.454  16.167 -0.0076  0.6049  0.5581
  168DOPC   H4X20442   2.784   6.462  16.154 -0.1086  0.0507  1.0147
  168DOPC   H4Y20443   2.942   6.487  16.072  1.8064  1.5528  1.7570
  168DOPC   C3520444   2.925   6.555  16.281  0.5388 -0.6597  0.1573
  168DOPC   H5X20445   3.028   6.571  16.320 -0.2806 -1.0361  2.6510
  168DOPC   H5Y20446   2.868   6.524  16.371 -2.0854  2.1189 -0.3766
  168DOPC   C3620447   2.875   6.693  16.235 -0.2417 -1.0789  0.0128
  168DOPC   H6X20448   2.934   6.722  16.145  2.8571 -1.5752  1.7301
  168DOPC   H6Y20449   2.769   6.696  16.202  0.2446  0.2657 -1.5766
  168DOPC   C3720450   2.899   6.808  16.328  0.0387 -0.2435 -0.3529
  168DOPC   H7X20451   2.820   6.787  16.403  0.4857  1.2333  0.5801
  168DOPC   H7Y20452   2.999   6.792  16.374 -0.7963 -1.9311  1.0087
  168DOPC   C3820453   2.885   6.947  16.264  1.0714  0.1633 -0.6820
  168DOPC   H8X20454   2.958   6.942  16.181  2.4570  0.7418  0.4648
  168DOPC   H8Y20455   2.933   7.026  16.325 -1.2752  2.0243 -1.0814
  168DOPC   C3920456   2.748   6.999  16.236 -0.1327  0.3289 -0.2573
  168DOPC   H9X20457   2.669   6.984  16.312  1.6348 -0.3378  1.5479
  168DOPC  C31020458   2.721   7.072  16.130 -0.1700  0.0770  0.1938
  168DOPC  H10X20459   2.630   7.133  16.129 -0.1365  0.1896  1.5752
  168DOPC  C31120460   2.825   7.129  16.032 -0.0821 -0.8613 -0.0007
  168DOPC  H11X20461   2.931   7.107  16.057 -0.3520 -1.7257  0.4436
  168DOPC  H11Y20462   2.829   7.240  16.041 -3.0893 -0.4647 -2.1185
  168DOPC  C31220463   2.798   7.094  15.889  0.2879  0.1552  0.4540
  168DOPC  H12X20464   2.869   7.158  15.833  0.3182  1.2368  1.6906
  168DOPC  H12Y20465   2.699   7.124  15.848  0.0053 -1.7705 -0.4124
  168DOPC  C31320466   2.826   6.944  15.867  0.1976 -0.8459 -0.4088
  168DOPC  H13X20467   2.916   6.925  15.929 -1.0423  1.8764  2.4892
  168DOPC  H13Y20468   2.741   6.887  15.912 -1.1197  0.0323 -1.6880
  168DOPC  C31420469   2.852   6.896  15.722 -0.3538  0.3469 -0.0554
  168DOPC  H14X20470   2.945   6.939  15.680 -1.2077  0.9223 -1.4716
  168DOPC  H14Y20471   2.860   6.785  15.731 -2.7675  0.1097  0.0254
  168DOPC  C31520472   2.731   6.921  15.637  0.2806 -0.4955 -0.2433
  168DOPC  H15X20473   2.712   7.029  15.619  1.6393 -0.2714 -0.4059
  168DOPC  H15Y20474   2.639   6.879  15.684 -0.5444  0.1074 -1.2787
  168DOPC  C31620475   2.744   6.859  15.499  0.4084  0.3835  0.1303
  168DOPC  H16X20476   2.767   6.753  15.522  0.4360  0.3453 -0.0729
  168DOPC  H16Y20477   2.651   6.872  15.440  1.7699 -0.8272 -2.4723
  168DOPC  C31720478   2.859   6.917  15.419  0.0696 -0.3294  1.0508
  168DOPC  H17X20479   2.841   7.023  15.394  0.2534 -0.4410  0.4205
  168DOPC  H17Y20480   2.956   6.926  15.472  1.2219  2.6562 -1.2664
  168DOPC  C31820481   2.879   6.844  15.285 -0.0784  0.5366  0.1679
  168DOPC  H18X20482   2.909   6.741  15.313  0.1698  0.3504 -0.7343
  168DOPC  H18Y20483   2.787   6.838  15.222  0.6117  1.6635 -0.9894
  168DOPC  H18Z20484   2.961   6.896  15.230  1.7194 -1.6017  0.6866
  169DOPC     N20485   1.565   7.204  17.120  0.2246  0.4961 -0.3545
  169DOPC   C1220486   1.649   7.269  17.018 -0.4435 -0.5583  1.0390
  169DOPC  H12A20487   1.622   7.228  16.922  0.3475 -0.5532  0.8059
  169DOPC  H12B20488   1.753   7.245  17.039 -0.1911 -0.2627  0.1597
  169DOPC   C1320489   1.598   7.257  17.253  0.4667  0.6578 -0.0780
  169DOPC  H13A20490   1.704   7.247  17.268  0.1272 -2.9756  0.7301
  169DOPC  H13B20491   1.567   7.360  17.260 -0.2310  0.4439  0.1012
  169DOPC  H13C20492   1.549   7.196  17.328 -0.3542 -0.4041 -1.4428
  169DOPC   C1420493   1.580   7.054  17.135 -0.3845 -0.3061 -0.2402
  169DOPC  H14A20494   1.675   7.029  17.179  0.7138 -0.9429 -2.8070
  169DOPC  H14B20495   1.515   7.015  17.212 -0.4251 -2.9162 -1.5010
  169DOPC  H14C20496   1.563   6.995  17.047 -1.2338 -0.1804 -0.1665
  169DOPC   C1520497   1.426   7.221  17.084  0.4367  0.1607  0.1291
  169DOPC  H15A20498   1.368   7.202  17.173  0.1727  0.9516  0.1346
  169DOPC  H15B20499   1.395   7.156  17.003 -0.3789 -0.0340  0.5826
  169DOPC  H15C20500   1.406   7.322  17.052  0.2585  0.0874  0.0054
  169DOPC   C1120501   1.641   7.425  17.024 -0.0088  0.0648 -0.1706
  169DOPC  H11A20502   1.685   7.454  17.122  0.2532 -3.3441  0.8421
  169DOPC  H11B20503   1.716   7.471  16.957 -0.7428  1.0404 -0.3347
  169DOPC     P20504   1.481   7.632  17.011 -0.0706 -0.3696 -0.2027
  169DOPC   O1320505   1.581   7.698  17.099 -0.0723 -0.7521  0.1908
  169DOPC   O1420506   1.335   7.654  17.044 -0.0651  0.2101  0.1801
  169DOPC   O1220507   1.513   7.482  17.007  0.1903 -0.3335  0.5045
  169DOPC   O1120508   1.510   7.685  16.861 -0.5161 -0.2683 -0.3409
  169DOPC    C120509   1.481   7.595  16.758  0.1309  0.1576  0.4784
  169DOPC    HA20510   1.385   7.540  16.770  0.0318 -0.0943 -1.2100
  169DOPC    HB20511   1.557   7.514  16.749 -0.1388 -0.2343  1.6050
  169DOPC    C220512   1.468   7.672  16.625  0.3122 -0.7976  0.4822
  169DOPC    HS20513   1.424   7.607  16.547 -0.4822 -1.7593  1.6981
  169DOPC   O2120514   1.587   7.746  16.579 -0.2858 -0.2286 -0.2047
  169DOPC   C2120515   1.667   7.662  16.519 -0.2503 -0.7406  0.2814
  169DOPC   O2220516   1.658   7.542  16.506 -0.3084  0.3210  0.0847
  169DOPC   C2220517   1.787   7.744  16.467  0.4588 -0.0034  0.8501
  169DOPC   H2R20518   1.877   7.681  16.483 -0.0877 -1.3678 -1.0012
  169DOPC   H2S20519   1.810   7.835  16.526 -0.1485  1.8888 -1.6444
  169DOPC    C320520   1.354   7.785  16.635 -0.1709  0.3444 -0.0161
  169DOPC    HX20521   1.371   7.849  16.545 -3.1137 -1.9210 -2.4130
  169DOPC    HY20522   1.355   7.841  16.731  0.5796  0.2288  0.0444
  169DOPC   O3120523   1.226   7.719  16.624 -0.2070 -0.0631 -0.6424
  169DOPC   C3120524   1.120   7.800  16.633  0.3615 -0.3442  0.4755
  169DOPC   O3220525   1.125   7.920  16.655  0.2948  0.1691  0.0193
  169DOPC   C3220526   0.990   7.728  16.598  0.5283  0.1002  0.3529
  169DOPC   H2X20527   0.965   7.692  16.700  1.0529 -1.6292 -0.0948
  169DOPC   H2Y20528   0.907   7.796  16.567 -0.2003 -0.3583  1.2449
  169DOPC   C2320529   1.774   7.779  16.310 -0.1561  0.5603 -0.1283
  169DOPC   H3R20530   1.857   7.852  16.297  3.6363 -3.2459  0.3803
  169DOPC   H3S20531   1.683   7.835  16.280  0.7170  1.9481 -0.2402
  169DOPC   C2420532   1.786   7.648  16.235 -0.3574  0.3169  0.0913
  169DOPC   H4R20533   1.698   7.582  16.251  0.1069 -0.2680  0.2467
  169DOPC   H4S20534   1.875   7.595  16.274 -0.0536  1.0213  0.3824
  169DOPC   C2520535   1.802   7.666  16.082  0.1875 -0.0718 -0.0744
  169DOPC   H5R20536   1.885   7.737  16.065  0.3941 -0.5364 -1.1147
  169DOPC   H5S20537   1.716   7.717  16.035  1.3007 -0.0024 -2.1499
  169DOPC   C2620538   1.827   7.542  15.995 -0.1001 -0.5211 -0.6037
  169DOPC   H6R20539   1.767   7.462  16.043 -0.0304 -3.0803 -4.4251
  169DOPC   H6S20540   1.935   7.517  16.001  0.1558  0.7757  1.6701
  169DOPC   C2720541   1.765   7.561  15.862  0.5081 -0.1454 -0.0281
  169DOPC   H7R20542   1.659   7.585  15.882  0.8799  0.4029  1.4100
  169DOPC   H7S20543   1.759   7.461  15.813 -1.7223 -1.4455  2.6299
  169DOPC   C2820544   1.826   7.671  15.775 -0.2221  0.2750 -0.1296
  169DOPC   H8R20545   1.935   7.650  15.768 -0.2036  0.4129 -0.2586
  169DOPC   H8S20546   1.814   7.770  15.823  1.0854 -0.0410  0.8816
  169DOPC   C2920547   1.773   7.692  15.640  0.7367  0.5324  0.0222
  169DOPC   H9R20548   1.683   7.755  15.627 -0.0347 -0.7968 -1.5453
  169DOPC  C21020549   1.809   7.624  15.531 -0.3224  0.2250 -0.6037
  169DOPC  H10R20550   1.752   7.636  15.438 -0.8320  0.1663 -0.3020
  169DOPC  C21120551   1.918   7.519  15.514 -0.8719  0.2751 -0.1426
  169DOPC  H11R20552   1.876   7.416  15.512 -2.1942  0.7411  1.3650
  169DOPC  H11S20553   1.994   7.515  15.595  0.5040  1.1080 -1.3398
  169DOPC  C21220554   2.014   7.544  15.399  0.1085 -0.1171 -0.1816
  169DOPC  H12R20555   2.103   7.480  15.414  0.8953  0.7905 -0.8652
  169DOPC  H12S20556   2.053   7.648  15.396  0.2532 -0.1766 -0.4208
  169DOPC  C21320557   1.957   7.515  15.257 -0.3068  0.6321  0.1269
  169DOPC  H13R20558   1.864   7.575  15.247 -1.4417 -0.9921  0.5519
  169DOPC  H13S20559   1.911   7.416  15.240 -0.4293  1.0357 -2.2428
  169DOPC  C21420560   2.058   7.537  15.146  0.7333  0.6861  0.2279
  169DOPC  H14R20561   2.149   7.474  15.154  2.0808  2.7331  1.7816
  169DOPC  H14S20562   2.100   7.639  15.139 -0.1488  1.0602  0.2995
  169DOPC  C21520563   1.991   7.522  15.007 -0.2050 -0.7651 -0.2626
  169DOPC  H15R20564   1.922   7.602  14.974 -1.1451 -0.8694  1.3608
  169DOPC  H15S20565   1.920   7.439  15.021  0.2057 -1.2583 -1.0234
  169DOPC  C21620566   2.088   7.487  14.887 -0.1177  0.7483 -0.0482
  169DOPC  H16R20567   2.037   7.429  14.807  0.0338  1.7320 -0.8858
  169DOPC  H16S20568   2.164   7.420  14.933 -1.6885 -0.6319  0.6242
  169DOPC  C21720569   2.153   7.611  14.827 -0.1617  0.1512  0.2412
  169DOPC  H17R20570   2.245   7.577  14.775  0.4878  1.3545  0.5586
  169DOPC  H17S20571   2.178   7.688  14.903 -0.7281 -0.7020  1.3074
  169DOPC  C21820572   2.062   7.681  14.719  0.1593 -0.0340 -0.9297
  169DOPC  H18R20573   1.965   7.704  14.768  0.5764  1.0032 -0.5528
  169DOPC  H18S20574   2.032   7.612  14.637 -1.3833  1.0277 -1.3085
  169DOPC  H18T20575   2.104   7.777  14.682 -0.5902  1.6527  2.2376
  169DOPC   C3320576   1.006   7.610  16.496 -0.0347  0.0342  0.4234
  169DOPC   H3X20577   0.911   7.553  16.510 -1.5657  3.0422  4.2342
  169DOPC   H3Y20578   1.093   7.544  16.516 -0.0649 -0.6320 -1.4204
  169DOPC   C3420579   1.022   7.658  16.350  0.1601 -0.3424  0.5456
  169DOPC   H4X20580   1.122   7.702  16.326  0.0189 -1.0805 -1.5940
  169DOPC   H4Y20581   0.945   7.735  16.325 -1.0598 -1.7582 -0.1776
  169DOPC   C3520582   0.992   7.540  16.252 -0.5401  0.2582  0.0592
  169DOPC   H5X20583   0.937   7.459  16.305  0.0841 -0.4168 -0.3053
  169DOPC   H5Y20584   1.085   7.490  16.216  0.2295  0.2580  1.9408
  169DOPC   C3620585   0.916   7.585  16.120 -0.3291 -0.5976  0.2141
  169DOPC   H6X20586   0.822   7.639  16.143 -0.8085 -1.4657  0.3240
  169DOPC   H6Y20587   0.982   7.652  16.061 -1.6717  0.1433 -0.5027
  169DOPC   C3720588   0.895   7.460  16.024 -0.0691  0.5033 -0.6650
  169DOPC   H7X20589   0.994   7.420  15.992 -0.9229 -0.8613 -1.7078
  169DOPC   H7Y20590   0.850   7.388  16.096  0.4035  0.1850 -0.6843
  169DOPC   C3820591   0.816   7.496  15.900 -0.4770  0.2874 -0.7222
  169DOPC   H8X20592   0.870   7.577  15.847  0.4139  1.7722  2.2781
  169DOPC   H8Y20593   0.718   7.536  15.934 -1.4877 -1.6942 -1.1091
  169DOPC   C3920594   0.785   7.372  15.819  0.5537  0.8524  0.1358
  169DOPC   H9X20595   0.759   7.281  15.875  0.4569  1.8784  1.8429
  169DOPC  C31020596   0.794   7.365  15.686 -0.2529 -0.2310  0.3669
  169DOPC  H10X20597   0.767   7.270  15.637 -1.7805  1.1734 -1.6320
  169DOPC  C31120598   0.829   7.477  15.589 -0.4187  0.3006 -0.2152
  169DOPC  H11X20599   0.827   7.572  15.646  2.0387 -0.9716  2.2070
  169DOPC  H11Y20600   0.747   7.495  15.516  0.6017  1.4227 -1.1256
  169DOPC  C31220601   0.965   7.454  15.519  0.3538 -0.7779 -0.5148
  169DOPC  H12X20602   0.961   7.517  15.427 -2.7487  2.8982  1.7773
  169DOPC  H12Y20603   0.981   7.346  15.499  0.1652 -1.3594  2.0790
  169DOPC  C31320604   1.074   7.493  15.617  0.1951 -0.4509 -0.2356
  169DOPC  H13X20605   1.048   7.452  15.716 -1.0474 -2.4108 -1.3095
  169DOPC  H13Y20606   1.163   7.446  15.569  1.5673  2.8782 -1.2625
  169DOPC  C31420607   1.122   7.642  15.624 -0.8704  0.0523  0.8028
  169DOPC  H14X20608   1.130   7.671  15.517  1.9962 -0.7748  0.6979
  169DOPC  H14Y20609   1.049   7.710  15.673 -0.2852 -0.0279  1.8180
  169DOPC  C31520610   1.260   7.670  15.694  0.3185 -0.1580  0.6405
  169DOPC  H15X20611   1.298   7.766  15.651  1.9591 -1.1021 -0.0927
  169DOPC  H15Y20612   1.337   7.596  15.663 -0.3730  0.1773 -2.1276
  169DOPC  C31620613   1.239   7.679  15.844 -0.1557  0.0424  0.0335
  169DOPC  H16X20614   1.159   7.609  15.878  0.2016 -0.1961  0.3950
  169DOPC  H16Y20615   1.337   7.663  15.894 -0.1137  2.0904  0.6872
  169DOPC  C31720616   1.201   7.820  15.899  0.3536 -0.2636 -0.4961
  169DOPC  H17X20617   1.267   7.882  15.836  0.4523  0.7004  0.5198
  169DOPC  H17Y20618   1.098   7.837  15.863  1.4141 -0.3622 -3.8661
  169DOPC  C31820619   1.226   7.854  16.044  0.6988  0.6025 -0.5459
  169DOPC  H18X20620   1.205   7.962  16.064 -1.6112  0.0420  0.3519
  169DOPC  H18Y20621   1.164   7.803  16.120 -0.8637  1.2603 -1.3279
  169DOPC  H18Z20622   1.336   7.848  16.055  0.7656  0.6028 -1.1813
  170DOPC     N20623   0.267   6.562  17.167 -0.0384 -0.5555  0.1791
  170DOPC   C1220624   0.310   6.659  17.059  0.2617  0.6175  0.0147
  170DOPC  H12A20625   0.418   6.669  17.067  0.2652  1.4347 -0.8629
  170DOPC  H12B20626   0.274   6.755  17.092 -1.5112 -0.2675  0.7375
  170DOPC   C1320627   0.321   6.614  17.294 -0.0026  0.7565 -0.3038
  170DOPC  H13A20628   0.261   6.699  17.321 -1.3723 -0.4008  0.4413
  170DOPC  H13B20629   0.310   6.540  17.372 -0.9652  0.7318 -0.4527
  170DOPC  H13C20630   0.426   6.638  17.291  0.5886 -1.3327  1.1136
  170DOPC   C1420631   0.315   6.424  17.142  0.4960  0.7570 -0.7867
  170DOPC  H14A20632   0.423   6.412  17.145  0.3520 -0.5972  0.4285
  170DOPC  H14B20633   0.278   6.354  17.215  0.4171 -0.2914 -1.8150
  170DOPC  H14C20634   0.285   6.393  17.043 -2.5586 -0.4221  0.3942
  170DOPC   C1520635   0.118   6.566  17.182  0.2966  0.0369 -0.0256
  170DOPC  H15A20636   0.078   6.667  17.180 -1.1519 -0.5245 -1.0528
  170DOPC  H15B20637   0.091   6.514  17.272  1.6220 -1.4851 -0.4496
  170DOPC  H15C20638   0.076   6.502  17.106  0.3977  0.3065 -0.3130
  170DOPC   C1120639   0.273   6.633  16.913  0.3401 -0.2120 -0.3527
  170DOPC  H11A20640   0.162   6.625  16.920  0.3332 -1.0813 -1.2759
  170DOPC  H11B20641   0.296   6.720  16.848  1.6189 -0.4129 -0.1864
  170DOPC     P20642   0.373   6.480  16.717 -0.1628 -0.4377 -0.2400
  170DOPC   O1320643   0.292   6.366  16.671  0.1761 -0.1017  0.3181
  170DOPC   O1420644   0.519   6.481  16.711  0.0359  0.0165 -0.0542
  170DOPC   O1220645   0.327   6.513  16.862 -0.4852 -0.1565 -0.2498
  170DOPC   O1120646   0.322   6.608  16.642  0.1291  0.0221 -0.2513
  170DOPC    C120647   0.194   6.611  16.571 -0.0223 -0.2915  0.3258
  170DOPC    HA20648   0.157   6.714  16.557 -0.5212 -0.3677  1.0328
  170DOPC    HB20649   0.120   6.563  16.638  0.3379 -1.5804 -0.1560
  170DOPC    C220650   0.192   6.544  16.431  0.2332  0.5936 -0.4742
  170DOPC    HS20651   0.246   6.446  16.431  1.0599  0.9722 -3.0221
  170DOPC   O2120652   0.245   6.641  16.341 -0.6453  0.3137  0.4003
  170DOPC   C2120653   0.375   6.621  16.309 -0.0289  0.0848 -0.8797
  170DOPC   O2220654   0.447   6.539  16.360  0.0985  0.0012 -0.0480
  170DOPC   C2220655   0.420   6.728  16.221 -0.6766 -0.3032  0.4742
  170DOPC   H2R20656   0.463   6.810  16.284 -0.5801  1.5658 -1.8578
  170DOPC   H2S20657   0.331   6.771  16.170 -1.3749 -1.7510  0.4243
  170DOPC    C320658   0.044   6.503  16.389 -0.1301  0.3646  0.0348
  170DOPC    HX20659  -0.017   6.595  16.380 -1.9736 -0.7148  1.1510
  170DOPC    HY20660   0.008   6.443  16.475 -0.3756  0.9368  0.3313
  170DOPC   O3120661   0.042   6.428  16.263  0.7692  0.5644 -0.6232
  170DOPC   C3120662  -0.016   6.484  16.159  0.7562  0.0410 -0.3344
  170DOPC   O3220663  -0.075   6.588  16.165 -0.0529 -0.2124  0.1230
  170DOPC   C3220664   0.023   6.400  16.037  0.1151 -0.3828 -0.7661
  170DOPC   H2X20665   0.133   6.384  16.038  0.0158 -1.2244 -1.9587
  170DOPC   H2Y20666  -0.027   6.301  16.043 -2.1059  0.4838 -2.9570
  170DOPC   C2320667   0.524   6.679  16.117 -0.0925  0.3660  0.4053
  170DOPC   H3R20668   0.600   6.612  16.163  0.5397 -0.2765 -1.4947
  170DOPC   H3S20669   0.580   6.760  16.067 -0.5471  0.1338 -0.5074
  170DOPC   C2420670   0.460   6.598  15.998 -0.8717 -0.0021 -0.1680
  170DOPC   H4R20671   0.391   6.516  16.026 -0.5778 -0.1652  0.0774
  170DOPC   H4S20672   0.540   6.534  15.956 -1.3341 -1.4501  1.1006
  170DOPC   C2520673   0.404   6.676  15.882 -0.1405 -0.2553  0.9481
  170DOPC   H5R20674   0.343   6.756  15.930 -0.2479 -0.5294  1.2724
  170DOPC   H5S20675   0.341   6.603  15.825  1.4856 -0.3960 -0.7682
  170DOPC   C2620676   0.506   6.721  15.780 -0.0832 -0.1304  0.2992
  170DOPC   H6R20677   0.545   6.633  15.725  1.8335  1.3314 -0.8301
  170DOPC   H6S20678   0.596   6.759  15.834  0.3971  0.9546 -1.1860
  170DOPC   C2720679   0.450   6.826  15.677  0.4946  0.4707 -0.2004
  170DOPC   H7R20680   0.398   6.908  15.730  0.0147  0.8632 -1.2590
  170DOPC   H7S20681   0.380   6.761  15.620  0.3851 -1.2399  1.7340
  170DOPC   C2820682   0.562   6.899  15.599 -0.0874  0.6660  0.0199
  170DOPC   H8R20683   0.633   6.946  15.670 -0.4213  0.0778  0.7604
  170DOPC   H8S20684   0.505   6.976  15.542 -0.9931 -1.9327 -2.8681
  170DOPC   C2920685   0.641   6.813  15.503 -0.4072  0.1787 -0.2561
  170DOPC   H9R20686   0.749   6.801  15.520 -0.1534  0.0179 -1.8897
  170DOPC  C21020687   0.587   6.765  15.390 -0.2409  0.0667 -0.4160
  170DOPC  H10R20688   0.662   6.713  15.328  2.0097  0.4695  1.8104
  170DOPC  C21120689   0.443   6.786  15.338 -0.6376  0.2763 -0.6737
  170DOPC  H11R20690   0.442   6.849  15.247 -0.2162 -1.0104 -1.6007
  170DOPC  H11S20691   0.374   6.836  15.410  1.3091  2.2382 -0.0556
  170DOPC  C21220692   0.390   6.648  15.296 -0.4928  0.3786 -0.2683
  170DOPC  H12R20693   0.365   6.578  15.378 -1.4201  1.1358  0.1123
  170DOPC  H12S20694   0.467   6.595  15.236  0.2971  1.2508 -0.0489
  170DOPC  C21320695   0.260   6.650  15.212  0.0677  0.0932  0.0466
  170DOPC  H13R20696   0.254   6.557  15.153  0.4259  0.0098  0.1378
  170DOPC  H13S20697   0.270   6.735  15.142 -1.3005  1.1810  1.1015
  170DOPC  C21420698   0.132   6.671  15.307 -0.4267  0.0448 -0.0394
  170DOPC  H14R20699   0.154   6.771  15.350  0.1212 -0.2221  0.3243
  170DOPC  H14S20700   0.124   6.595  15.388  0.5519 -2.0156 -1.7697
  170DOPC  C21520701   0.002   6.668  15.229 -0.4950  0.0554 -0.0781
  170DOPC  H15R20702  -0.009   6.581  15.162 -2.9083  0.9236 -0.9313
  170DOPC  H15S20703   0.013   6.752  15.157 -2.5318  0.3160 -0.1575
  170DOPC  C21620704  -0.122   6.681  15.316 -0.1652 -0.3303  0.9660
  170DOPC  H16R20705  -0.127   6.776  15.374 -2.1161  0.5424 -0.5038
  170DOPC  H16S20706  -0.127   6.601  15.392 -0.5876  0.0715  1.3703
  170DOPC  C21720707  -0.249   6.684  15.233  0.5975  0.1425  0.5543
  170DOPC  H17R20708  -0.249   6.601  15.159  1.8028  1.0330 -0.4906
  170DOPC  H17S20709  -0.249   6.777  15.171  0.9142 -0.6506 -0.6819
  170DOPC  C21820710  -0.369   6.680  15.324 -0.1870  0.2562  0.8974
  170DOPC  H18R20711  -0.362   6.772  15.386  0.7694  0.2555  0.8024
  170DOPC  H18S20712  -0.362   6.595  15.395  1.0716  0.4650  1.0345
  170DOPC  H18T20713  -0.463   6.672  15.264  2.0056  1.3768 -3.0352
  170DOPC   C3320714  -0.024   6.470  15.911 -0.1550 -0.4026 -0.6956
  170DOPC   H3X20715   0.023   6.569  15.899 -0.8083  0.0578  0.4124
  170DOPC   H3Y20716  -0.133   6.485  15.926 -0.0992  1.3687 -1.8397
  170DOPC   C3420717  -0.004   6.391  15.778  0.2551 -0.1414 -0.0667
  170DOPC   H4X20718  -0.043   6.449  15.692  1.7154 -0.1816 -0.7760
  170DOPC   H4Y20719  -0.053   6.292  15.789  1.9761 -1.0636 -0.3507
  170DOPC   C3520720   0.144   6.346  15.769  0.5042  0.2052 -0.9007
  170DOPC   H5X20721   0.164   6.254  15.827 -1.7064 -0.1728 -0.6423
  170DOPC   H5Y20722   0.190   6.433  15.821 -0.1562  0.8349 -1.3397
  170DOPC   C3620723   0.202   6.327  15.631 -0.2883  0.0952 -0.3842
  170DOPC   H6X20724   0.168   6.228  15.593 -1.6993  0.0564  0.8910
  170DOPC   H6Y20725   0.163   6.404  15.561 -2.5008 -0.7768 -0.2060
  170DOPC   C3720726   0.357   6.322  15.625  0.4860  0.3153 -0.4369
  170DOPC   H7X20727   0.388   6.422  15.665  2.4872  0.2130 -1.6245
  170DOPC   H7Y20728   0.379   6.239  15.696 -2.9480 -0.2241  0.2082
  170DOPC   C3820729   0.406   6.305  15.483  0.1268 -0.0043 -0.0369
  170DOPC   H8X20730   0.514   6.325  15.494 -0.0801  0.5214  1.2576
  170DOPC   H8Y20731   0.364   6.377  15.410 -0.9054  0.6437  1.1457
  170DOPC   C3920732   0.403   6.164  15.432 -0.0168  0.2584 -0.0084
  170DOPC   H9X20733   0.439   6.088  15.503  0.8575  2.4966  2.0923
  170DOPC  C31020734   0.336   6.117  15.328 -0.0732 -0.0554  0.0225
  170DOPC  H10X20735   0.344   6.010  15.303 -2.6395 -0.4097  0.3903
  170DOPC  C31120736   0.260   6.202  15.230 -0.3018 -0.4044  0.3180
  170DOPC  H11X20737   0.223   6.303  15.258  0.6340  0.3061 -0.8881
  170DOPC  H11Y20738   0.168   6.148  15.198 -0.2765 -0.6553  0.6664
  170DOPC  C31220739   0.347   6.219  15.108  0.8656 -0.5212  0.4875
  170DOPC  H12X20740   0.379   6.122  15.064 -1.5767 -1.1207 -0.1427
  170DOPC  H12Y20741   0.433   6.280  15.142 -1.0499  1.2789  2.4202
  170DOPC  C31320742   0.274   6.295  15.006  0.3858 -0.5041  0.0014
  170DOPC  H13X20743   0.208   6.231  14.944  1.4376  0.4713 -2.2306
  170DOPC  H13Y20744   0.197   6.364  15.047  1.3964  1.1142 -0.7237
  170DOPC  C31420745   0.368   6.377  14.921  0.2714  0.4043  0.4128
  170DOPC  H14X20746   0.419   6.437  14.999  2.5964 -1.6449  0.5744
  170DOPC  H14Y20747   0.447   6.314  14.874 -0.6587  0.0627 -0.7331
  170DOPC  C31520748   0.289   6.449  14.812 -0.3328  0.0746 -1.0385
  170DOPC  H15X20749   0.203   6.508  14.849  0.0660  0.5679 -0.8844
  170DOPC  H15Y20750   0.245   6.371  14.746  0.7047 -1.1417 -0.3359
  170DOPC  C31620751   0.374   6.549  14.730  0.4533  0.0629  0.2320
  170DOPC  H16X20752   0.465   6.498  14.693 -0.8486 -0.6253 -2.2187
  170DOPC  H16Y20753   0.317   6.566  14.636 -0.4031 -0.7702  0.5868
  170DOPC  C31720754   0.407   6.685  14.787 -0.2851 -0.2179  0.6541
  170DOPC  H17X20755   0.464   6.750  14.718  0.3442 -1.6236 -0.1872
  170DOPC  H17Y20756   0.315   6.742  14.814  1.3242  3.0753 -0.3197
  170DOPC  C31820757   0.497   6.677  14.912  0.8833  0.3233  0.0672
  170DOPC  H18X20758   0.579   6.607  14.886  0.6812 -0.0021  0.3015
  170DOPC  H18Y20759   0.540   6.778  14.929  0.2266  0.3577  1.6738
  170DOPC  H18Z20760   0.437   6.642  14.999  2.0633 -1.9189  0.0448
  171DOPC     N20761   5.455   2.917  12.833  0.5084 -0.3516 -0.0129
  171DOPC   C1220762   5.528   2.847  12.950 -0.3629  0.0806 -0.7876
  171DOPC  H12A20763   5.490   2.876  13.047  1.8069  0.6261 -0.0417
  171DOPC  H12B20764   5.631   2.879  12.949 -0.8153  1.6437 -1.4527
  171DOPC   C1320765   5.522   2.887  12.708  1.2545  0.5632  0.8995
  171DOPC  H13A20766   5.625   2.920  12.702  1.9858 -1.7053 -0.3831
  171DOPC  H13B20767   5.518   2.780  12.695  2.2394  0.6842 -0.7497
  171DOPC  H13C20768   5.478   2.937  12.623  0.2627 -1.6227  0.0648
  171DOPC   C1420769   5.455   3.064  12.853 -0.1984  0.2125  0.7559
  171DOPC  H14A20770   5.400   3.075  12.945 -1.5683  1.0749 -0.1300
  171DOPC  H14B20771   5.552   3.102  12.882 -0.8734  2.1089  0.7001
  171DOPC  H14C20772   5.415   3.125  12.773 -1.2147  0.2964  1.3157
  171DOPC   C1520773   5.316   2.869  12.824 -0.2451  0.0861  0.4473
  171DOPC  H15A20774   5.258   2.918  12.747 -1.5865 -2.8264 -0.5380
  171DOPC  H15B20775   5.265   2.888  12.918  1.0831 -0.7903  1.3916
  171DOPC  H15C20776   5.314   2.764  12.799  1.1569 -0.2743  1.6985
  171DOPC   C1120777   5.543   2.691  12.943 -0.1450 -0.6759  0.1953
  171DOPC  H11A20778   5.607   2.671  12.855 -1.2054  0.4712 -0.8820
  171DOPC  H11B20779   5.586   2.660  13.040 -1.5426  0.3929  1.1975
  171DOPC     P20780   5.421   2.468  12.943 -0.4836  0.4494 -0.5419
  171DOPC   O1320781   5.540   2.415  12.874  0.3362  0.3080  0.2357
  171DOPC   O1420782   5.288   2.419  12.919  0.2230  0.3513 -0.3887
  171DOPC   O1220783   5.424   2.623  12.933  0.3326 -0.1535  0.3065
  171DOPC   O1120784   5.439   2.441  13.100 -0.0669 -0.5098 -0.0796
  171DOPC    C120785   5.343   2.489  13.196 -0.2513 -0.2815  0.4333
  171DOPC    HA20786   5.303   2.405  13.257  0.0965 -1.3099 -0.7100
  171DOPC    HB20787   5.262   2.554  13.155 -0.1132 -0.3692  0.0223
  171DOPC    C220788   5.407   2.588  13.306 -0.0165 -0.0222  0.0821
  171DOPC    HS20789   5.466   2.663  13.249  1.5790 -0.1002  1.5631
  171DOPC   O2120790   5.484   2.505  13.395  0.7941 -0.1574 -0.0664
  171DOPC   C2120791   5.609   2.476  13.356  0.2374 -0.4840  0.3946
  171DOPC   O2220792   5.661   2.513  13.249  0.2554  0.0056 -0.2213
  171DOPC   C2220793   5.670   2.387  13.463  0.1051  0.7140 -0.0681
  171DOPC   H2R20794   5.602   2.304  13.489  1.2096  0.3226  1.7216
  171DOPC   H2S20795   5.684   2.454  13.551  2.0661  0.6810 -0.3098
  171DOPC    C320796   5.293   2.660  13.387  0.6260 -0.7167  0.4649
  171DOPC    HX20797   5.227   2.588  13.441  0.5630 -0.2098  1.0818
  171DOPC    HY20798   5.227   2.707  13.311  0.0158  0.6052  1.7647
  171DOPC   O3120799   5.354   2.752  13.481  0.3715 -0.3238  0.7047
  171DOPC   C3120800   5.313   2.875  13.476  0.3600 -0.1099  0.1157
  171DOPC   O3220801   5.234   2.925  13.394  0.8492 -0.0309 -0.8249
  171DOPC   C3220802   5.400   2.975  13.558 -0.7941  0.3851 -0.1359
  171DOPC   H2X20803   5.505   2.938  13.565 -1.0113 -0.5046 -1.4061
  171DOPC   H2Y20804   5.400   3.068  13.497 -1.1929 -0.1647 -0.9791
  171DOPC   C2320805   5.808   2.332  13.427 -0.6272 -0.7666 -0.1583
  171DOPC   H3R20806   5.859   2.426  13.397 -2.6265  0.4989  0.2447
  171DOPC   H3S20807   5.807   2.265  13.338 -0.3574 -2.0695  0.7941
  171DOPC   C2420808   5.884   2.265  13.538 -0.4209 -0.0461  0.2661
  171DOPC   H4R20809   5.899   2.344  13.615  4.1911 -0.6483  0.2614
  171DOPC   H4S20810   5.985   2.232  13.508 -0.7951 -0.3805 -0.6650
  171DOPC   C2520811   5.821   2.141  13.600  0.2543 -0.1615 -0.4039
  171DOPC   H5R20812   5.800   2.066  13.521 -0.8117  0.9067 -1.1695
  171DOPC   H5S20813   5.722   2.168  13.643  0.1442  0.5253 -1.0751
  171DOPC   C2620814   5.911   2.077  13.707 -0.4597 -0.2200  0.0571
  171DOPC   H6R20815   5.946   2.164  13.767 -0.1735  0.2493 -0.7610
  171DOPC   H6S20816   6.003   2.034  13.661  0.8723  0.9055  1.5603
  171DOPC   C2720817   5.842   1.975  13.792  0.1247 -0.9410  0.1961
  171DOPC   H7R20818   5.839   1.878  13.738 -1.3092 -0.2605 -0.9862
  171DOPC   H7S20819   5.735   1.997  13.813  0.0581 -2.7903  2.1919
  171DOPC   C2820820   5.923   1.947  13.922 -0.1175  0.1232  0.1255
  171DOPC   H8R20821   5.912   2.037  13.986  0.1866  0.5900 -0.4576
  171DOPC   H8S20822   6.032   1.940  13.898 -0.1986 -0.4593 -0.0861
  171DOPC   C2920823   5.869   1.818  13.980  1.1176  0.0554 -0.6833
  171DOPC   H9R20824   5.885   1.732  13.914 -1.1508 -0.7240 -0.3006
  171DOPC  C21020825   5.807   1.804  14.104 -0.5999  0.0488 -0.0882
  171DOPC  H10R20826   5.763   1.708  14.133 -0.5703 -0.2708 -1.0733
  171DOPC  C21120827   5.786   1.914  14.204 -0.5839 -1.0023 -0.3960
  171DOPC  H11R20828   5.697   1.881  14.263 -0.0022 -1.6155  0.1629
  171DOPC  H11S20829   5.766   2.008  14.149  0.6702 -1.6227 -1.9822
  171DOPC  C21220830   5.909   1.944  14.287  0.4493 -0.6061  0.8451
  171DOPC  H12R20831   5.998   1.977  14.228  0.4202 -1.3948  0.3432
  171DOPC  H12S20832   5.952   1.852  14.331 -1.8605 -1.7387  0.9061
  171DOPC  C21320833   5.879   2.038  14.405 -0.2380  0.8384  0.5085
  171DOPC  H13R20834   5.840   2.136  14.371  0.1193  1.7652  2.5829
  171DOPC  H13S20835   5.978   2.052  14.453 -0.9025  0.0163  2.2094
  171DOPC  C21420836   5.797   1.979  14.514 -0.2805  0.7498 -0.0147
  171DOPC  H14R20837   5.841   1.879  14.534  0.8792  0.8203 -1.9958
  171DOPC  H14S20838   5.694   1.967  14.476  0.4444 -3.7383 -1.0356
  171DOPC  C21520839   5.804   2.064  14.643 -0.1270 -0.1814 -0.0125
  171DOPC  H15R20840   5.796   2.166  14.601 -0.4573 -0.1013  0.2493
  171DOPC  H15S20841   5.904   2.065  14.691 -0.3187  1.7723  0.3988
  171DOPC  C21620842   5.695   2.023  14.742 -0.0503  0.2933 -0.3926
  171DOPC  H16R20843   5.693   1.925  14.795 -1.0973 -0.0785 -1.0928
  171DOPC  H16S20844   5.608   2.006  14.676  0.0314  0.7325 -0.6120
  171DOPC  C21720845   5.655   2.135  14.844  0.3223 -0.5988 -0.3591
  171DOPC  H17R20846   5.626   2.224  14.785  0.5370 -0.2034  0.1290
  171DOPC  H17S20847   5.749   2.162  14.895 -0.1364 -0.6099  0.5186
  171DOPC  C21820848   5.549   2.098  14.947  0.7900 -0.9250 -0.3213
  171DOPC  H18R20849   5.455   2.060  14.902 -0.1790 -0.9860  1.6188
  171DOPC  H18S20850   5.533   2.182  15.019 -0.8456 -1.1363 -0.3922
  171DOPC  H18T20851   5.602   2.019  15.004  2.6126 -0.0287 -0.6868
  171DOPC   C3320852   5.330   3.013  13.687 -0.1203 -0.7025 -0.0752
  171DOPC   H3X20853   5.289   2.931  13.749 -1.7080  2.4130  3.4134
  171DOPC   H3Y20854   5.243   3.080  13.674  0.4615 -0.2367 -1.8371
  171DOPC   C3420855   5.435   3.094  13.767 -0.0733  0.6747  0.0343
  171DOPC   H4X20856   5.471   3.180  13.707  0.3853  1.0943  0.8999
  171DOPC   H4Y20857   5.523   3.028  13.784 -2.1875 -2.4884 -0.3314
  171DOPC   C3520858   5.381   3.140  13.896 -0.5185 -0.1744  0.5985
  171DOPC   H5X20859   5.366   3.050  13.960  0.7766 -0.1878  0.9106
  171DOPC   H5Y20860   5.285   3.192  13.875 -0.2191  0.0076 -0.3657
  171DOPC   C3620861   5.479   3.226  13.970 -0.0683 -0.2985 -0.6131
  171DOPC   H6X20862   5.574   3.171  13.987  0.7983  1.2349 -0.2996
  171DOPC   H6Y20863   5.497   3.321  13.915  0.0901 -1.6447 -3.0398
  171DOPC   C3720864   5.427   3.262  14.115  0.5344  0.5375  0.3462
  171DOPC   H7X20865   5.503   3.339  14.140  1.5203 -0.4015  0.3358
  171DOPC   H7Y20866   5.328   3.312  14.112  0.1930 -0.1105  0.5596
  171DOPC   C3820867   5.428   3.150  14.224  0.2163  0.5516 -0.1183
  171DOPC   H8X20868   5.418   3.204  14.320 -1.3593  0.1566 -0.0345
  171DOPC   H8Y20869   5.527   3.102  14.206 -1.1058 -2.4594 -0.0094
  171DOPC   C3920870   5.312   3.051  14.216 -0.5642 -0.9211 -0.5615
  171DOPC   H9X20871   5.219   3.100  14.184 -1.1143  0.2958  2.5043
  171DOPC  C31020872   5.308   2.912  14.213 -0.0968 -0.4563  0.5603
  171DOPC  H10X20873   5.210   2.864  14.202 -1.1814  1.3374  1.8083
  171DOPC  C31120874   5.424   2.817  14.221 -0.0812 -0.2315 -0.3191
  171DOPC  H11X20875   5.516   2.861  14.177 -0.5923  0.5866 -0.5895
  171DOPC  H11Y20876   5.398   2.735  14.150 -0.7273  0.0189 -0.3731
  171DOPC  C31220877   5.453   2.754  14.360 -0.2821  0.0736 -0.0326
  171DOPC  H12X20878   5.447   2.833  14.437  2.9541  0.7430 -0.3455
  171DOPC  H12Y20879   5.558   2.718  14.355 -0.5949 -0.8232 -0.4771
  171DOPC  C31320880   5.371   2.628  14.397  0.5210  0.4766  0.3176
  171DOPC  H13X20881   5.264   2.658  14.404  0.9431  2.0410  0.5429
  171DOPC  H13Y20882   5.377   2.547  14.322 -3.5041 -0.3903  0.6894
  171DOPC  C31420883   5.402   2.570  14.532 -0.7760 -0.3666 -0.0049
  171DOPC  H14X20884   5.503   2.526  14.518 -0.4161  0.8129 -1.3365
  171DOPC  H14Y20885   5.395   2.663  14.591  0.0256  0.6581 -1.4612
  171DOPC  C31520886   5.306   2.454  14.577  0.1446 -0.1754 -0.8829
  171DOPC  H15X20887   5.299   2.379  14.495  0.4474 -0.0712 -1.0063
  171DOPC  H15Y20888   5.202   2.491  14.587  0.2168 -0.1309 -0.2712
  171DOPC  C31620889   5.345   2.394  14.708 -0.2974  0.8009  0.8072
  171DOPC  H16X20890   5.444   2.346  14.699 -0.1064  1.2737  0.3739
  171DOPC  H16Y20891   5.362   2.468  14.790 -2.0926  0.4932  1.5180
  171DOPC  C31720892   5.250   2.282  14.757 -0.2293 -0.5571  0.3472
  171DOPC  H17X20893   5.212   2.217  14.675 -1.0143 -0.1872  0.4099
  171DOPC  H17Y20894   5.307   2.218  14.827 -0.2863  1.8616  2.7851
  171DOPC  C31820895   5.141   2.325  14.848  0.2310 -0.0930  0.2567
  171DOPC  H18X20896   5.174   2.355  14.950 -1.4497  0.0244  0.8037
  171DOPC  H18Y20897   5.082   2.409  14.805 -3.0635 -1.8673  0.9833
  171DOPC  H18Z20898   5.065   2.245  14.854  2.5036 -2.3645  0.1407
  172DOPC     N20899   3.942   3.179  12.613 -0.3558  0.7547 -0.3813
  172DOPC   C1220900   4.011   3.095  12.719  0.6781 -0.5261 -0.7589
  172DOPC  H12A20901   4.115   3.079  12.695  0.9876 -0.0243  0.1938
  172DOPC  H12B20902   3.962   2.999  12.727 -0.0008 -0.0571  2.1226
  172DOPC   C1320903   3.807   3.210  12.661  0.3734 -0.9740  0.1424
  172DOPC  H13A20904   3.745   3.127  12.692 -0.6157 -0.0426  0.7183
  172DOPC  H13B20905   3.812   3.282  12.741  1.8884  0.1387 -0.8901
  172DOPC  H13C20906   3.758   3.262  12.580  2.1111  0.0354 -0.3154
  172DOPC   C1420907   3.919   3.094  12.493  0.4621  0.3167 -0.5061
  172DOPC  H14A20908   4.007   3.038  12.465  0.5088 -0.3820  0.9061
  172DOPC  H14B20909   3.844   3.020  12.519  0.3613  0.5630 -0.0783
  172DOPC  H14C20910   3.885   3.151  12.408  1.1058  3.1568  1.0362
  172DOPC   C1520911   4.025   3.301  12.588  0.4679  0.2203  0.2363
  172DOPC  H15A20912   4.049   3.362  12.674  1.6914  0.1823 -0.0593
  172DOPC  H15B20913   3.985   3.364  12.510  1.8111  1.3078  0.3921
  172DOPC  H15C20914   4.125   3.269  12.560 -0.3463 -3.0440  0.6787
  172DOPC   C1120915   4.025   3.155  12.860 -0.0325 -0.1175  0.2670
  172DOPC  H11A20916   4.098   3.094  12.918 -0.3099  0.2691  1.0413
  172DOPC  H11B20917   4.083   3.250  12.858  0.1258 -0.2097  0.3811
  172DOPC     P20918   3.807   3.061  12.979  0.1043 -0.3730 -0.0863
  172DOPC   O1320919   3.862   2.930  12.941  0.4053  0.0403 -0.1082
  172DOPC   O1420920   3.667   3.092  12.933 -0.8139  0.1684 -0.1077
  172DOPC   O1220921   3.904   3.176  12.928  0.5202  0.4556  0.0905
  172DOPC   O1120922   3.813   3.068  13.136 -0.4202 -0.1932  0.0532
  172DOPC    C120923   3.946   3.104  13.191 -0.9784  0.1170 -0.3885
  172DOPC    HA20924   3.985   3.200  13.152 -0.6701  0.3407  0.4650
  172DOPC    HB20925   4.015   3.021  13.165 -1.3539 -0.8486  1.4899
  172DOPC    C220926   3.947   3.120  13.344  0.6441 -0.1063  0.3845
  172DOPC    HS20927   4.052   3.142  13.370  1.0373  0.5323 -1.5831
  172DOPC   O2120928   3.889   3.001  13.409  0.0845  0.2350 -0.0348
  172DOPC   C2120929   3.921   2.988  13.535 -0.3498  0.3682 -0.2475
  172DOPC   O2220930   4.004   3.050  13.595  0.4954 -0.0482 -0.0833
  172DOPC   C2220931   3.822   2.897  13.611  0.3595  0.0852 -0.1099
  172DOPC   H2R20932   3.813   2.809  13.543 -2.7019  0.9255 -0.9702
  172DOPC   H2S20933   3.728   2.956  13.607  0.5849  0.5352  0.8909
  172DOPC    C320934   3.862   3.247  13.380  0.6802  0.1271  0.1228
  172DOPC    HX20935   3.761   3.219  13.343  0.7670 -0.9715  0.6668
  172DOPC    HY20936   3.905   3.337  13.332  1.6943 -0.2659  0.2713
  172DOPC   O3120937   3.838   3.269  13.519 -1.0964 -0.6893 -0.0807
  172DOPC   C3120938   3.932   3.349  13.573  0.7329  0.3240  0.6409
  172DOPC   O3220939   4.037   3.373  13.519  0.3079  0.0300  0.2942
  172DOPC   C3220940   3.879   3.395  13.708 -0.7136  0.1444 -0.5655
  172DOPC   H2X20941   3.775   3.433  13.693 -1.0194 -0.0268  1.0360
  172DOPC   H2Y20942   3.854   3.311  13.775  0.8417 -1.4174 -1.8498
  172DOPC   C2320943   3.866   2.847  13.751  0.5722 -0.3815  0.2453
  172DOPC   H3R20944   3.975   2.829  13.753  0.4764 -1.1452  2.8694
  172DOPC   H3S20945   3.819   2.748  13.770 -1.0341  0.2855 -0.0142
  172DOPC   C2420946   3.826   2.937  13.869 -0.3655  0.0466  0.0039
  172DOPC   H4R20947   3.722   2.976  13.864 -0.0171  0.9668 -0.2435
  172DOPC   H4S20948   3.894   3.021  13.845 -1.4621  0.2277 -2.8977
  172DOPC   C2520949   3.867   2.880  14.005 -0.0632  0.1265  0.1038
  172DOPC   H5R20950   3.965   2.829  14.017 -0.0903  0.0549  0.0223
  172DOPC   H5S20951   3.791   2.803  14.029 -2.1057  1.3831 -1.8597
  172DOPC   C2620952   3.860   2.984  14.119 -0.1409 -0.8248 -0.5202
  172DOPC   H6R20953   3.931   3.069  14.102 -0.3105 -0.4308  0.6999
  172DOPC   H6S20954   3.900   2.937  14.211 -1.2387  0.6771  0.7705
  172DOPC   C2720955   3.718   3.031  14.147 -0.1679 -0.1622  0.0671
  172DOPC   H7R20956   3.646   2.946  14.156  0.0794 -0.5368 -1.1862
  172DOPC   H7S20957   3.690   3.076  14.049 -2.3142 -0.6466  0.3927
  172DOPC   C2820958   3.705   3.111  14.266  0.3432 -1.1143  0.6244
  172DOPC   H8R20959   3.778   3.195  14.264  0.7085 -1.4045  1.3731
  172DOPC   H8S20960   3.735   3.051  14.355 -0.7187  0.9046  2.4453
  172DOPC   C2920961   3.567   3.171  14.287  0.2082  0.0862 -0.4804
  172DOPC   H9R20962   3.518   3.201  14.193 -2.0465 -2.4139 -0.2335
  172DOPC  C21020963   3.508   3.198  14.403  0.4884 -0.6697 -0.3863
  172DOPC  H10R20964   3.412   3.252  14.411  0.4289 -0.8941  0.4502
  172DOPC  C21120965   3.553   3.153  14.537 -0.2066  0.2876  0.4788
  172DOPC  H11R20966   3.627   3.070  14.529  0.4145  0.5627  2.6117
  172DOPC  H11S20967   3.477   3.095  14.593 -0.0161 -0.1863  0.2525
  172DOPC  C21220968   3.611   3.257  14.642 -0.2872  0.3478 -0.1315
  172DOPC  H12R20969   3.688   3.319  14.592  1.7523 -0.4155  1.8679
  172DOPC  H12S20970   3.659   3.198  14.724 -2.3572 -1.1037  0.1195
  172DOPC  C21320971   3.515   3.351  14.711  0.4163  0.5323  0.0292
  172DOPC  H13R20972   3.461   3.410  14.635  1.2260 -0.2449 -1.1883
  172DOPC  H13S20973   3.584   3.409  14.776  0.8058 -0.1477  0.2340
  172DOPC  C21420974   3.422   3.283  14.813 -0.4580  0.1416  0.3041
  172DOPC  H14R20975   3.468   3.195  14.863 -0.0062  1.3152  2.0307
  172DOPC  H14S20976   3.331   3.256  14.756 -0.6574  2.7624 -0.7391
  172DOPC  C21520977   3.386   3.387  14.926 -0.1997 -0.1017  0.0040
  172DOPC  H15R20978   3.474   3.434  14.973  0.6252 -0.5145 -1.0920
  172DOPC  H15S20979   3.328   3.345  15.011  0.7038  0.3672  0.8570
  172DOPC  C21620980   3.300   3.501  14.866 -0.8538  0.4941 -0.5590
  172DOPC  H16R20981   3.201   3.470  14.826  0.1037 -1.1178 -1.7826
  172DOPC  H16S20982   3.348   3.567  14.791  0.5936  1.6214  1.2456
  172DOPC  C21720983   3.268   3.604  14.980 -0.0974 -0.0470 -0.1352
  172DOPC  H17R20984   3.220   3.690  14.929 -1.5424 -0.1661  0.9496
  172DOPC  H17S20985   3.353   3.638  15.044 -0.9373  1.5907  0.1625
  172DOPC  C21820986   3.157   3.560  15.074 -0.1376  0.1224  1.3886
  172DOPC  H18R20987   3.134   3.625  15.161 -2.3780  0.7022  0.4462
  172DOPC  H18S20988   3.181   3.456  15.106  1.6877  0.1976  0.4098
  172DOPC  H18T20989   3.063   3.559  15.015  1.6603  0.6622 -1.6852
  172DOPC   C3320990   3.969   3.504  13.766 -0.0398  0.2789  0.2512
  172DOPC   H3X20991   3.914   3.556  13.846 -0.3569 -1.4753  1.2281
  172DOPC   H3Y20992   4.002   3.586  13.698  1.3674 -0.6891 -0.2925
  172DOPC   C3420993   4.096   3.446  13.831 -0.3000 -0.5744  0.6893
  172DOPC   H4X20994   4.159   3.534  13.856 -3.2416  1.9109 -0.0206
  172DOPC   H4Y20995   4.147   3.390  13.750 -3.5785 -0.0768 -1.9346
  172DOPC   C3520996   4.077   3.356  13.952 -0.7337  0.2321  1.0160
  172DOPC   H5X20997   4.182   3.339  13.984 -0.6425  1.0631  1.1858
  172DOPC   H5Y20998   4.041   3.256  13.918 -0.3947  0.9757 -1.7573
  172DOPC   C3620999   4.004   3.417  14.070 -0.3110 -0.1316 -0.3341
  172DOPC   H6X21000   4.057   3.514  14.086  2.3712 -1.7557  1.5629
  172DOPC   H6Y21001   3.897   3.436  14.047 -0.5178  0.7238  1.1953
  172DOPC   C3721002   4.017   3.342  14.206  0.5376 -0.6988 -0.0657
  172DOPC   H7X21003   3.981   3.241  14.179 -1.1362  0.0160 -0.6773
  172DOPC   H7Y21004   4.122   3.342  14.243  0.6146 -0.1424 -0.2657
  172DOPC   C3821005   3.925   3.414  14.306  0.5860 -0.0813  0.5419
  172DOPC   H8X21006   3.911   3.338  14.386  1.8970 -0.1109  0.7780
  172DOPC   H8Y21007   3.825   3.424  14.260  0.8214 -0.9029 -0.1668
  172DOPC   C3921008   3.963   3.543  14.358 -0.2704 -1.0353 -0.0845
  172DOPC   H9X21009   4.064   3.582  14.337  0.3081  0.0313  3.9263
  172DOPC  C31021010   3.875   3.621  14.435 -0.7138  0.4914  0.1269
  172DOPC  H10X21011   3.899   3.723  14.470 -0.8630  0.4823  0.2537
  172DOPC  C31121012   3.739   3.582  14.477  0.8053 -0.3245 -0.3327
  172DOPC  H11X21013   3.722   3.598  14.586 -1.7796  0.6737 -0.8096
  172DOPC  H11Y21014   3.705   3.478  14.459 -1.4711  0.0800  1.2550
  172DOPC  C31221015   3.632   3.651  14.393  0.4677 -0.4287  0.1627
  172DOPC  H12X21016   3.651   3.639  14.285  0.7631  0.5519  0.0986
  172DOPC  H12Y21017   3.632   3.759  14.420  0.9735  0.0634 -1.7055
  172DOPC  C31321018   3.497   3.596  14.426 -0.2191  0.3859  0.0808
  172DOPC  H13X21019   3.489   3.486  14.411  0.0216  0.3644  0.1181
  172DOPC  H13Y21020   3.464   3.606  14.532 -2.0832 -0.3036 -0.3926
  172DOPC  C31421021   3.383   3.655  14.336 -0.8352 -0.3730 -0.0221
  172DOPC  H14X21022   3.382   3.766  14.340  0.2457 -0.2236 -2.2660
  172DOPC  H14Y21023   3.417   3.639  14.231 -0.7945  1.2291 -0.2837
  172DOPC  C31521024   3.244   3.611  14.355  0.3764  0.2331  0.3803
  172DOPC  H15X21025   3.222   3.656  14.454  1.4890  1.1866  0.2069
  172DOPC  H15Y21026   3.258   3.501  14.366  1.7925  0.3144 -0.4481
  172DOPC  C31621027   3.141   3.646  14.251  0.0732  0.2327  0.5781
  172DOPC  H16X21028   3.146   3.753  14.222 -0.2823 -0.2466 -1.4209
  172DOPC  H16Y21029   3.171   3.591  14.159 -0.1474 -2.2372  1.8956
  172DOPC  C31721030   2.992   3.614  14.279  0.3547  0.3798  0.5349
  172DOPC  H17X21031   2.991   3.514  14.328 -1.1006  0.4854  0.7669
  172DOPC  H17Y21032   2.953   3.681  14.358 -0.6392  0.3485  0.0927
  172DOPC  C31821033   2.893   3.606  14.164  0.1736 -0.2955 -0.0323
  172DOPC  H18X21034   2.788   3.603  14.202 -0.0727  0.3597 -0.6402
  172DOPC  H18Y21035   2.902   3.696  14.099 -2.1135 -1.2868 -1.8860
  172DOPC  H18Z21036   2.911   3.517  14.101  0.7725  0.0720 -0.3937
  173DOPC     N21037   3.701   1.791  12.747  0.5589 -0.1466 -0.0946
  173DOPC   C1221038   3.627   1.920  12.687 -0.9813 -0.2227 -0.0220
  173DOPC  H12A21039   3.632   1.915  12.579 -0.4526 -0.7414  0.0198
  173DOPC  H12B21040   3.690   2.005  12.707 -0.5944 -0.7777  1.1775
  173DOPC   C1321041   3.637   1.657  12.719  0.4884 -0.4177  0.4395
  173DOPC  H13A21042   3.669   1.621  12.623  0.8733 -0.6531  0.6548
  173DOPC  H13B21043   3.667   1.596  12.803  0.4276  1.3698  1.8021
  173DOPC  H13C21044   3.529   1.662  12.708  0.4199 -4.2153 -2.7715
  173DOPC   C1421045   3.690   1.796  12.904 -0.9501 -0.3685  0.3477
  173DOPC  H14A21046   3.745   1.710  12.941 -1.5601 -1.4942 -1.2331
  173DOPC  H14B21047   3.745   1.881  12.938 -0.2903 -1.7524  2.9699
  173DOPC  H14C21048   3.591   1.792  12.947 -0.6955 -1.5578  0.8680
  173DOPC   C1521049   3.852   1.789  12.710 -0.3520 -1.1629 -0.2244
  173DOPC  H15A21050   3.898   1.879  12.749 -0.5990 -1.1426  0.0247
  173DOPC  H15B21051   3.864   1.808  12.604 -2.0216  0.1214 -0.2266
  173DOPC  H15C21052   3.894   1.697  12.745 -0.0546  0.0287  2.8615
  173DOPC   C1121053   3.485   1.955  12.737  0.1086  0.2246 -0.6928
  173DOPC  H11A21054   3.430   2.030  12.675 -1.5282 -0.4842 -0.1537
  173DOPC  H11B21055   3.425   1.862  12.740  1.1203 -0.5018 -2.0635
  173DOPC     P21056   3.551   2.142  12.905 -0.1187  0.0424  0.1589
  173DOPC   O1321057   3.454   2.242  12.856  0.3547 -0.2617 -0.4563
  173DOPC   O1421058   3.695   2.162  12.859  1.0133  0.3364  0.4815
  173DOPC   O1221059   3.494   2.000  12.872 -0.0176  0.3769  0.3957
  173DOPC   O1121060   3.561   2.146  13.065 -0.2548  0.0577  0.2257
  173DOPC    C121061   3.443   2.160  13.142  0.4045  0.6797 -0.7783
  173DOPC    HA21062   3.455   2.107  13.239 -0.3524  3.3158  0.8640
  173DOPC    HB21063   3.357   2.120  13.084  0.2220  1.2523 -0.9117
  173DOPC    C221064   3.425   2.311  13.184 -0.0953  0.0713  0.3234
  173DOPC    HS21065   3.412   2.371  13.091  1.2018 -0.1432 -0.0150
  173DOPC   O2121066   3.548   2.350  13.260 -0.2867  0.1385 -0.5554
  173DOPC   C2121067   3.553   2.480  13.282  0.2927  0.3002  0.4788
  173DOPC   O2221068   3.486   2.570  13.232 -0.6050 -0.0215 -0.5816
  173DOPC   C2221069   3.654   2.505  13.402 -0.0020 -0.9030  0.4052
  173DOPC   H2R21070   3.710   2.591  13.359  1.3873  0.3820  4.3047
  173DOPC   H2S21071   3.724   2.418  13.408  1.3643  0.0073 -1.3166
  173DOPC    C321072   3.294   2.332  13.269  0.7316 -0.3217 -0.4245
  173DOPC    HX21073   3.209   2.285  13.216  0.5424 -1.8538  1.1133
  173DOPC    HY21074   3.275   2.440  13.281  2.9825 -0.0114  1.0898
  173DOPC   O3121075   3.315   2.272  13.406  0.3604 -0.2281  0.7721
  173DOPC   C3121076   3.202   2.216  13.464  0.5286 -0.3582 -0.6131
  173DOPC   O3221077   3.089   2.243  13.426  0.2916  0.1203  0.1246
  173DOPC   C3221078   3.241   2.140  13.589  0.5565 -0.4032  0.7416
  173DOPC   H2X21079   3.287   2.044  13.557  1.1397 -0.1950  0.9367
  173DOPC   H2Y21080   3.326   2.184  13.645  1.6921 -1.6553  0.0615
  173DOPC   C2321081   3.603   2.550  13.544  0.4969 -0.3641 -0.0437
  173DOPC   H3R21082   3.507   2.608  13.538  1.2177  1.4184  3.4144
  173DOPC   H3S21083   3.678   2.625  13.577  3.1800 -2.6929 -0.5771
  173DOPC   C2421084   3.592   2.435  13.649  0.3613  0.1226  0.7104
  173DOPC   H4R21085   3.693   2.391  13.658 -0.0660 -1.0803 -0.1355
  173DOPC   H4S21086   3.524   2.351  13.623  0.3113  0.9147 -2.1240
  173DOPC   C2521087   3.550   2.481  13.793  0.2649  0.3967 -0.3431
  173DOPC   H5R21088   3.452   2.532  13.796  0.0445 -0.0172 -0.5017
  173DOPC   H5S21089   3.630   2.555  13.817  2.1537 -1.5474 -0.2994
  173DOPC   C2621090   3.552   2.376  13.911 -0.2869 -0.7769  1.2126
  173DOPC   H6R21091   3.657   2.355  13.941  0.1679 -1.3974 -0.6682
  173DOPC   H6S21092   3.515   2.283  13.862  2.4767 -1.4895  0.2981
  173DOPC   C2721093   3.469   2.416  14.023  0.8643  0.1232  0.1413
  173DOPC   H7R21094   3.362   2.411  13.991  0.3801  1.0667  1.5195
  173DOPC   H7S21095   3.492   2.521  14.052  0.8621  0.2936 -0.4534
  173DOPC   C2821096   3.490   2.327  14.148 -0.2337 -0.1800 -0.1112
  173DOPC   H8R21097   3.481   2.402  14.229 -0.0480  1.7141 -1.7759
  173DOPC   H8S21098   3.600   2.315  14.153 -0.0481  1.0760 -0.7619
  173DOPC   C2921099   3.414   2.197  14.150  0.5577  0.4041 -0.4543
  173DOPC   H9R21100   3.431   2.139  14.059  1.6535 -0.0644  0.0222
  173DOPC  C21021101   3.323   2.151  14.242  0.5218  0.6887 -0.2891
  173DOPC  H10R21102   3.274   2.053  14.240 -0.9434  1.3760  0.3971
  173DOPC  C21121103   3.273   2.236  14.354 -0.2532  0.1856 -0.2442
  173DOPC  H11R21104   3.161   2.238  14.356 -0.2423  0.8303 -0.0553
  173DOPC  H11S21105   3.308   2.340  14.344  0.4140 -0.0443 -0.3336
  173DOPC  C21221106   3.337   2.171  14.485  0.6690 -0.3640  0.0744
  173DOPC  H12R21107   3.448   2.159  14.479  0.8312  1.1844 -0.7763
  173DOPC  H12S21108   3.297   2.068  14.486 -0.6922  0.1407 -0.7756
  173DOPC  C21321109   3.298   2.251  14.611 -0.3433  0.8916 -0.1806
  173DOPC  H13R21110   3.189   2.274  14.600 -0.3119  0.9697 -0.3240
  173DOPC  H13S21111   3.360   2.343  14.621  3.4249 -1.4831 -0.0905
  173DOPC  C21421112   3.317   2.167  14.741 -0.8110 -0.6394 -0.4101
  173DOPC  H14R21113   3.404   2.197  14.803 -1.8832 -0.9255  1.2844
  173DOPC  H14S21114   3.325   2.061  14.708 -0.5698 -0.2466 -1.6622
  173DOPC  C21521115   3.188   2.175  14.826 -0.0708  0.1359 -0.1935
  173DOPC  H15R21116   3.205   2.113  14.917  0.9825  0.5223 -0.1095
  173DOPC  H15S21117   3.101   2.131  14.775 -0.5042  0.0507  0.5980
  173DOPC  C21621118   3.144   2.308  14.895 -0.7485 -0.0209 -0.2263
  173DOPC  H16R21119   3.100   2.381  14.824 -3.3640  1.1957  2.4478
  173DOPC  H16S21120   3.240   2.352  14.928 -0.4378 -1.0034  0.2284
  173DOPC  C21721121   3.037   2.288  15.013  0.1462  0.4595  0.0084
  173DOPC  H17R21122   3.073   2.201  15.072 -1.8204 -0.8918 -0.6819
  173DOPC  H17S21123   2.938   2.261  14.971  0.0498  1.2525 -0.2971
  173DOPC  C21821124   3.038   2.406  15.103 -0.2307 -0.1744 -0.4059
  173DOPC  H18R21125   3.143   2.436  15.127 -0.0015 -1.1574 -0.1417
  173DOPC  H18S21126   2.980   2.386  15.196 -2.5078 -0.1731 -1.7588
  173DOPC  H18T21127   2.982   2.492  15.060  0.9206  1.1454  0.6236
  173DOPC   C3321128   3.119   2.117  13.683  0.2682  0.2516 -0.6490
  173DOPC   H3X21129   3.042   2.060  13.628 -0.7627  0.0074  0.9876
  173DOPC   H3Y21130   3.067   2.208  13.720 -0.4401 -0.1120 -0.7524
  173DOPC   C3421131   3.176   2.053  13.815  0.0588 -0.0348 -0.0245
  173DOPC   H4X21132   3.228   2.136  13.868  1.5635 -0.3317 -0.9878
  173DOPC   H4Y21133   3.260   1.986  13.788  0.5773  0.5025  0.2250
  173DOPC   C3521134   3.076   1.971  13.900 -0.4985 -0.2264 -0.3016
  173DOPC   H5X21135   3.054   1.894  13.823 -0.3629 -0.5738  0.0043
  173DOPC   H5Y21136   2.988   2.029  13.935  0.0875  0.4731  0.0612
  173DOPC   C3621137   3.134   1.901  14.025  0.1037  0.0348  0.4496
  173DOPC   H6X21138   3.231   1.856  13.998  0.5291  2.2466 -2.1757
  173DOPC   H6Y21139   3.155   1.991  14.087  0.3814 -0.1072  0.5617
  173DOPC   C3721140   3.026   1.812  14.076  0.1293  0.3838 -0.1593
  173DOPC   H7X21141   2.937   1.872  14.104  0.4211  1.8781 -2.1704
  173DOPC   H7Y21142   2.995   1.745  13.992 -0.9669 -0.8494  1.1839
  173DOPC   C3821143   3.060   1.715  14.194 -0.0804 -0.3904 -0.6453
  173DOPC   H8X21144   3.156   1.662  14.178 -0.1777 -0.4151 -1.1670
  173DOPC   H8Y21145   2.975   1.644  14.187 -0.6132 -0.2161  2.5809
  173DOPC   C3921146   3.046   1.788  14.328  0.1348  0.1176  0.2400
  173DOPC   H9X21147   2.955   1.849  14.336  1.0270  1.6930 -0.8624
  173DOPC  C31021148   3.126   1.769  14.430  0.0291 -0.7379 -0.4670
  173DOPC  H10X21149   3.092   1.814  14.524 -2.9115 -0.9539 -1.3240
  173DOPC  C31121150   3.247   1.682  14.431 -0.1835  0.0352 -0.1206
  173DOPC  H11X21151   3.225   1.585  14.380  0.8883 -0.1450 -0.2567
  173DOPC  H11Y21152   3.265   1.655  14.537  1.7652  1.5482 -0.0175
  173DOPC  C31221153   3.374   1.750  14.380  0.5131  1.1178  0.2631
  173DOPC  H12X21154   3.390   1.838  14.446  1.4270  0.4060  1.0157
  173DOPC  H12Y21155   3.366   1.786  14.275 -0.6097  0.3942  0.0905
  173DOPC  C31321156   3.497   1.659  14.393  0.2017  0.4277 -0.3013
  173DOPC  H13X21157   3.595   1.704  14.366  0.7839  1.2664  2.8000
  173DOPC  H13Y21158   3.511   1.634  14.500  0.1812  0.3168 -0.3240
  173DOPC  C31421159   3.484   1.530  14.298 -0.1159 -0.3505 -0.3555
  173DOPC  H14X21160   3.578   1.474  14.318 -0.7175 -0.2907  3.3521
  173DOPC  H14Y21161   3.402   1.471  14.344  1.7378 -1.2243  2.0558
  173DOPC  C31521162   3.460   1.556  14.153 -0.3253 -1.0030  0.5334
  173DOPC  H15X21163   3.529   1.636  14.121  0.0784 -1.3373  0.5568
  173DOPC  H15Y21164   3.358   1.594  14.132  0.2933  0.3367 -0.1580
  173DOPC  C31621165   3.476   1.427  14.075  0.4945  0.2998 -0.0250
  173DOPC  H16X21166   3.583   1.399  14.086  0.5269  1.0039  1.6861
  173DOPC  H16Y21167   3.416   1.347  14.122 -1.0672  3.6960  4.5268
  173DOPC  C31721168   3.444   1.439  13.922  0.3481  0.0449 -0.0252
  173DOPC  H17X21169   3.525   1.510  13.895 -0.1434  0.5421 -0.2114
  173DOPC  H17Y21170   3.466   1.341  13.874  0.2002 -1.4707  2.7382
  173DOPC  C31821171   3.316   1.506  13.865  0.4868 -0.3513 -0.5916
  173DOPC  H18X21172   3.218   1.455  13.877 -0.3959  1.4793  0.6210
  173DOPC  H18Y21173   3.301   1.607  13.910  0.9635 -0.5340 -0.0095
  173DOPC  H18Z21174   3.338   1.517  13.757  0.9993  0.1958 -0.4382
  174DOPC     N21175   5.422   1.808  12.757  0.6989  0.2746  0.3693
  174DOPC   C1221176   5.545   1.784  12.845 -0.4909 -0.0125  0.7932
  174DOPC  H12A21177   5.631   1.835  12.802 -0.6128 -0.4918 -0.0288
  174DOPC  H12B21178   5.558   1.678  12.837  1.2896  0.2294 -0.1474
  174DOPC   C1321179   5.457   1.784  12.615 -0.5869 -0.0358  0.5552
  174DOPC  H13A21180   5.504   1.689  12.592 -0.3111  0.7072 -2.3271
  174DOPC  H13B21181   5.369   1.795  12.554 -0.7592 -0.6057  0.6889
  174DOPC  H13C21182   5.531   1.857  12.585 -2.5508  2.5672  1.6825
  174DOPC   C1421183   5.355   1.945  12.777  0.2125 -0.1899 -0.3065
  174DOPC  H14A21184   5.267   1.953  12.715  0.7186  3.0778 -0.7998
  174DOPC  H14B21185   5.323   1.950  12.879 -0.7417  1.8906 -0.6499
  174DOPC  H14C21186   5.425   2.024  12.750 -2.0211  1.6019 -1.2326
  174DOPC   C1521187   5.319   1.706  12.797  0.3558 -0.5382  0.3103
  174DOPC  H15A21188   5.303   1.710  12.904  1.6738 -2.1302  0.6152
  174DOPC  H15B21189   5.370   1.614  12.772 -0.2551 -0.0903 -2.9620
  174DOPC  H15C21190   5.229   1.701  12.739  1.7402 -0.9135 -1.9292
  174DOPC   C1121191   5.542   1.830  12.997 -0.4759  0.9818 -0.0597
  174DOPC  H11A21192   5.438   1.826  13.036  0.2098 -0.3097  1.7576
  174DOPC  H11B21193   5.601   1.757  13.056  1.8278  2.0584 -0.8966
  174DOPC     P21194   5.732   2.002  13.011 -0.6791  0.2030 -0.0267
  174DOPC   O1321195   5.747   2.139  13.063 -0.2351  0.1703 -0.8552
  174DOPC   O1421196   5.783   1.988  12.873 -0.2696  0.4319  0.2063
  174DOPC   O1221197   5.582   1.960  13.019  0.1325  0.0055  0.2345
  174DOPC   O1121198   5.804   1.899  13.101  0.4066  0.0704 -0.0771
  174DOPC    C121199   5.788   1.869  13.234 -1.1216  0.1517 -0.1459
  174DOPC    HA21200   5.731   1.773  13.231 -0.0442 -0.4728 -2.5973
  174DOPC    HB21201   5.733   1.947  13.290  1.0445  0.7570  1.2673
  174DOPC    C221202   5.927   1.857  13.298 -0.2645  0.4534  0.3951
  174DOPC    HS21203   5.993   1.788  13.242 -0.3179 -0.4172  1.3765
  174DOPC   O2121204   5.915   1.812  13.434  0.2457 -0.5245  0.3008
  174DOPC   C2121205   5.872   1.684  13.445 -0.4862  0.0915  0.6562
  174DOPC   O2221206   5.870   1.609  13.351 -0.1792  0.5685  0.3189
  174DOPC   C2221207   5.838   1.653  13.600  0.2815  0.5471  0.3838
  174DOPC   H2R21208   5.744   1.704  13.628 -1.1282 -2.8775  2.5017
  174DOPC   H2S21209   5.918   1.692  13.666  1.4308 -0.6684 -0.2431
  174DOPC    C321210   6.005   1.996  13.284 -0.9200  0.2679  0.0548
  174DOPC    HX21211   5.937   2.081  13.306  1.3403  2.2190 -0.1196
  174DOPC    HY21212   6.034   2.008  13.177  3.8063 -2.6174  0.6971
  174DOPC   O3121213   6.127   2.003  13.359  0.2228  0.4762 -0.3673
  174DOPC   C3121214   6.231   1.947  13.307 -0.8117  0.4117  0.2379
  174DOPC   O3221215   6.242   1.884  13.203 -0.3042  0.1814 -0.2289
  174DOPC   C3221216   6.356   1.985  13.390  0.4223  0.1228 -0.3336
  174DOPC   H2X21217   6.438   1.920  13.354 -1.0246 -1.7892 -0.3305
  174DOPC   H2Y21218   6.376   2.092  13.371 -1.0698  0.6293  0.7503
  174DOPC   C2321219   5.839   1.499  13.624 -0.0606  0.2697  0.5492
  174DOPC   H3R21220   5.919   1.438  13.578 -0.2216  1.0266 -0.7781
  174DOPC   H3S21221   5.745   1.459  13.580  0.5391  0.3725 -0.8550
  174DOPC   C2421222   5.855   1.472  13.769  0.3792 -0.3621  0.8132
  174DOPC   H4R21223   5.812   1.370  13.778  0.7031 -0.6182 -0.3921
  174DOPC   H4S21224   5.797   1.546  13.828 -0.9697 -0.9044  0.2376
  174DOPC   C2521225   6.011   1.481  13.811 -0.3810  0.2381 -0.4510
  174DOPC   H5R21226   6.048   1.584  13.823  2.0424 -0.8026  1.8917
  174DOPC   H5S21227   6.070   1.434  13.729  0.5200  0.6672 -0.0575
  174DOPC   C2621228   6.042   1.414  13.945 -0.6847 -0.8722 -0.1914
  174DOPC   H6R21229   6.021   1.478  14.034  2.7055 -0.5865  0.5265
  174DOPC   H6S21230   6.152   1.406  13.955 -0.5233  0.3196 -0.7638
  174DOPC   C2721231   5.983   1.273  13.943 -0.1166 -0.6033 -0.9224
  174DOPC   H7R21232   6.008   1.233  13.842 -0.2167 -1.9067 -0.4434
  174DOPC   H7S21233   5.875   1.274  13.968  0.1862 -1.9413  0.5716
  174DOPC   C2821234   6.044   1.197  14.057 -0.0097  0.8459 -0.8827
  174DOPC   H8R21235   5.981   1.108  14.081 -0.1558  0.8216 -1.3411
  174DOPC   H8S21236   6.043   1.260  14.148 -0.1691  2.6303 -2.0555
  174DOPC   C2921237   6.178   1.144  14.021  0.0761 -0.0946  0.0171
  174DOPC   H9R21238   6.174   1.069  13.940 -1.6803 -2.4897  2.1668
  174DOPC  C21021239   6.298   1.178  14.081  0.1365  0.3927  0.7705
  174DOPC  H10R21240   6.391   1.126  14.054 -0.3184 -1.1312  1.9931
  174DOPC  C21121241   6.320   1.270  14.201  0.6116 -0.5246  0.7615
  174DOPC  H11R21242   6.230   1.309  14.254  0.0120 -1.1287  0.2051
  174DOPC  H11S21243   6.375   1.364  14.177 -1.2520  0.5719  0.5734
  174DOPC  C21221244   6.408   1.210  14.312  0.0291 -1.3958  0.2364
  174DOPC  H12R21245   6.435   1.294  14.379  1.5852 -1.4443 -0.2939
  174DOPC  H12S21246   6.500   1.167  14.268 -0.5768 -0.3426 -2.2101
  174DOPC  C21321247   6.330   1.102  14.384  0.1304  0.0582  0.4245
  174DOPC  H13R21248   6.401   1.040  14.444  0.7348  1.0222  0.7272
  174DOPC  H13S21249   6.282   1.036  14.309 -0.0630  0.9699 -0.2617
  174DOPC  C21421250   6.222   1.155  14.484 -0.5512 -0.3685 -0.0637
  174DOPC  H14R21251   6.149   1.081  14.521 -0.9848  1.5463  3.2388
  174DOPC  H14S21252   6.163   1.225  14.421 -0.2183 -0.0510 -0.0251
  174DOPC  C21521253   6.281   1.223  14.612 -0.1143  0.1059  0.0416
  174DOPC  H15R21254   6.206   1.271  14.679 -1.8514 -0.6080 -1.3236
  174DOPC  H15S21255   6.350   1.306  14.584 -0.9513  0.7052 -0.2943
  174DOPC  C21621256   6.365   1.126  14.696 -0.3294 -0.2057  0.5562
  174DOPC  H16R21257   6.401   1.197  14.773 -0.5000 -0.8375  1.2329
  174DOPC  H16S21258   6.450   1.095  14.632 -0.4621  2.6497 -1.1608
  174DOPC  C21721259   6.294   1.003  14.755  0.0145  0.3288 -0.2019
  174DOPC  H17R21260   6.371   0.946  14.812 -1.3486 -1.4876 -0.0628
  174DOPC  H17S21261   6.271   0.941  14.665 -1.4692 -2.3593  1.8666
  174DOPC  C21821262   6.162   1.035  14.830  0.4618  0.2921 -0.1980
  174DOPC  H18R21263   6.175   1.087  14.927 -3.5403 -0.1713  0.7789
  174DOPC  H18S21264   6.107   0.943  14.858  1.7362 -0.0942  1.1997
  174DOPC  H18T21265   6.102   1.106  14.770 -0.9157 -0.1213  0.6453
  174DOPC   C3321266   6.335   1.944  13.535 -0.3597  0.3311  0.9003
  174DOPC   H3X21267   6.237   1.988  13.564 -0.4450  0.5430  0.3218
  174DOPC   H3Y21268   6.408   1.992  13.603  0.5355 -0.6482  0.6455
  174DOPC   C3421269   6.334   1.786  13.550 -0.1248 -0.0179  0.3164
  174DOPC   H4X21270   6.439   1.752  13.540 -0.6917 -1.5165 -0.8516
  174DOPC   H4Y21271   6.264   1.745  13.475 -0.4562  1.0372  0.0285
  174DOPC   C3521272   6.280   1.735  13.676 -0.4078 -0.3335 -0.2073
  174DOPC   H5X21273   6.243   1.631  13.667  1.9234 -1.0555 -2.3838
  174DOPC   H5Y21274   6.194   1.803  13.698 -0.0716 -0.2182  0.8183
  174DOPC   C3621275   6.368   1.751  13.804  0.0605  0.1382  0.5085
  174DOPC   H6X21276   6.462   1.692  13.796 -0.9232 -2.1540  3.7383
  174DOPC   H6Y21277   6.400   1.857  13.797  3.2193 -0.6689  1.0489
  174DOPC   C3721278   6.296   1.711  13.923  0.1093  0.3562 -0.3115
  174DOPC   H7X21279   6.207   1.772  13.947  0.7083  1.6190 -1.1681
  174DOPC   H7Y21280   6.257   1.610  13.896 -0.1142  0.5551 -0.7300
  174DOPC   C3821281   6.379   1.703  14.049  0.3181  0.5224 -0.7527
  174DOPC   H8X21282   6.316   1.668  14.133  0.5304 -2.4812 -1.7435
  174DOPC   H8Y21283   6.407   1.807  14.078  0.0379  0.1849  0.8184
  174DOPC   C3921284   6.496   1.608  14.035  0.0598  0.9207  0.2890
  174DOPC   H9X21285   6.483   1.526  13.963  1.6249  0.3428  0.6242
  174DOPC  C31021286   6.616   1.610  14.106  0.0129  0.3423 -0.1608
  174DOPC  H10X21287   6.693   1.534  14.087  0.9743  0.9566  1.0852
  174DOPC  C31121288   6.652   1.710  14.206 -0.3569 -0.2937 -0.3525
  174DOPC  H11X21289   6.569   1.783  14.215 -1.7384 -1.9893  1.5188
  174DOPC  H11Y21290   6.744   1.757  14.166 -0.3597 -0.9955 -1.2082
  174DOPC  C31221291   6.698   1.687  14.350  0.6955  0.2928 -0.7056
  174DOPC  H12X21292   6.776   1.763  14.374  0.3573  0.4572 -0.1153
  174DOPC  H12Y21293   6.746   1.588  14.360  1.0359  0.3004 -2.0779
  174DOPC  C31321294   6.573   1.711  14.443 -0.0732 -0.7702  0.2192
  174DOPC  H13X21295   6.608   1.696  14.547  0.0926  2.4505  0.7153
  174DOPC  H13Y21296   6.532   1.813  14.428 -0.8240 -0.9891  0.7557
  174DOPC  C31421297   6.453   1.618  14.429  0.5829 -0.2035  0.2270
  174DOPC  H14X21298   6.441   1.597  14.321 -0.2753 -1.1213  0.4840
  174DOPC  H14Y21299   6.487   1.519  14.468  0.6781 -0.0732  0.4793
  174DOPC  C31521300   6.323   1.666  14.496  0.1397  0.2796  0.5205
  174DOPC  H15X21301   6.313   1.773  14.467  1.4386 -0.1239 -1.6243
  174DOPC  H15Y21302   6.328   1.664  14.607  0.5882  0.5362  0.5068
  174DOPC  C31621303   6.207   1.592  14.433  0.3147 -0.2768 -0.4501
  174DOPC  H16X21304   6.184   1.628  14.331 -0.2419  2.5545  0.5716
  174DOPC  H16Y21305   6.230   1.485  14.415  0.2815 -0.3538 -0.0575
  174DOPC  C31721306   6.072   1.604  14.512 -0.1995 -0.5427 -0.1150
  174DOPC  H17X21307   6.094   1.609  14.620  0.6179 -0.3333 -0.2890
  174DOPC  H17Y21308   6.034   1.701  14.474  0.2030 -1.6049 -3.5874
  174DOPC  C31821309   5.976   1.491  14.475 -0.4457  0.3361  0.4165
  174DOPC  H18X21310   5.958   1.483  14.366 -0.4755 -1.2515  0.5176
  174DOPC  H18Y21311   6.018   1.394  14.510 -0.5905  0.5003  1.0619
  174DOPC  H18Z21312   5.879   1.499  14.528 -1.2511  0.7072 -1.0709
  175DOPC     N21313   3.377   5.225  12.813  0.4425 -0.1508 -0.1107
  175DOPC   C1221314   3.519   5.261  12.859  0.2750 -0.1699  0.1807
  175DOPC  H12A21315   3.530   5.240  12.964  1.7428 -0.0448  0.0634
  175DOPC  H12B21316   3.532   5.367  12.844  1.6056  0.0399  2.4864
  175DOPC   C1321317   3.357   5.266  12.667  0.0958 -0.1244  0.1099
  175DOPC  H13A21318   3.413   5.206  12.597  0.2071  1.3574 -1.1256
  175DOPC  H13B21319   3.256   5.239  12.638  0.2728 -0.7029  0.0250
  175DOPC  H13C21320   3.382   5.369  12.649 -0.7098 -0.0635 -0.7301
  175DOPC   C1421321   3.278   5.306  12.893  0.2518 -0.1918 -0.2781
  175DOPC  H14A21322   3.175   5.282  12.873  0.1016  1.2415 -1.3913
  175DOPC  H14B21323   3.283   5.291  13.000 -1.6110 -0.2352 -0.1648
  175DOPC  H14C21324   3.279   5.413  12.876 -0.8029 -0.0501  0.4460
  175DOPC   C1521325   3.347   5.085  12.850 -0.0741 -0.6406 -0.5094
  175DOPC  H15A21326   3.406   5.069  12.939  0.0342 -0.0791 -0.4764
  175DOPC  H15B21327   3.380   5.007  12.783 -1.1537 -1.2502 -0.3631
  175DOPC  H15C21328   3.244   5.068  12.879  0.4021  0.2315  1.9287
  175DOPC   C1121329   3.637   5.187  12.792  0.5932  0.8041 -0.5685
  175DOPC  H11A21330   3.624   5.203  12.683 -2.2649  0.8923 -0.2828
  175DOPC  H11B21331   3.733   5.236  12.819  0.9047 -0.4840  0.7794
  175DOPC     P21332   3.729   4.985  12.935  0.2953 -0.2716  0.0684
  175DOPC   O1321333   3.870   5.024  12.918 -0.0882  0.1466 -0.1093
  175DOPC   O1421334   3.700   4.842  12.950 -0.0644  1.0090 -0.2527
  175DOPC   O1221335   3.635   5.045  12.826 -0.7535  0.6609 -0.2459
  175DOPC   O1121336   3.663   5.060  13.059  0.5860  0.1472 -0.5770
  175DOPC    C121337   3.723   5.149  13.149 -0.2791 -0.1589 -0.3674
  175DOPC    HA21338   3.653   5.180  13.229 -2.6283 -0.7553 -2.0915
  175DOPC    HB21339   3.749   5.244  13.098  0.9944 -0.2901 -0.0050
  175DOPC    C221340   3.857   5.094  13.210  0.0407  0.3011 -0.7268
  175DOPC    HS21341   3.923   5.048  13.133  2.4705 -0.5817  1.7241
  175DOPC   O2121342   3.829   5.012  13.326 -0.2062 -0.0749  0.3506
  175DOPC   C2121343   3.916   4.916  13.340 -0.5220  0.4832 -0.3327
  175DOPC   O2221344   4.016   4.893  13.272  0.0675 -0.4799  0.3005
  175DOPC   C2221345   3.875   4.839  13.469  0.3671  0.4877  0.5015
  175DOPC   H2R21346   3.832   4.745  13.430 -1.0496  1.4921 -0.4891
  175DOPC   H2S21347   3.787   4.898  13.504 -0.2534 -0.0551 -0.1120
  175DOPC    C321348   3.937   5.219  13.250 -0.5809 -0.4954 -0.4070
  175DOPC    HX21349   3.873   5.269  13.325  3.3219  0.4741  2.6064
  175DOPC    HY21350   3.946   5.284  13.160 -2.6332  1.3049  0.5977
  175DOPC   O3121351   4.072   5.189  13.292 -0.7017 -0.1940 -0.1843
  175DOPC   C3121352   4.143   5.298  13.319 -0.2647  0.3179 -0.8410
  175DOPC   O3221353   4.100   5.411  13.318 -0.0443 -0.1303 -0.1104
  175DOPC   C3221354   4.283   5.260  13.359  0.2904  0.4129 -0.0705
  175DOPC   H2X21355   4.267   5.176  13.430 -0.7058 -0.3567 -1.1567
  175DOPC   H2Y21356   4.321   5.217  13.263 -1.1029 -0.6815 -0.1554
  175DOPC   C2321357   3.978   4.814  13.572 -0.1042 -0.0109  0.2068
  175DOPC   H3R21358   4.075   4.778  13.532  0.3829  1.5198 -0.0443
  175DOPC   H3S21359   3.951   4.725  13.633  0.4695 -0.4951 -0.2314
  175DOPC   C2421360   4.008   4.941  13.652  0.1087 -0.1856 -0.7939
  175DOPC   H4R21361   4.039   5.016  13.576 -2.4936 -0.0305 -1.7985
  175DOPC   H4S21362   4.088   4.916  13.725 -1.3452 -1.3431  0.4701
  175DOPC   C2521363   3.896   5.010  13.724  0.1320 -0.4540  0.1881
  175DOPC   H5R21364   3.804   5.036  13.666  0.8158  0.2677 -0.5920
  175DOPC   H5S21365   3.931   5.105  13.769  0.0265  0.3696 -1.4167
  175DOPC   C2621366   3.835   4.921  13.833 -0.4649 -0.4059 -0.4022
  175DOPC   H6R21367   3.833   4.816  13.798  1.4752 -0.4750 -0.3888
  175DOPC   H6S21368   3.728   4.950  13.845 -0.4484 -0.4578 -0.1383
  175DOPC   C2721369   3.904   4.922  13.969  0.4730  0.4998  0.1774
  175DOPC   H7R21370   3.893   5.013  14.032  0.8501 -0.8434  2.3113
  175DOPC   H7S21371   4.012   4.902  13.948 -0.1844 -1.6554 -1.4344
  175DOPC   C2821372   3.867   4.799  14.055  0.0758  0.6441  0.0705
  175DOPC   H8R21373   3.900   4.709  13.999  0.7045  0.3736  0.8510
  175DOPC   H8S21374   3.756   4.800  14.050  0.0778  0.0188 -0.1876
  175DOPC   C2921375   3.931   4.793  14.193 -0.0490  0.3666 -0.2163
  175DOPC   H9R21376   4.041   4.794  14.197  0.0036  0.4729 -1.4562
  175DOPC  C21021377   3.864   4.796  14.308  0.2427 -0.1055  0.0950
  175DOPC  H10R21378   3.920   4.788  14.403 -3.9850  2.8078  3.2005
  175DOPC  C21121379   3.716   4.794  14.336  0.0699 -0.0663  0.1096
  175DOPC  H11R21380   3.659   4.864  14.272  0.0953 -0.1678 -0.0246
  175DOPC  H11S21381   3.708   4.809  14.446 -0.8097 -2.3790  0.4218
  175DOPC  C21221382   3.631   4.666  14.316 -0.1622  0.1918  0.9347
  175DOPC  H12R21383   3.649   4.631  14.212  0.4432  1.0282  0.7550
  175DOPC  H12S21384   3.525   4.696  14.307  0.7146  3.4403  0.3487
  175DOPC  C21321385   3.648   4.562  14.426 -0.0478 -0.0552 -0.8204
  175DOPC  H13R21386   3.751   4.545  14.464 -0.4454 -2.0934 -0.5427
  175DOPC  H13S21387   3.615   4.465  14.382 -0.2351 -1.7741  2.7383
  175DOPC  C21421388   3.550   4.595  14.538 -0.4316 -0.3039 -1.0382
  175DOPC  H14R21389   3.445   4.619  14.510 -1.4583 -1.5616  1.4202
  175DOPC  H14S21390   3.602   4.680  14.588  0.7565 -3.1821  3.1568
  175DOPC  C21521391   3.543   4.494  14.650  0.1452  0.4307  0.1143
  175DOPC  H15R21392   3.519   4.396  14.604  1.9531 -0.4097  0.8500
  175DOPC  H15S21393   3.463   4.516  14.725 -1.5033  1.3192 -1.8107
  175DOPC  C21621394   3.674   4.491  14.729 -0.0358  0.1073  0.1660
  175DOPC  H16R21395   3.697   4.593  14.766  0.1506  0.1074  0.0512
  175DOPC  H16S21396   3.760   4.469  14.663 -1.5359  1.5867 -2.4724
  175DOPC  C21721397   3.671   4.382  14.831 -0.0872 -0.0398 -0.0782
  175DOPC  H17R21398   3.659   4.278  14.793 -0.7646  0.1443 -0.3867
  175DOPC  H17S21399   3.582   4.395  14.896  0.7954  0.4098  1.0890
  175DOPC  C21821400   3.797   4.378  14.916  0.1388  0.0231 -0.6247
  175DOPC  H18R21401   3.887   4.356  14.856  0.2528 -0.1950 -0.3784
  175DOPC  H18S21402   3.795   4.300  14.996  1.4476 -1.5932 -2.1016
  175DOPC  H18T21403   3.818   4.477  14.962 -0.0250 -0.5245  0.6803
  175DOPC   C3321404   4.364   5.373  13.421  0.2765  0.1695 -0.6501
  175DOPC   H3X21405   4.301   5.418  13.501  0.1420 -2.4010  0.7953
  175DOPC   H3Y21406   4.382   5.454  13.347 -0.7187  1.9521  0.9588
  175DOPC   C3421407   4.500   5.335  13.477 -0.3244 -0.3773  0.2704
  175DOPC   H4X21408   4.570   5.295  13.400  0.0159 -0.0406  0.4025
  175DOPC   H4Y21409   4.486   5.255  13.553  0.4198  1.0628  2.0033
  175DOPC   C3521410   4.573   5.456  13.536  0.3414  0.3511  0.1946
  175DOPC   H5X21411   4.499   5.530  13.574 -1.0899 -0.2014 -1.3989
  175DOPC   H5Y21412   4.630   5.503  13.453 -1.1314 -0.3765 -1.2845
  175DOPC   C3621413   4.669   5.433  13.656  0.1479  0.2390 -0.2867
  175DOPC   H6X21414   4.754   5.371  13.622  1.1114  0.6817  1.2135
  175DOPC   H6Y21415   4.705   5.533  13.687 -1.2663  0.6828 -0.0273
  175DOPC   C3721416   4.605   5.365  13.777 -0.7248  0.2408 -0.9576
  175DOPC   H7X21417   4.601   5.255  13.759  1.4563 -0.2200  0.8812
  175DOPC   H7Y21418   4.666   5.386  13.868 -0.7476 -0.9296 -0.6507
  175DOPC   C3821419   4.451   5.396  13.810  0.5266 -0.0040 -0.3013
  175DOPC   H8X21420   4.426   5.313  13.880  0.2474  1.5685  1.5774
  175DOPC   H8Y21421   4.389   5.374  13.721  1.3785  1.7531 -1.3758
  175DOPC   C3921422   4.426   5.541  13.856  0.3483 -0.3175  0.1241
  175DOPC   H9X21423   4.384   5.614  13.786  0.2261  1.6834  2.1536
  175DOPC  C31021424   4.413   5.595  13.978 -0.4072 -0.3918 -0.0846
  175DOPC  H10X21425   4.391   5.702  13.991  0.2577 -0.2112 -0.4191
  175DOPC  C31121426   4.440   5.519  14.109  0.4427 -0.3476  0.1369
  175DOPC  H11X21427   4.524   5.553  14.174 -0.6899 -0.0945  1.5165
  175DOPC  H11Y21428   4.467   5.412  14.098  1.7412 -0.0079 -0.1580
  175DOPC  C31221429   4.323   5.541  14.199  0.0097  0.1504 -0.1425
  175DOPC  H12X21430   4.222   5.522  14.155 -1.5196  2.3803  2.1304
  175DOPC  H12Y21431   4.314   5.646  14.234 -2.2393 -0.9740  3.2374
  175DOPC  C31321432   4.323   5.462  14.330 -0.2559 -0.1656 -0.0435
  175DOPC  H13X21433   4.302   5.354  14.317 -4.3439  0.5035 -0.5602
  175DOPC  H13Y21434   4.416   5.477  14.388 -0.6168 -0.2849  0.5805
  175DOPC  C31421435   4.216   5.512  14.445 -0.2970  0.1488  0.4094
  175DOPC  H14X21436   4.252   5.610  14.485 -0.8244 -0.0622  1.4336
  175DOPC  H14Y21437   4.121   5.512  14.388  0.1653 -2.8252 -0.5176
  175DOPC  C31521438   4.199   5.415  14.562  0.6840  0.1504 -0.3182
  175DOPC  H15X21439   4.213   5.307  14.539  0.5634 -0.5207  2.4213
  175DOPC  H15Y21440   4.099   5.418  14.608  0.5973  2.1833 -0.5756
  175DOPC  C31621441   4.305   5.465  14.666 -0.7600  0.2445 -0.5878
  175DOPC  H16X21442   4.400   5.463  14.608  1.3518  1.7117  2.5657
  175DOPC  H16Y21443   4.283   5.569  14.699  0.7844  0.0365  1.2620
  175DOPC  C31721444   4.297   5.376  14.790  0.3094 -0.1147 -0.1571
  175DOPC  H17X21445   4.197   5.398  14.832  0.6608  1.9106 -0.2692
  175DOPC  H17Y21446   4.298   5.266  14.774  1.2461  0.0407 -1.2771
  175DOPC  C31821447   4.391   5.419  14.898  0.3613 -0.0468 -0.2136
  175DOPC  H18X21448   4.403   5.354  14.987  2.7383  0.6370  0.0165
  175DOPC  H18Y21449   4.493   5.427  14.856  0.9811  0.1801  1.3011
  175DOPC  H18Z21450   4.379   5.524  14.931  0.7199  0.2758 -1.0567
  176DOPC     N21451   3.514   0.915  13.059  0.6589  0.4754 -0.3183
  176DOPC   C1221452   3.619   0.850  13.141 -0.2268 -0.0441  0.3746
  176DOPC  H12A21453   3.705   0.836  13.078 -0.8630  1.0480 -0.7691
  176DOPC  H12B21454   3.583   0.752  13.169  1.3905  0.0405  3.1748
  176DOPC   C1321455   3.549   1.054  13.035 -0.1816 -1.2684  0.2694
  176DOPC  H13A21456   3.631   1.070  12.967  2.8747  1.0480  4.0430
  176DOPC  H13B21457   3.468   1.124  13.017 -0.6623 -1.6412  0.9096
  176DOPC  H13C21458   3.585   1.090  13.130 -0.1810 -1.0223  0.1765
  176DOPC   C1421459   3.387   0.915  13.147 -0.5031 -0.2972  0.1076
  176DOPC  H14A21460   3.416   0.958  13.242 -0.8346  1.1454 -0.4258
  176DOPC  H14B21461   3.307   0.972  13.103  0.0952  0.5706  0.1204
  176DOPC  H14C21462   3.350   0.815  13.161 -0.9590 -0.1341  0.0780
  176DOPC   C1521463   3.481   0.839  12.934 -0.6582 -0.6373 -0.0146
  176DOPC  H15A21464   3.564   0.829  12.866 -0.5991  0.0003 -0.0472
  176DOPC  H15B21465   3.395   0.883  12.885  0.7583 -0.6326 -2.6614
  176DOPC  H15C21466   3.446   0.740  12.956  0.5833 -0.9728  0.5658
  176DOPC   C1121467   3.675   0.917  13.274  0.0081  0.0918 -0.0894
  176DOPC  H11A21468   3.584   0.959  13.323  0.2161 -1.9240  2.2717
  176DOPC  H11B21469   3.733   0.856  13.347 -1.8945 -0.1423  1.3395
  176DOPC     P21470   3.901   1.030  13.189  0.2485 -0.3048  0.1593
  176DOPC   O1321471   3.954   1.165  13.210 -0.0634  0.2281  0.2343
  176DOPC   O1421472   3.899   0.981  13.049  0.3752 -1.0697  0.1759
  176DOPC   O1221473   3.757   1.028  13.241  0.4762  0.3422  0.1472
  176DOPC   O1121474   3.985   0.930  13.274  0.2018 -0.0279 -0.2700
  176DOPC    C121475   4.027   0.956  13.407 -0.7386 -0.8549  0.5709
  176DOPC    HA21476   3.976   1.039  13.461 -0.6550 -0.5984  0.2610
  176DOPC    HB21477   4.132   0.987  13.391 -0.1165 -2.1987  1.8573
  176DOPC    C221478   4.039   0.825  13.482  0.0395  0.1865  0.1953
  176DOPC    HS21479   4.093   0.757  13.413 -1.1826 -1.9502  1.2329
  176DOPC   O2121480   3.910   0.773  13.498 -0.3756 -0.3380 -0.4811
  176DOPC   C2121481   3.895   0.645  13.505 -1.7906 -0.1874 -0.7448
  176DOPC   O2221482   3.984   0.564  13.491 -0.5427 -0.0119  0.1831
  176DOPC   C2221483   3.744   0.619  13.514  0.0154  0.2339  0.1825
  176DOPC   H2R21484   3.701   0.614  13.412 -0.8480  2.9423  0.3342
  176DOPC   H2S21485   3.694   0.707  13.560  1.7179  1.2083  0.2553
  176DOPC    C321486   4.120   0.831  13.616  0.3024  0.1288  0.4410
  176DOPC    HX21487   4.216   0.880  13.592 -0.1089  0.0663 -1.4193
  176DOPC    HY21488   4.139   0.727  13.651  0.1744  0.2677  0.9321
  176DOPC   O3121489   4.047   0.916  13.715  0.0566  0.1498  0.1179
  176DOPC   C3121490   3.981   0.840  13.809  0.0572 -0.0188  0.5679
  176DOPC   O3221491   3.967   0.722  13.809  0.1598  0.0168 -0.4944
  176DOPC   C3221492   3.921   0.926  13.919 -0.4306  0.0698  0.0258
  176DOPC   H2X21493   3.926   1.032  13.888  0.8364 -0.0029 -0.1034
  176DOPC   H2Y21494   3.815   0.896  13.925 -1.2012  2.8252  1.1877
  176DOPC   C2321495   3.711   0.486  13.590  0.3196 -0.5001 -0.1575
  176DOPC   H3R21496   3.734   0.504  13.697  3.9489 -2.3501 -0.5024
  176DOPC   H3S21497   3.779   0.410  13.546 -0.6523 -0.3380 -2.0755
  176DOPC   C2421498   3.569   0.441  13.569  0.7543  0.0245 -0.2250
  176DOPC   H4R21499   3.552   0.366  13.489 -1.4681  0.7837 -0.5117
  176DOPC   H4S21500   3.515   0.531  13.535  1.0655 -0.6922 -2.8400
  176DOPC   C2521501   3.508   0.388  13.697  0.2940 -0.0400  0.3182
  176DOPC   H5R21502   3.542   0.458  13.777 -2.9133  0.1786  1.6861
  176DOPC   H5S21503   3.530   0.282  13.720 -0.1685 -0.3758 -0.7298
  176DOPC   C2621504   3.355   0.388  13.690  1.1860  0.1420 -0.2124
  176DOPC   H6R21505   3.315   0.341  13.597 -2.3524 -0.5095  1.4606
  176DOPC   H6S21506   3.331   0.497  13.687 -0.0829 -0.0804  0.8566
  176DOPC   C2721507   3.274   0.338  13.813 -0.3820  0.2138  0.2588
  176DOPC   H7R21508   3.315   0.376  13.909 -0.7180  0.0220  0.4803
  176DOPC   H7S21509   3.289   0.228  13.819 -1.0775  0.0392 -0.8372
  176DOPC   C2821510   3.125   0.361  13.818 -0.4747 -0.1421 -0.5835
  176DOPC   H8R21511   3.101   0.386  13.713 -1.4646  0.5338 -0.2095
  176DOPC   H8S21512   3.116   0.455  13.878 -1.1967 -1.3588  1.3095
  176DOPC   C2921513   3.040   0.254  13.875  0.6007 -0.5332  0.2619
  176DOPC   H9R21514   2.999   0.191  13.794  0.7310  0.2739 -0.4378
  176DOPC  C21021515   3.018   0.242  14.005  0.4859  0.1611 -0.6098
  176DOPC  H10R21516   2.955   0.161  14.042  0.3069  0.2740 -0.6698
  176DOPC  C21121517   3.072   0.322  14.115  0.9270  0.6400  0.0866
  176DOPC  H11R21518   3.003   0.403  14.147 -2.4870 -2.2082  0.5413
  176DOPC  H11S21519   3.157   0.382  14.076  2.3348  0.1943  2.2776
  176DOPC  C21221520   3.115   0.237  14.241 -0.5045  0.2666 -0.4322
  176DOPC  H12R21521   3.207   0.183  14.209 -1.3676 -1.3667 -0.2983
  176DOPC  H12S21522   3.045   0.157  14.275  1.5523 -0.6827  1.7914
  176DOPC  C21321523   3.148   0.323  14.367  0.0473  1.5452 -0.3585
  176DOPC  H13R21524   3.049   0.369  14.387 -0.3629  0.6343 -0.2401
  176DOPC  H13S21525   3.215   0.401  14.326  0.7967  0.2206 -1.7438
  176DOPC  C21421526   3.191   0.248  14.490  0.2955  0.0319  0.0764
  176DOPC  H14R21527   3.288   0.199  14.472 -0.2100 -0.8693 -0.2166
  176DOPC  H14S21528   3.118   0.166  14.509  1.4112 -1.3929 -1.5477
  176DOPC  C21521529   3.202   0.340  14.610 -0.6142  0.1666  0.2034
  176DOPC  H15R21530   3.101   0.385  14.620 -0.5160  0.8294 -1.3844
  176DOPC  H15S21531   3.276   0.420  14.587 -1.2264  0.3680 -1.1833
  176DOPC  C21621532   3.246   0.271  14.733  0.2545 -0.6754 -0.5269
  176DOPC  H16R21533   3.342   0.218  14.715  1.7600  2.2202 -1.6682
  176DOPC  H16S21534   3.165   0.203  14.765 -1.1470  1.7763  1.5585
  176DOPC  C21721535   3.282   0.366  14.847  0.0961  0.1134 -0.0517
  176DOPC  H17R21536   3.362   0.432  14.806 -0.1424 -0.9189 -2.3564
  176DOPC  H17S21537   3.325   0.312  14.933 -0.4446  0.5890  0.5251
  176DOPC  C21821538   3.174   0.458  14.901  0.7061 -0.0223  0.8129
  176DOPC  H18R21539   3.093   0.395  14.942 -1.8490  1.6765 -1.3252
  176DOPC  H18S21540   3.136   0.525  14.821 -2.0265 -3.6318 -1.2407
  176DOPC  H18T21541   3.205   0.520  14.988 -0.5439  1.3588  0.3083
  176DOPC   C3321542   3.999   0.901  14.055 -0.2896 -0.1615  0.0665
  176DOPC   H3X21543   3.970   0.990  14.115  1.9157  0.4657  0.2824
  176DOPC   H3Y21544   4.108   0.902  14.037 -0.1960  1.8188  0.5288
  176DOPC   C3421545   3.971   0.767  14.123  0.5607  0.0106 -0.3278
  176DOPC   H4X21546   3.997   0.681  14.058 -2.3434 -1.7073  0.6142
  176DOPC   H4Y21547   3.864   0.745  14.143  0.6215  0.7700  0.9600
  176DOPC   C3521548   4.039   0.762  14.258  0.8550  0.8693 -0.0211
  176DOPC   H5X21549   4.020   0.857  14.312 -1.7756 -0.3505  1.4400
  176DOPC   H5Y21550   4.147   0.754  14.234  0.7727 -1.9171  0.1510
  176DOPC   C3621551   3.992   0.641  14.336 -0.2072  0.4142 -0.4173
  176DOPC   H6X21552   4.046   0.635  14.433 -1.6483  2.0222  0.5346
  176DOPC   H6Y21553   3.885   0.646  14.367  0.1312 -2.1163  1.5608
  176DOPC   C3721554   4.025   0.505  14.275 -0.6308  0.3750  0.0117
  176DOPC   H7X21555   3.972   0.496  14.178  0.5891 -3.0601 -0.4651
  176DOPC   H7Y21556   4.135   0.513  14.261  0.0750 -0.8036  3.7059
  176DOPC   C3821557   4.005   0.380  14.364  0.1891 -0.6514  0.1343
  176DOPC   H8X21558   3.895   0.374  14.377  0.0637  1.4669  0.2925
  176DOPC   H8Y21559   4.049   0.397  14.464 -0.5362 -0.0995  0.3672
  176DOPC   C3921560   4.056   0.256  14.299  0.4685  0.2140 -0.3387
  176DOPC   H9X21561   4.019   0.248  14.195 -2.1553 -0.2753  0.5455
  176DOPC  C31021562   4.142   0.170  14.349  0.1108  0.6506  0.2208
  176DOPC  H10X21563   4.175   0.087  14.285  2.4637 -0.0535  2.1920
  176DOPC  C31121564   4.211   0.163  14.480 -0.0996 -0.4889  0.2296
  176DOPC  H11X21565   4.233   0.056  14.497 -0.9938 -1.1324 -2.1931
  176DOPC  H11Y21566   4.136   0.195  14.555 -0.8534 -0.6879 -0.4205
  176DOPC  C31221567   4.337   0.243  14.476  0.4069  0.7683  0.1244
  176DOPC  H12X21568   4.320   0.351  14.456 -1.7595  0.4709  0.1169
  176DOPC  H12Y21569   4.397   0.212  14.387  2.7976  2.5082  1.0305
  176DOPC  C31321570   4.414   0.224  14.605  0.1231  0.1751  0.1193
  176DOPC  H13X21571   4.351   0.266  14.686  1.1430 -1.9663  2.1367
  176DOPC  H13Y21572   4.434   0.117  14.628 -0.2629 -0.0620 -0.5778
  176DOPC  C31421573   4.544   0.312  14.603 -1.0072  0.1558 -0.6231
  176DOPC  H14X21574   4.607   0.282  14.689 -1.4282  2.1139  0.4443
  176DOPC  H14Y21575   4.606   0.291  14.513  0.6701  1.1364  0.2432
  176DOPC  C31521576   4.522   0.464  14.626 -0.0983 -0.7148 -0.4047
  176DOPC  H15X21577   4.482   0.475  14.729  1.6544  1.2924  0.1340
  176DOPC  H15Y21578   4.448   0.494  14.549  0.4341 -1.6809 -1.3340
  176DOPC  C31621579   4.653   0.543  14.608  1.0000 -0.6878  0.1594
  176DOPC  H16X21580   4.653   0.625  14.683 -0.1852 -0.8982  0.4088
  176DOPC  H16Y21581   4.737   0.473  14.627  0.5174 -0.8807  1.7366
  176DOPC  C31721582   4.676   0.595  14.467 -0.2377  0.9030 -0.0519
  176DOPC  H17X21583   4.669   0.522  14.384  0.0010  0.6271  0.1668
  176DOPC  H17Y21584   4.593   0.665  14.444  0.7764  2.0581 -0.3174
  176DOPC  C31821585   4.800   0.678  14.447  0.2560 -0.4816 -0.4533
  176DOPC  H18X21586   4.880   0.638  14.514 -0.5530 -2.2341 -0.4921
  176DOPC  H18Y21587   4.827   0.676  14.339 -0.5403  0.7962 -0.6978
  176DOPC  H18Z21588   4.780   0.786  14.468 -0.0545 -0.3642 -1.3091
  177DOPC     N21589   5.383   5.199  12.832  0.6212  0.5909 -0.9106
  177DOPC   C1221590   5.443   5.221  12.968  0.1425 -0.3581 -0.8842
  177DOPC  H12A21591   5.406   5.149  13.040 -3.4672  2.2507  0.1649
  177DOPC  H12B21592   5.400   5.312  13.006 -2.8829 -2.1979  0.4893
  177DOPC   C1321593   5.250   5.264  12.827  0.6939 -0.1499 -0.0970
  177DOPC  H13A21594   5.268   5.369  12.847 -0.6124  0.0117  0.3510
  177DOPC  H13B21595   5.197   5.267  12.732 -0.4465 -1.3523  0.4578
  177DOPC  H13C21596   5.187   5.220  12.903  1.5346  0.2230  0.8398
  177DOPC   C1421597   5.370   5.053  12.811 -0.9886  0.3165  0.4871
  177DOPC  H14A21598   5.318   5.047  12.717 -0.7850  0.7557  0.3457
  177DOPC  H14B21599   5.473   5.019  12.815 -0.7734  1.0111  1.0622
  177DOPC  H14C21600   5.321   4.998  12.890  0.8720 -2.6126 -0.2182
  177DOPC   C1521601   5.479   5.260  12.732 -0.1522 -0.9227 -0.7399
  177DOPC  H15A21602   5.498   5.362  12.761 -0.8547 -0.5275 -1.6187
  177DOPC  H15B21603   5.440   5.244  12.633  2.7602 -0.7285 -2.0010
  177DOPC  H15C21604   5.572   5.206  12.743  0.1957  0.1912  3.3495
  177DOPC   C1121605   5.604   5.230  12.996 -0.3663  0.6572 -0.2826
  177DOPC  H11A21606   5.644   5.316  12.938 -1.3888  0.2427 -1.6579
  177DOPC  H11B21607   5.624   5.242  13.104  0.0309  0.1326 -0.2921
  177DOPC     P21608   5.674   4.984  13.046  0.1539 -0.1910 -0.1153
  177DOPC   O1321609   5.808   4.926  13.037 -0.4048 -0.0897 -0.1056
  177DOPC   O1421610   5.567   4.889  13.015 -0.2040  0.1681 -0.3446
  177DOPC   O1221611   5.667   5.110  12.950  0.0507  0.1470  0.1850
  177DOPC   O1121612   5.647   5.039  13.198  0.3483 -0.1261 -0.5415
  177DOPC    C121613   5.753   5.110  13.266 -0.0396 -0.3101 -0.3828
  177DOPC    HA21614   5.707   5.194  13.321  0.2109  0.6410 -1.5757
  177DOPC    HB21615   5.829   5.150  13.195  0.1697 -1.5610 -0.8854
  177DOPC    C221616   5.820   5.015  13.365  0.1813 -0.4806 -0.1243
  177DOPC    HS21617   5.862   4.931  13.307  1.1030 -0.2128  0.1281
  177DOPC   O2121618   5.727   4.979  13.464 -0.5035  0.4233 -0.0460
  177DOPC   C2121619   5.741   4.861  13.527  0.4683  0.3451  0.3530
  177DOPC   O2221620   5.822   4.774  13.494  0.2356  0.0554 -0.5047
  177DOPC   C2221621   5.638   4.844  13.636 -0.5262  0.1028 -0.2248
  177DOPC   H2R21622   5.540   4.816  13.591  0.9962 -0.2042 -3.5948
  177DOPC   H2S21623   5.635   4.946  13.681  2.8249  1.5606 -2.8871
  177DOPC    C321624   5.943   5.079  13.430 -0.0425  0.3731 -0.0185
  177DOPC    HX21625   6.036   5.089  13.370  0.7158 -1.9393  0.6622
  177DOPC    HY21626   5.973   5.006  13.509  0.2123 -0.8434 -1.2124
  177DOPC   O3121627   5.913   5.193  13.500 -0.3720 -0.3542 -0.1728
  177DOPC   C3121628   5.916   5.308  13.430  0.2259 -0.0964  0.0688
  177DOPC   O3221629   5.931   5.322  13.310 -1.0338 -0.3783  0.2242
  177DOPC   C3221630   5.899   5.419  13.529 -0.0041  0.5603  0.7133
  177DOPC   H2X21631   5.790   5.437  13.545 -0.0485  0.3146  0.6949
  177DOPC   H2Y21632   5.933   5.388  13.630 -2.1073  2.2070  2.0143
  177DOPC   C2321633   5.679   4.739  13.749  0.0664 -0.5725  0.2645
  177DOPC   H3R21634   5.782   4.764  13.784  0.1976  1.6068 -1.4434
  177DOPC   H3S21635   5.703   4.645  13.695  0.5591  0.5258 -1.5112
  177DOPC   C2421636   5.580   4.739  13.869  0.8133  0.1363  0.1791
  177DOPC   H4R21637   5.515   4.650  13.860  1.3285 -0.0472 -2.1996
  177DOPC   H4S21638   5.518   4.832  13.864 -0.3911 -0.3583  3.2291
  177DOPC   C2521639   5.642   4.729  14.003 -0.9130  0.0894 -0.3182
  177DOPC   H5R21640   5.691   4.826  14.028  0.7098 -1.2279  2.0641
  177DOPC   H5S21641   5.723   4.652  14.001 -0.6064  0.4234 -1.6085
  177DOPC   C2621642   5.549   4.696  14.116  0.7557  1.2007 -0.7010
  177DOPC   H6R21643   5.497   4.602  14.087  0.2365  0.1596  3.0823
  177DOPC   H6S21644   5.461   4.763  14.124 -1.3355 -1.4726  0.3790
  177DOPC   C2721645   5.626   4.674  14.248 -0.2399 -0.0575  0.4893
  177DOPC   H7R21646   5.673   4.772  14.273  1.2026 -0.4033 -0.7681
  177DOPC   H7S21647   5.701   4.594  14.235  0.1320  0.5466 -1.3719
  177DOPC   C2821648   5.539   4.629  14.371 -0.2423 -0.2991  0.3030
  177DOPC   H8R21649   5.620   4.613  14.445  1.9381  0.6101 -1.7922
  177DOPC   H8S21650   5.483   4.536  14.346 -1.0743 -0.6227  2.9417
  177DOPC   C2921651   5.436   4.729  14.406 -0.2138 -0.3337 -0.5522
  177DOPC   H9R21652   5.390   4.784  14.323  0.4591  3.4444  1.3643
  177DOPC  C21021653   5.417   4.775  14.532  0.2342  0.2532  0.0334
  177DOPC  H10R21654   5.342   4.855  14.545  2.2243  1.8710  2.2666
  177DOPC  C21121655   5.497   4.732  14.659 -0.5785 -0.2405 -0.0027
  177DOPC  H11R21656   5.470   4.787  14.752 -0.8089 -1.4973  0.7012
  177DOPC  H11S21657   5.604   4.751  14.635 -0.9816  2.4346  0.0836
  177DOPC  C21221658   5.504   4.581  14.699 -0.1857  0.0551  0.7158
  177DOPC  H12R21659   5.529   4.522  14.608 -0.8979  0.5229  0.2100
  177DOPC  H12S21660   5.401   4.552  14.731 -0.1930 -2.3693 -1.1859
  177DOPC  C21321661   5.614   4.556  14.800  0.0988  0.3200 -0.3514
  177DOPC  H13R21662   5.601   4.622  14.888  0.2829  0.4766 -0.4398
  177DOPC  H13S21663   5.710   4.595  14.758  0.9696 -1.7168 -0.3379
  177DOPC  C21421664   5.633   4.409  14.845  0.0078  1.0998  0.6363
  177DOPC  H14R21665   5.677   4.355  14.758 -0.5862  1.5048  0.0700
  177DOPC  H14S21666   5.541   4.351  14.867  0.5947  0.3270  1.0681
  177DOPC  C21521667   5.732   4.400  14.956  0.2630  0.2809  0.5319
  177DOPC  H15R21668   5.688   4.446  15.047  0.4582 -0.2592  0.9059
  177DOPC  H15S21669   5.828   4.452  14.936  1.9605 -2.6126  0.6688
  177DOPC  C21621670   5.772   4.255  14.983 -0.0701  0.2251  0.0221
  177DOPC  H16R21671   5.803   4.203  14.890  0.4553 -0.8478  0.7773
  177DOPC  H16S21672   5.686   4.200  15.026  0.4337 -0.0524  0.6966
  177DOPC  C21721673   5.894   4.223  15.075  0.6390  0.0106 -0.4750
  177DOPC  H17R21674   5.883   4.262  15.179 -1.0352 -0.3046 -0.5157
  177DOPC  H17S21675   5.985   4.270  15.033  1.4880 -0.8518  0.3356
  177DOPC  C21821676   5.918   4.069  15.082  0.4333 -0.7267  0.7203
  177DOPC  H18R21677   5.964   4.044  14.985 -0.3477  0.2815  0.0685
  177DOPC  H18S21678   5.820   4.017  15.089 -0.1973  0.0780 -1.4085
  177DOPC  H18T21679   5.992   4.041  15.160  2.4557  0.5674 -0.6436
  177DOPC   C3321680   5.973   5.549  13.482 -0.0918 -0.5100 -0.0684
  177DOPC   H3X21681   5.952   5.554  13.373  1.2321  0.0169 -0.3169
  177DOPC   H3Y21682   6.083   5.546  13.495  0.2916 -0.1921 -2.7029
  177DOPC   C3421683   5.904   5.671  13.540 -0.3689 -0.7357 -0.0022
  177DOPC   H4X21684   5.801   5.646  13.574 -1.1358  1.3371 -0.6678
  177DOPC   H4Y21685   5.886   5.756  13.470 -2.1167  1.0884  2.4975
  177DOPC   C3521686   5.980   5.720  13.664  0.1231  0.2217 -0.0897
  177DOPC   H5X21687   6.068   5.767  13.614  0.0657 -0.1026 -0.5047
  177DOPC   H5Y21688   6.012   5.634  13.726  1.0996  0.6865  0.0770
  177DOPC   C3621689   5.903   5.822  13.747 -0.5789 -0.1503 -0.3094
  177DOPC   H6X21690   5.962   5.880  13.821  2.6400 -1.3198 -1.7708
  177DOPC   H6Y21691   5.865   5.891  13.668  1.4222  0.9948 -0.3466
  177DOPC   C3721692   5.780   5.762  13.821  0.0987  0.3949  0.1950
  177DOPC   H7X21693   5.693   5.752  13.753 -0.8224  1.5449  1.1610
  177DOPC   H7Y21694   5.808   5.656  13.842 -0.4407 -0.0490 -1.2456
  177DOPC   C3821695   5.734   5.841  13.955 -0.9298  0.1419  0.9907
  177DOPC   H8X21696   5.623   5.849  13.955 -0.9452  0.3086 -1.0236
  177DOPC   H8Y21697   5.765   5.945  13.937  0.4167  0.2078  3.3060
  177DOPC   C3921698   5.800   5.796  14.083 -0.4031 -0.6111  0.0027
  177DOPC   H9X21699   5.908   5.819  14.085 -0.7204  1.0367 -0.7452
  177DOPC  C31021700   5.742   5.741  14.191  0.0199 -0.5290 -0.0524
  177DOPC  H10X21701   5.792   5.719  14.286 -1.1859 -0.6905  0.5736
  177DOPC  C31121702   5.592   5.711  14.193 -0.5495 -0.0463  0.1670
  177DOPC  H11X21703   5.577   5.638  14.110  1.9225  0.9344 -1.2384
  177DOPC  H11Y21704   5.532   5.799  14.162  0.4652  0.5882 -0.0168
  177DOPC  C31221705   5.543   5.652  14.324 -0.6664  1.1311  0.5811
  177DOPC  H12X21706   5.555   5.726  14.405 -0.4142  1.7311  0.0080
  177DOPC  H12Y21707   5.613   5.570  14.354 -1.3442  0.4358  0.2988
  177DOPC  C31321708   5.400   5.606  14.327  0.2839 -1.3019  0.7839
  177DOPC  H13X21709   5.380   5.555  14.230 -0.7295 -1.2982  0.9812
  177DOPC  H13Y21710   5.377   5.533  14.407 -1.3224 -0.5687  1.0293
  177DOPC  C31421711   5.303   5.725  14.346 -0.6387 -0.5689  0.3203
  177DOPC  H14X21712   5.338   5.778  14.438  2.0206  0.3961 -1.1287
  177DOPC  H14Y21713   5.309   5.803  14.266 -1.8324 -1.6131 -0.8234
  177DOPC  C31521714   5.153   5.684  14.368 -0.0416  0.4342  0.0067
  177DOPC  H15X21715   5.142   5.585  14.318  0.2099  1.3105 -1.8863
  177DOPC  H15Y21716   5.077   5.745  14.313 -1.7449 -0.0920  1.6824
  177DOPC  C31621717   5.109   5.674  14.517 -0.5777  0.5240  0.3931
  177DOPC  H16X21718   5.185   5.613  14.570  0.7341  0.3958 -1.5311
  177DOPC  H16Y21719   5.127   5.772  14.566 -1.6842  0.5772  0.7151
  177DOPC  C31721720   4.967   5.626  14.548 -0.5540 -0.5615 -0.4390
  177DOPC  H17X21721   4.960   5.515  14.536 -3.6188 -0.9180  2.7169
  177DOPC  H17Y21722   4.938   5.638  14.655  0.1686 -0.6957 -0.2258
  177DOPC  C31821723   4.857   5.696  14.464 -0.1113 -0.2482  0.4023
  177DOPC  H18X21724   4.880   5.694  14.355  3.1427  0.8354  0.9605
  177DOPC  H18Y21725   4.753   5.665  14.488  0.1375 -0.9735  0.5537
  177DOPC  H18Z21726   4.855   5.805  14.485  0.7576 -0.3132  0.8406
  178DOPC     N21727   2.755   5.833  12.538  0.1056 -1.1363  0.0684
  178DOPC   C1221728   2.849   5.919  12.628 -0.0087  0.2818  0.1220
  178DOPC  H12A21729   2.788   6.001  12.663 -2.9970 -1.4496 -0.6413
  178DOPC  H12B21730   2.929   5.967  12.573  0.1426 -0.5224 -0.3836
  178DOPC   C1321731   2.834   5.720  12.482 -0.0445  0.6870  0.0548
  178DOPC  H13A21732   2.919   5.761  12.430 -0.7162  1.7725 -0.2205
  178DOPC  H13B21733   2.868   5.663  12.567 -2.3558 -3.7710 -1.6429
  178DOPC  H13C21734   2.772   5.657  12.419  2.4376 -1.1138 -0.7269
  178DOPC   C1421735   2.705   5.911  12.427  0.0129  0.5484  0.1667
  178DOPC  H14A21736   2.784   5.910  12.353  0.0340 -3.3755  0.0649
  178DOPC  H14B21737   2.629   5.858  12.371  0.1263  2.5736 -2.1161
  178DOPC  H14C21738   2.683   6.015  12.446 -1.4385  0.9878 -3.1547
  178DOPC   C1521739   2.645   5.780  12.623  0.1631 -0.4785 -0.2529
  178DOPC  H15A21740   2.681   5.725  12.709 -0.3564 -1.7755 -0.8389
  178DOPC  H15B21741   2.588   5.705  12.570  0.1498  0.4407 -1.5791
  178DOPC  H15C21742   2.580   5.863  12.645  0.4389  0.2585 -2.0827
  178DOPC   C1121743   2.902   5.859  12.759 -0.3354  0.1239 -0.4657
  178DOPC  H11A21744   2.958   5.765  12.741  0.2706  0.3110  0.3652
  178DOPC  H11B21745   2.975   5.932  12.802 -0.9008 -1.0351  2.7536
  178DOPC     P21746   2.733   5.954  12.939 -0.2084 -0.0962  0.4206
  178DOPC   O1321747   2.630   6.031  12.862 -0.1977 -0.4381  0.4321
  178DOPC   O1421748   2.853   6.026  12.998  0.4823  0.4306  0.1405
  178DOPC   O1221749   2.794   5.832  12.853 -0.5974 -0.5702  0.3761
  178DOPC   O1121750   2.656   5.877  13.051 -0.5531  0.3121  0.0748
  178DOPC    C121751   2.725   5.775  13.133  0.4736  0.1525  0.0984
  178DOPC    HA21752   2.791   5.719  13.063 -0.7084  0.6223 -1.4495
  178DOPC    HB21753   2.653   5.698  13.168  1.4432 -1.4015 -1.1685
  178DOPC    C221754   2.796   5.841  13.262 -0.1557 -1.3273  1.4596
  178DOPC    HS21755   2.881   5.897  13.218  0.2721 -1.9919  1.4187
  178DOPC   O2121756   2.834   5.744  13.357 -0.3298 -0.1617 -0.1011
  178DOPC   C2121757   2.931   5.666  13.317  0.0621  0.1775 -0.8234
  178DOPC   O2221758   2.995   5.689  13.220 -0.6451 -0.8683  0.5012
  178DOPC   C2221759   2.953   5.548  13.408  0.5710 -1.0096 -1.2383
  178DOPC   H2R21760   2.865   5.480  13.405 -1.5676  1.4633  0.7527
  178DOPC   H2S21761   2.948   5.572  13.516 -0.6860 -2.9620 -0.8007
  178DOPC    C321762   2.709   5.948  13.327  0.2899  0.7151 -0.0579
  178DOPC    HX21763   2.603   5.915  13.332  0.1886  0.1088 -3.8694
  178DOPC    HY21764   2.710   6.040  13.265  1.4926  1.7430  1.3982
  178DOPC   O3121765   2.755   5.984  13.462 -0.3273 -0.1386 -0.3419
  178DOPC   C3121766   2.676   6.074  13.521 -0.1775  0.8748  0.3555
  178DOPC   O3221767   2.574   6.118  13.470 -0.5079  0.0945  0.1845
  178DOPC   C3221768   2.727   6.102  13.667  0.2119  0.2683 -0.4216
  178DOPC   H2X21769   2.766   6.004  13.701 -0.8260 -0.5026 -1.3669
  178DOPC   H2Y21770   2.814   6.171  13.662 -0.6803  1.7041  1.8743
  178DOPC   C2321771   3.076   5.466  13.365 -0.1618  0.0575 -0.9838
  178DOPC   H3R21772   3.152   5.540  13.333  0.3753  0.2594  0.6450
  178DOPC   H3S21773   3.052   5.407  13.274 -1.6399  0.3607 -0.8295
  178DOPC   C2421774   3.141   5.390  13.482 -0.8196 -0.3175 -0.1034
  178DOPC   H4R21775   3.071   5.312  13.519 -0.7103 -1.5376 -2.3267
  178DOPC   H4S21776   3.145   5.458  13.570  0.3475  0.6055 -0.8449
  178DOPC   C2521777   3.273   5.317  13.449 -0.0385 -0.1151  0.0417
  178DOPC   H5R21778   3.360   5.386  13.439  0.2773  0.1681  3.5411
  178DOPC   H5S21779   3.261   5.269  13.349 -0.2542 -1.8917  0.8811
  178DOPC   C2621780   3.310   5.191  13.539  0.8819 -0.5094  0.2082
  178DOPC   H6R21781   3.227   5.119  13.526  1.1817 -0.3268 -3.8334
  178DOPC   H6S21782   3.329   5.230  13.642  1.6864  0.8052 -0.4068
  178DOPC   C2721783   3.446   5.129  13.510  0.4438 -0.6232 -0.0292
  178DOPC   H7R21784   3.527   5.203  13.490  0.8685 -1.0817 -0.0101
  178DOPC   H7S21785   3.441   5.083  13.409  1.0635 -0.8202  0.0241
  178DOPC   C2821786   3.495   5.021  13.607 -0.5086  0.8201 -0.4368
  178DOPC   H8R21787   3.525   5.080  13.696 -0.0800 -0.3156  0.1900
  178DOPC   H8S21788   3.575   4.964  13.555 -0.3650  2.7204 -2.5185
  178DOPC   C2921789   3.400   4.921  13.662  0.1859  0.1808 -0.3154
  178DOPC   H9R21790   3.323   4.961  13.730  1.0077 -1.8156  1.9323
  178DOPC  C21021791   3.406   4.789  13.662  0.2673 -0.2374 -0.3718
  178DOPC  H10R21792   3.333   4.733  13.723  0.8554 -0.2883  0.2901
  178DOPC  C21121793   3.516   4.699  13.608 -0.7733 -0.4556  0.5636
  178DOPC  H11R21794   3.583   4.675  13.694  0.1406 -1.2418 -0.3418
  178DOPC  H11S21795   3.573   4.749  13.527 -1.1505 -0.6633  0.1647
  178DOPC  C21221796   3.484   4.566  13.549  0.1440  0.2031 -0.6784
  178DOPC  H12R21797   3.576   4.515  13.514  0.0422 -0.7727  0.4264
  178DOPC  H12S21798   3.418   4.570  13.460 -0.4996  0.2187 -0.2034
  178DOPC  C21321799   3.429   4.463  13.654 -0.2083 -0.2266 -0.1845
  178DOPC  H13R21800   3.334   4.500  13.698 -0.5004 -0.1203 -0.8866
  178DOPC  H13S21801   3.506   4.464  13.734  0.6246  1.3296 -0.9525
  178DOPC  C21421802   3.407   4.326  13.587 -0.0717 -0.0567 -0.5941
  178DOPC  H14R21803   3.505   4.280  13.562  0.1198 -0.3064  0.5651
  178DOPC  H14S21804   3.351   4.343  13.493  2.0796 -0.1823 -1.9529
  178DOPC  C21521805   3.349   4.224  13.689  0.1819  0.2239  0.2553
  178DOPC  H15R21806   3.267   4.252  13.758  1.9319  1.5093  1.9051
  178DOPC  H15S21807   3.438   4.202  13.751  0.4896 -2.0884 -0.8945
  178DOPC  C21621808   3.333   4.079  13.645 -0.8387 -0.2835 -0.2582
  178DOPC  H16R21809   3.310   4.008  13.728 -1.4485  1.2533  0.9286
  178DOPC  H16S21810   3.434   4.058  13.604  0.7303  0.9727  2.6536
  178DOPC  C21721811   3.222   4.050  13.548 -0.3737  0.3482  0.2207
  178DOPC  H17R21812   3.252   4.089  13.449 -0.1524  1.7187  0.7933
  178DOPC  H17S21813   3.127   4.101  13.577 -0.3896  0.3903  0.0929
  178DOPC  C21821814   3.206   3.895  13.537 -0.7498 -0.6985  0.8101
  178DOPC  H18R21815   3.121   3.876  13.469  0.2884  1.7502 -1.3562
  178DOPC  H18S21816   3.174   3.851  13.633 -0.1794 -1.5872  0.6090
  178DOPC  H18T21817   3.301   3.853  13.497 -0.5534  0.6010 -0.1799
  178DOPC   C3321818   2.611   6.148  13.762  0.8915  0.6361  0.1664
  178DOPC   H3X21819   2.551   6.060  13.792  0.5726  1.1274  0.9962
  178DOPC   H3Y21820   2.545   6.215  13.703  0.8701  0.3361 -0.1511
  178DOPC   C3421821   2.662   6.222  13.884 -0.0652  0.2911  0.3630
  178DOPC   H4X21822   2.732   6.301  13.851 -0.3190  0.2224 -0.3439
  178DOPC   H4Y21823   2.730   6.150  13.935  0.1410  0.1863 -0.0567
  178DOPC   C3521824   2.556   6.268  13.992 -0.2134  0.2445 -0.5333
  178DOPC   H5X21825   2.467   6.310  13.940 -0.2842 -0.3407 -0.9028
  178DOPC   H5Y21826   2.602   6.344  14.058 -1.1068  0.8955 -0.6493
  178DOPC   C3621827   2.508   6.156  14.082 -0.2090 -0.2191 -0.6787
  178DOPC   H6X21828   2.462   6.076  14.020 -1.8248 -0.5604  0.8864
  178DOPC   H6Y21829   2.592   6.116  14.143 -1.7769 -0.5033  1.4103
  178DOPC   C3721830   2.406   6.190  14.193  0.3450  0.2060 -0.2841
  178DOPC   H7X21831   2.437   6.278  14.255  1.9970  0.7631 -1.8214
  178DOPC   H7Y21832   2.319   6.235  14.141  0.9639 -0.2271 -1.7370
  178DOPC   C3821833   2.350   6.067  14.271  0.0703 -0.4426 -0.5111
  178DOPC   H8X21834   2.297   6.003  14.197 -0.7853  0.9403 -1.1491
  178DOPC   H8Y21835   2.267   6.105  14.334 -0.6245  0.0338 -1.6617
  178DOPC   C3921836   2.444   5.983  14.353 -0.8736  0.0169  0.7897
  178DOPC   H9X21837   2.548   6.018  14.351 -1.2871  1.3079  0.8977
  178DOPC  C31021838   2.414   5.866  14.413  0.2181 -0.1707 -0.1127
  178DOPC  H10X21839   2.484   5.808  14.475 -0.0889  0.0895  0.4859
  178DOPC  C31121840   2.271   5.807  14.417  0.1957  0.1716 -0.2975
  178DOPC  H11X21841   2.207   5.836  14.331 -1.5180  0.0084  0.8706
  178DOPC  H11Y21842   2.209   5.860  14.493 -1.4374 -0.3204 -1.2392
  178DOPC  C31221843   2.269   5.658  14.447 -0.4165  0.5282  0.6469
  178DOPC  H12X21844   2.167   5.623  14.474  0.0009 -1.0532  0.3391
  178DOPC  H12Y21845   2.327   5.627  14.537  0.5220  0.5758  0.0681
  178DOPC  C31321846   2.335   5.567  14.332  0.1917  0.3877  0.5607
  178DOPC  H13X21847   2.440   5.595  14.312  0.0518  1.5455  1.3464
  178DOPC  H13Y21848   2.325   5.459  14.355 -0.1410  0.1005 -0.8255
  178DOPC  C31421849   2.262   5.577  14.197  0.4159  0.1486  0.7473
  178DOPC  H14X21850   2.156   5.545  14.207  0.8802 -0.9321  2.8943
  178DOPC  H14Y21851   2.263   5.684  14.170  1.0787 -0.0270  0.0535
  178DOPC  C31521852   2.319   5.488  14.086 -0.1026  0.7211  0.1081
  178DOPC  H15X21853   2.299   5.381  14.107 -1.6532  0.7009 -1.2589
  178DOPC  H15Y21854   2.430   5.498  14.085 -0.0325  1.1274  3.0468
  178DOPC  C31621855   2.242   5.502  13.957 -0.2668 -0.0987 -0.1047
  178DOPC  H16X21856   2.133   5.495  13.977 -0.1388 -0.4164  0.5026
  178DOPC  H16Y21857   2.270   5.600  13.912  0.1567 -0.2828 -0.2540
  178DOPC  C31721858   2.271   5.401  13.850 -0.1611  0.3162  0.0194
  178DOPC  H17X21859   2.378   5.412  13.821 -0.6412  0.4558 -1.8363
  178DOPC  H17Y21860   2.257   5.299  13.890  1.1271 -0.3065 -1.0310
  178DOPC  C31821861   2.182   5.421  13.731 -0.0643  0.2082  0.1057
  178DOPC  H18X21862   2.078   5.398  13.761 -0.3885 -0.2810 -1.2896
  178DOPC  H18Y21863   2.186   5.528  13.704  2.3935 -0.2632 -1.8317
  178DOPC  H18Z21864   2.218   5.351  13.652  0.2430  0.8748 -0.3599
  179DOPC     N21865   5.584   4.490  13.029  0.2267  0.0568  0.2438
  179DOPC   C1221866   5.680   4.609  13.059  0.2324  0.4763 -0.2741
  179DOPC  H12A21867   5.640   4.709  13.046  1.1085  1.0291  1.0982
  179DOPC  H12B21868   5.760   4.605  12.986  1.2799  1.7816  0.7513
  179DOPC   C1321869   5.538   4.500  12.887  0.1128 -0.6304  0.0750
  179DOPC  H13A21870   5.518   4.605  12.872  1.2099 -0.3627  0.3982
  179DOPC  H13B21871   5.599   4.461  12.807 -0.0966 -0.0172 -0.3897
  179DOPC  H13C21872   5.447   4.448  12.863  0.1666 -0.3293 -0.8231
  179DOPC   C1421873   5.457   4.496  13.118 -0.5671 -0.0444  0.0887
  179DOPC  H14A21874   5.384   4.572  13.094 -0.7638  0.7263  2.8069
  179DOPC  H14B21875   5.402   4.403  13.106  0.0877 -0.3256 -0.8080
  179DOPC  H14C21876   5.485   4.498  13.222  2.1092  0.8885 -0.5735
  179DOPC   C1521877   5.644   4.361  13.044 -0.4356  0.1998  0.1815
  179DOPC  H15A21878   5.718   4.340  12.968 -2.0654  0.1113 -1.4381
  179DOPC  H15B21879   5.574   4.279  13.045 -0.9974  0.6814  0.7062
  179DOPC  H15C21880   5.695   4.347  13.138  0.9288 -3.6843 -0.9529
  179DOPC   C1121881   5.755   4.607  13.193 -0.7360  0.3253  0.0967
  179DOPC  H11A21882   5.813   4.702  13.202 -0.9873  0.4644  0.2732
  179DOPC  H11B21883   5.686   4.593  13.278 -2.2743 -0.7674 -1.2837
  179DOPC     P21884   5.995   4.522  13.131  0.2155 -0.3348  0.1865
  179DOPC   O1321885   5.991   4.595  12.996 -0.3095 -0.2483  0.1041
  179DOPC   O1421886   6.064   4.395  13.133 -0.3020  0.0753  0.1115
  179DOPC   O1221887   5.852   4.503  13.188  0.0074 -0.4608  0.2389
  179DOPC   O1121888   6.064   4.621  13.233 -0.3360 -0.3296 -0.8300
  179DOPC    C121889   6.105   4.557  13.362 -0.2734 -0.4242 -0.3553
  179DOPC    HA21890   6.195   4.491  13.355  3.2063  3.7403  0.9826
  179DOPC    HB21891   6.023   4.497  13.407 -1.2320  0.0585 -1.3895
  179DOPC    C221892   6.152   4.660  13.473  0.2038 -0.3101  0.2682
  179DOPC    HS21893   6.090   4.751  13.460  0.0073 -0.6778 -1.5927
  179DOPC   O2121894   6.290   4.697  13.452  0.4293  0.1099  0.1045
  179DOPC   C2121895   6.317   4.812  13.492 -0.0497 -0.2886  0.4019
  179DOPC   O2221896   6.247   4.902  13.526 -0.6793 -0.2595  0.0137
  179DOPC   C2221897   6.474   4.823  13.495 -0.6752 -0.1358 -0.4251
  179DOPC   H2R21898   6.509   4.803  13.392 -0.9772  0.8572 -0.7369
  179DOPC   H2S21899   6.509   4.747  13.568  1.3921 -1.2925 -2.5148
  179DOPC    C321900   6.121   4.594  13.618 -0.0925  0.6597  0.1362
  179DOPC    HX21901   6.182   4.501  13.623  0.2782  0.7399 -1.9853
  179DOPC    HY21902   6.012   4.576  13.612  0.0722  0.0570 -3.2850
  179DOPC   O3121903   6.161   4.681  13.724 -0.5020 -0.2109  0.5414
  179DOPC   C3121904   6.089   4.677  13.837  0.4699 -0.1473 -0.1201
  179DOPC   O3221905   5.997   4.602  13.860 -0.0963 -0.0637  0.0294
  179DOPC   C3221906   6.152   4.770  13.937  0.5708 -0.6017 -0.6187
  179DOPC   H2X21907   6.254   4.726  13.951 -0.8021 -3.7096  0.6132
  179DOPC   H2Y21908   6.150   4.875  13.902 -0.3577  0.4011  2.2101
  179DOPC   C2321909   6.519   4.963  13.549  0.2640  0.3284 -0.3709
  179DOPC   H3R21910   6.450   5.036  13.501 -0.6210  0.2380  0.7408
  179DOPC   H3S21911   6.620   4.988  13.511  0.3581  2.5960  1.1786
  179DOPC   C2421912   6.507   4.955  13.702  0.0055 -0.1575 -0.2257
  179DOPC   H4R21913   6.578   4.876  13.736  0.9030  0.2205 -1.1883
  179DOPC   H4S21914   6.401   4.936  13.730 -0.7392  0.6257 -2.3336
  179DOPC   C2521915   6.566   5.086  13.771 -0.0758 -0.1191 -0.3078
  179DOPC   H5R21916   6.508   5.179  13.753  0.8919  0.4437 -0.5963
  179DOPC   H5S21917   6.665   5.105  13.724  0.9639 -0.3495  1.6806
  179DOPC   C2621918   6.583   5.076  13.921  0.2761  0.1810  1.1153
  179DOPC   H6R21919   6.636   5.167  13.955  0.1704  1.3975 -1.7240
  179DOPC   H6S21920   6.655   4.993  13.939 -2.8996 -2.9268  0.6868
  179DOPC   C2721921   6.458   5.049  14.007 -0.4291  0.0094 -0.2394
  179DOPC   H7R21922   6.406   4.964  13.957 -0.2862 -1.3059  1.7137
  179DOPC   H7S21923   6.384   5.132  14.013  0.9867  1.2421  1.2494
  179DOPC   C2821924   6.498   5.004  14.142 -0.4890 -0.2930 -0.1714
  179DOPC   H8R21925   6.560   4.913  14.130  1.5886  0.9885  0.2854
  179DOPC   H8S21926   6.410   4.968  14.199 -1.9808  1.0243 -1.5196
  179DOPC   C2921927   6.581   5.116  14.209 -0.6970  0.9427  0.2743
  179DOPC   H9R21928   6.689   5.106  14.196 -0.7671  0.8450 -0.2385
  179DOPC  C21021929   6.540   5.208  14.297  0.1361 -0.4237  0.7875
  179DOPC  H10R21930   6.613   5.289  14.314  1.8362 -0.9958 -2.9625
  179DOPC  C21121931   6.398   5.235  14.338 -0.2873  0.0899 -0.2463
  179DOPC  H11R21932   6.323   5.179  14.280 -0.1066 -1.2788  0.7916
  179DOPC  H11S21933   6.361   5.339  14.326 -1.1731  0.0407  1.6691
  179DOPC  C21221934   6.375   5.175  14.483 -0.5140 -0.0868 -0.1506
  179DOPC  H12R21935   6.274   5.218  14.504  0.0468  1.4992 -0.5296
  179DOPC  H12S21936   6.449   5.221  14.551 -1.5690 -0.9123  1.6279
  179DOPC  C21321937   6.373   5.018  14.491  0.6841  0.0198  0.0983
  179DOPC  H13R21938   6.465   4.979  14.443 -0.1754 -0.1424 -1.4974
  179DOPC  H13S21939   6.287   4.982  14.430  1.3597  0.0143 -0.8772
  179DOPC  C21421940   6.356   4.975  14.636 -0.3267  0.0255 -0.1378
  179DOPC  H14R21941   6.247   4.985  14.652 -0.5314 -1.3381 -0.5878
  179DOPC  H14S21942   6.408   5.051  14.699  0.9125 -0.0640 -0.9907
  179DOPC  C21521943   6.394   4.832  14.662  0.5783  0.1360  0.4042
  179DOPC  H15R21944   6.502   4.834  14.637  1.1922  0.6801  2.8228
  179DOPC  H15S21945   6.338   4.772  14.587 -0.4149 -0.4369  1.5817
  179DOPC  C21621946   6.369   4.800  14.808 -0.3781 -0.0479  1.0654
  179DOPC  H16R21947   6.421   4.881  14.862  4.1419 -1.0612 -1.2692
  179DOPC  H16S21948   6.425   4.705  14.818  0.2326  0.1454 -0.3246
  179DOPC  C21721949   6.219   4.778  14.849  0.3670 -0.9081  0.6252
  179DOPC  H17R21950   6.161   4.856  14.796  2.6365  0.6419  0.2637
  179DOPC  H17S21951   6.228   4.803  14.957 -2.2220  4.0666  0.0054
  179DOPC  C21821952   6.158   4.638  14.835  0.5037  0.3658  0.2730
  179DOPC  H18R21953   6.210   4.564  14.899  0.7534 -1.0640 -1.4989
  179DOPC  H18S21954   6.153   4.590  14.735 -4.5099  0.2448  0.3242
  179DOPC  H18T21955   6.053   4.654  14.869  0.3920  1.8569 -0.6729
  179DOPC   C3321956   6.073   4.754  14.067  0.4397  0.4167 -0.0873
  179DOPC   H3X21957   6.087   4.648  14.099 -0.4879  0.7212  1.4214
  179DOPC   H3Y21958   5.966   4.767  14.039  0.3195  1.0604  0.6528
  179DOPC   C3421959   6.106   4.860  14.170 -0.0739 -0.6822 -0.1339
  179DOPC   H4X21960   6.102   4.964  14.130  2.0856 -0.4330  0.1690
  179DOPC   H4Y21961   6.208   4.847  14.211  1.3508  1.4478 -2.6569
  179DOPC   C3521962   5.998   4.846  14.289 -0.3252 -0.5799  0.6735
  179DOPC   H5X21963   6.024   4.760  14.355 -2.6558 -2.0021 -0.1562
  179DOPC   H5Y21964   5.906   4.816  14.235 -0.5082 -3.4213  2.3355
  179DOPC   C3621965   5.961   4.982  14.353 -0.5588 -0.4847 -0.5779
  179DOPC   H6X21966   6.058   5.017  14.394 -1.1420  0.9877 -0.3992
  179DOPC   H6Y21967   5.914   5.045  14.274 -0.2417 -2.3691 -2.3653
  179DOPC   C3721968   5.863   4.978  14.478  0.2191  0.0352  0.8045
  179DOPC   H7X21969   5.772   4.922  14.447 -0.7048  0.8391  1.9783
  179DOPC   H7Y21970   5.905   4.918  14.562 -1.4416 -0.6839  1.1697
  179DOPC   C3821971   5.832   5.121  14.533  0.4088  0.1270  0.3977
  179DOPC   H8X21972   5.779   5.171  14.449  1.1037 -0.9099 -0.6948
  179DOPC   H8Y21973   5.930   5.173  14.536  0.9168 -0.6860 -0.9951
  179DOPC   C3921974   5.765   5.103  14.663 -0.6354 -0.3810 -0.4348
  179DOPC   H9X21975   5.833   5.065  14.741 -0.7440 -0.2907 -0.2972
  179DOPC  C31021976   5.633   5.116  14.692 -0.6811  0.5143  0.0944
  179DOPC  H10X21977   5.597   5.084  14.791 -0.0730 -2.8176 -0.6593
  179DOPC  C31121978   5.529   5.148  14.582 -0.2266 -1.5306 -0.6252
  179DOPC  H11X21979   5.460   5.061  14.586 -1.5175 -0.5079  0.1802
  179DOPC  H11Y21980   5.569   5.147  14.478 -3.7566 -0.8669 -2.1582
  179DOPC  C31221981   5.455   5.283  14.605 -0.2397 -0.1722  0.8056
  179DOPC  H12X21982   5.371   5.269  14.533  1.1462 -2.4412 -0.4768
  179DOPC  H12Y21983   5.510   5.374  14.573 -1.0495  0.7714  1.9750
  179DOPC  C31321984   5.413   5.303  14.752  0.2465 -0.3238  0.1201
  179DOPC  H13X21985   5.377   5.206  14.792 -0.0934  0.2561  1.2773
  179DOPC  H13Y21986   5.502   5.340  14.807  1.1212  0.9386 -2.0285
  179DOPC  C31421987   5.309   5.420  14.772 -0.2826  0.6250  0.2483
  179DOPC  H14X21988   5.349   5.513  14.727 -0.1798 -0.8305 -2.9268
  179DOPC  H14Y21989   5.213   5.396  14.721 -0.8956 -1.3398  2.1494
  179DOPC  C31521990   5.281   5.455  14.920 -0.0973  0.9102 -0.2745
  179DOPC  H15X21991   5.376   5.459  14.978  0.8694 -1.5768 -1.5480
  179DOPC  H15Y21992   5.213   5.379  14.963  0.3074  0.4845 -0.3754
  179DOPC  C31621993   5.210   5.588  14.931 -0.4692 -0.1160 -0.0504
  179DOPC  H16X21994   5.276   5.668  14.891  0.6119  0.0741  2.0171
  179DOPC  H16Y21995   5.120   5.588  14.865  0.3732  0.1170 -1.2247
  179DOPC  C31721996   5.188   5.636  15.076 -0.0823 -0.6349  0.1843
  179DOPC  H17X21997   5.253   5.581  15.147  2.0178  0.3145 -0.9287
  179DOPC  H17Y21998   5.238   5.735  15.078  1.0888 -1.2047 -0.1788
  179DOPC  C31821999   5.038   5.635  15.109  0.2684 -0.1275 -0.2894
  179DOPC  H18X22000   5.008   5.529  15.119  0.4262 -0.2419 -0.9721
  179DOPC  H18Y22001   5.026   5.680  15.210  0.9156  0.8508 -0.6364
  179DOPC  H18Z22002   4.985   5.699  15.034  0.7742  0.5327 -0.0898
  180DOPC     N22003   6.885   2.352  12.031  0.2571 -0.7031  0.6229
  180DOPC   C1222004   6.908   2.344  12.182  0.6052  0.6706 -0.7638
  180DOPC  H12A22005   7.011   2.317  12.200  1.1053  1.6877 -1.9402
  180DOPC  H12B22006   6.853   2.261  12.223  0.6708  1.6267  1.4135
  180DOPC   C1322007   6.746   2.382  11.991  0.0502  0.1398  0.2508
  180DOPC  H13A22008   6.680   2.303  12.023 -1.6515  0.8135 -1.4548
  180DOPC  H13B22009   6.714   2.474  12.037  1.4540  0.0774  1.4597
  180DOPC  H13C22010   6.745   2.392  11.884 -1.6740  0.6931  0.3001
  180DOPC   C1422011   6.928   2.218  11.965 -0.4422  0.0843  0.3686
  180DOPC  H14A22012   6.886   2.210  11.866  2.1938  1.8987 -1.0188
  180DOPC  H14B22013   7.036   2.218  11.967 -0.4374 -0.9033  0.4844
  180DOPC  H14C22014   6.899   2.132  12.024  1.4968 -0.0557  1.2027
  180DOPC   C1522015   6.974   2.452  11.958 -0.5111  0.2204  1.0742
  180DOPC  H15A22016   6.960   2.457  11.851 -2.1237  2.7299  1.3114
  180DOPC  H15B22017   7.076   2.423  11.974 -0.8878 -1.1225  1.1310
  180DOPC  H15C22018   6.966   2.553  11.997  1.8228  0.7456  0.3533
  180DOPC   C1122019   6.871   2.470  12.263  0.9784  0.2194  0.5731
  180DOPC  H11A22020   6.949   2.543  12.233  1.3752 -0.5191 -0.2390
  180DOPC  H11B22021   6.774   2.507  12.224  2.1165  0.0290 -2.8402
  180DOPC     P22022   6.974   2.397  12.485  0.0673  0.2581 -0.0495
  180DOPC   O1322023   7.080   2.494  12.490  0.1769  0.7350 -0.9801
  180DOPC   O1422024   7.021   2.267  12.444  0.1762  0.4748  0.5250
  180DOPC   O1222025   6.854   2.443  12.397  0.1580 -0.1335  0.1118
  180DOPC   O1122026   6.914   2.376  12.625  0.5337 -0.1189 -0.7731
  180DOPC    C122027   6.905   2.488  12.716 -0.0002  0.3695  0.2049
  180DOPC    HA22028   6.814   2.466  12.776 -0.7800  1.3398 -0.5773
  180DOPC    HB22029   6.887   2.590  12.676  0.6428  1.0119  1.5141
  180DOPC    C222030   7.032   2.495  12.811 -0.7607  0.0161 -0.4298
  180DOPC    HS22031   7.118   2.486  12.741  0.2127  0.3239  0.6797
  180DOPC   O2122032   7.037   2.395  12.916 -0.0315  0.4744  0.0269
  180DOPC   C2122033   7.157   2.368  12.968  0.2979  0.2544  0.4462
  180DOPC   O2222034   7.256   2.433  12.941 -0.3750 -0.3942 -0.9211
  180DOPC   C2222035   7.137   2.264  13.076  0.1705 -0.4963 -0.3162
  180DOPC   H2R22036   7.074   2.179  13.043  1.1005 -1.2951 -0.0537
  180DOPC   H2S22037   7.078   2.316  13.155 -0.0808 -1.5284  0.2008
  180DOPC    C322038   7.032   2.636  12.876  0.3992  0.4381  0.3252
  180DOPC    HX22039   7.028   2.712  12.795  1.2346  1.2480  1.0229
  180DOPC    HY22040   7.132   2.638  12.925  0.9251  1.3514 -0.7256
  180DOPC   O3122041   6.909   2.645  12.955  0.6194 -0.5204 -0.5893
  180DOPC   C3122042   6.925   2.628  13.085  0.3911 -0.5300 -0.0479
  180DOPC   O3222043   7.027   2.583  13.137 -0.1095 -0.7252 -0.2262
  180DOPC   C3222044   6.807   2.677  13.160  0.5615  0.0892 -0.1610
  180DOPC   H2X22045   6.777   2.779  13.127 -0.0082  0.7242  2.1701
  180DOPC   H2Y22046   6.718   2.612  13.147 -0.2395  1.3965 -1.6991
  180DOPC   C2322047   7.261   2.197  13.135  0.3620  0.4622 -0.6699
  180DOPC   H3R22048   7.341   2.274  13.148  1.7789 -1.0479 -0.1079
  180DOPC   H3S22049   7.287   2.115  13.065 -0.0724 -0.1095 -0.1736
  180DOPC   C2422050   7.230   2.123  13.260 -0.3014  0.9611  0.6209
  180DOPC   H4R22051   7.133   2.071  13.244  0.6152 -0.3064 -1.0371
  180DOPC   H4S22052   7.219   2.195  13.344 -1.4641  3.0184 -1.1884
  180DOPC   C2522053   7.333   2.018  13.289  0.0726 -0.2584  0.3182
  180DOPC   H5R22054   7.367   1.970  13.195  0.0964  2.8763 -1.4153
  180DOPC   H5S22055   7.273   1.950  13.353 -1.0158  0.2035 -0.1884
  180DOPC   C2622056   7.451   2.076  13.368 -0.2167  0.3864  0.0406
  180DOPC   H6R22057   7.414   2.127  13.460 -0.5310 -0.7065  0.5392
  180DOPC   H6S22058   7.506   2.151  13.307 -0.7157 -0.6119 -1.6853
  180DOPC   C2722059   7.556   1.977  13.418  0.2178  0.3869 -0.3917
  180DOPC   H7R22060   7.542   1.883  13.360  0.8542 -0.0743  0.1961
  180DOPC   H7S22061   7.539   1.940  13.521  2.6408  0.5424  0.1131
  180DOPC   C2822062   7.706   2.010  13.401  0.6982  0.3863 -0.7033
  180DOPC   H8R22063   7.726   2.034  13.295 -0.2282  0.7010 -0.8156
  180DOPC   H8S22064   7.762   1.917  13.421 -1.8444 -0.8846  1.0400
  180DOPC   C2922065   7.755   2.123  13.488  0.2840  0.5265 -0.3257
  180DOPC   H9R22066   7.696   2.214  13.472 -1.9423 -0.7359  0.2722
  180DOPC  C21022067   7.818   2.110  13.604 -0.1915 -0.0390 -0.7125
  180DOPC  H10R22068   7.843   2.198  13.665  2.3292  0.1545 -1.9155
  180DOPC  C21122069   7.872   1.982  13.662  0.6556  0.0732  0.7764
  180DOPC  H11R22070   7.967   2.014  13.710  1.3026  3.3234 -2.2842
  180DOPC  H11S22071   7.900   1.912  13.580 -0.3444  1.2923 -0.6451
  180DOPC  C21222072   7.776   1.922  13.764 -0.9431  0.2580  0.1513
  180DOPC  H12R22073   7.839   1.838  13.800  0.1748  0.6234 -0.9059
  180DOPC  H12S22074   7.682   1.891  13.714 -0.9605 -0.5748  0.6870
  180DOPC  C21322075   7.761   2.013  13.888 -0.1730  0.1688  0.1860
  180DOPC  H13R22076   7.719   2.112  13.860  1.1833  0.6940 -0.0644
  180DOPC  H13S22077   7.863   2.021  13.931 -0.2861  0.5480  0.3873
  180DOPC  C21422078   7.683   1.965  14.012 -0.0620  0.9952 -0.7141
  180DOPC  H14R22079   7.707   1.859  14.032 -0.2692  1.1109  0.1685
  180DOPC  H14S22080   7.579   1.970  13.971 -0.7276 -3.8318 -0.2255
  180DOPC  C21522081   7.711   2.039  14.142 -0.1330 -0.1997 -0.3614
  180DOPC  H15R22082   7.684   2.146  14.125 -0.1169  0.0110  0.8500
  180DOPC  H15S22083   7.820   2.031  14.159 -0.1873 -1.6066 -0.5369
  180DOPC  C21622084   7.643   1.970  14.258  0.5091  0.1468  0.1626
  180DOPC  H16R22085   7.665   1.862  14.244  1.3226 -0.3161  3.9338
  180DOPC  H16S22086   7.534   1.977  14.236  0.2998 -1.3412  0.5747
  180DOPC  C21722087   7.691   2.018  14.397  0.4738 -0.0242  0.1615
  180DOPC  H17R22088   7.801   2.016  14.410  0.6898 -1.9226 -1.3453
  180DOPC  H17S22089   7.641   1.956  14.474  1.8372  0.9345  1.8684
  180DOPC  C21822090   7.646   2.154  14.441  0.9415  0.4951  0.6413
  180DOPC  H18R22091   7.688   2.235  14.377  1.0883 -1.4464 -1.8688
  180DOPC  H18S22092   7.684   2.188  14.539 -0.0789  0.1831  1.1518
  180DOPC  H18T22093   7.537   2.162  14.457  0.9174  1.8476  0.0279
  180DOPC   C3322094   6.814   2.689  13.314  0.1696 -0.9470  0.1461
  180DOPC   H3X22095   6.862   2.787  13.335 -0.0907 -0.9343  0.7159
  180DOPC   H3Y22096   6.890   2.627  13.368  1.7700  0.3911 -0.4775
  180DOPC   C3422097   6.675   2.667  13.384  0.1754  0.2423 -0.2083
  180DOPC   H4X22098   6.626   2.571  13.360  2.3407 -0.6199 -1.5272
  180DOPC   H4Y22099   6.613   2.746  13.337 -1.1152 -1.6598 -1.8920
  180DOPC   C3522100   6.678   2.699  13.536  0.4999  0.3655  0.4574
  180DOPC   H5X22101   6.712   2.802  13.560 -1.9780  0.9504  1.7141
  180DOPC   H5Y22102   6.750   2.631  13.587  0.4390 -0.1830 -0.1756
  180DOPC   C3622103   6.546   2.683  13.620 -0.2106 -0.1582  1.0014
  180DOPC   H6X22104   6.477   2.763  13.586 -1.4006 -1.8092 -0.6247
  180DOPC   H6Y22105   6.496   2.588  13.592  2.7695 -1.2762 -0.9996
  180DOPC   C3722106   6.585   2.694  13.769  0.3182  0.8727  0.4242
  180DOPC   H7X22107   6.685   2.650  13.787 -0.1815 -1.1018 -1.2174
  180DOPC   H7Y22108   6.604   2.799  13.796  3.4732  0.4710  0.2169
  180DOPC   C3822109   6.475   2.637  13.865  0.3546  0.0923  1.0561
  180DOPC   H8X22110   6.523   2.629  13.965  0.0249 -0.5341  1.1656
  180DOPC   H8Y22111   6.457   2.540  13.814  2.8686  1.7091 -3.5249
  180DOPC   C3922112   6.353   2.726  13.868  0.5086  0.2750 -0.0961
  180DOPC   H9X22113   6.319   2.759  13.768 -0.5208 -2.6168 -0.8023
  180DOPC  C31022114   6.285   2.765  13.974  0.9810 -0.2505  0.2881
  180DOPC  H10X22115   6.184   2.802  13.949  1.3083  0.2398 -0.3114
  180DOPC  C31122116   6.321   2.745  14.117  0.1054 -0.1268 -0.1794
  180DOPC  H11X22117   6.291   2.836  14.174  0.6867  0.9874 -1.5735
  180DOPC  H11Y22118   6.430   2.745  14.136 -0.0128  0.7789  0.5812
  180DOPC  C31222119   6.269   2.612  14.188  0.2308  0.4254  0.0412
  180DOPC  H12X22120   6.326   2.590  14.281  0.1521 -0.0875 -0.0282
  180DOPC  H12Y22121   6.300   2.530  14.119 -0.1794 -0.1509  0.5373
  180DOPC  C31322122   6.114   2.604  14.211 -0.9703 -0.2606  0.3823
  180DOPC  H13X22123   6.084   2.707  14.239 -0.8863 -0.0692 -0.2170
  180DOPC  H13Y22124   6.059   2.576  14.119  0.2352 -1.6116  0.0214
  180DOPC  C31422125   6.077   2.510  14.321  0.1178 -0.5641  0.0585
  180DOPC  H14X22126   6.094   2.406  14.285 -1.2344 -0.6185 -0.4848
  180DOPC  H14Y22127   6.141   2.539  14.408 -1.5157  1.2374  0.7226
  180DOPC  C31522128   5.940   2.533  14.382  0.0981  0.1009  0.2298
  180DOPC  H15X22129   5.863   2.536  14.302  1.3560 -0.2843 -1.0412
  180DOPC  H15Y22130   5.946   2.636  14.422  3.4055  0.6447 -1.3291
  180DOPC  C31622131   5.905   2.441  14.498  0.4643 -0.3981  0.3959
  180DOPC  H16X22132   5.913   2.338  14.458  0.2562 -0.2633  0.0108
  180DOPC  H16Y22133   5.979   2.459  14.579  0.1046 -0.4071  0.7287
  180DOPC  C31722134   5.766   2.471  14.554  0.3173 -0.0325 -0.1316
  180DOPC  H17X22135   5.695   2.473  14.468 -0.8743 -1.4640  0.7665
  180DOPC  H17Y22136   5.733   2.383  14.613 -1.7108 -0.0708 -1.2304
  180DOPC  C31822137   5.763   2.597  14.647  0.2528 -0.6489 -0.9613
  180DOPC  H18X22138   5.657   2.603  14.681  0.6359  2.3706  0.0543
  180DOPC  H18Y22139   5.815   2.572  14.742  1.9322 -0.0479 -1.6762
  180DOPC  H18Z22140   5.809   2.691  14.608 -1.4866  0.7219  0.1180
  181DOPC     N22141   2.123   2.339  12.862  0.4446  0.2184 -0.3047
  181DOPC   C1222142   2.218   2.247  12.937  1.0088  0.5382  0.4499
  181DOPC  H12A22143   2.289   2.222  12.859 -2.4394 -4.5028 -1.5763
  181DOPC  H12B22144   2.173   2.154  12.968  0.3461 -0.1537 -2.2907
  181DOPC   C1322145   2.005   2.384  12.952  0.6185  0.0247  0.0106
  181DOPC  H13A22146   2.030   2.424  13.049 -1.9755 -0.3007  0.8760
  181DOPC  H13B22147   1.949   2.462  12.904  0.6505 -0.4328 -0.7888
  181DOPC  H13C22148   1.939   2.301  12.973 -0.5451  1.3981  2.0220
  181DOPC   C1422149   2.066   2.272  12.741 -0.0582 -0.0471  0.0018
  181DOPC  H14A22150   2.155   2.250  12.684 -0.6406 -1.4738 -0.3937
  181DOPC  H14B22151   2.012   2.183  12.771  0.1161 -0.7832 -1.7471
  181DOPC  H14C22152   2.000   2.332  12.680 -1.7042 -0.1351  1.6042
  181DOPC   C1522153   2.194   2.459  12.806  0.2179 -0.5514 -0.7952
  181DOPC  H15A22154   2.271   2.439  12.732  0.0947  0.2907 -1.1644
  181DOPC  H15B22155   2.256   2.501  12.884  0.6387 -0.2977 -1.2617
  181DOPC  H15C22156   2.122   2.526  12.762  1.1827  1.4435  0.4898
  181DOPC   C1122157   2.292   2.307  13.066 -0.1752 -0.3531 -0.2210
  181DOPC  H11A22158   2.231   2.356  13.145  2.0793  1.8893  0.2659
  181DOPC  H11B22159   2.341   2.218  13.112 -0.3667 -1.2308 -1.6495
  181DOPC     P22160   2.428   2.536  13.093  0.2675  0.3822  0.4177
  181DOPC   O1322161   2.321   2.629  13.053 -0.6928  0.0450  0.0185
  181DOPC   O1422162   2.563   2.581  13.055  0.1361  0.1562 -0.1386
  181DOPC   O1222163   2.395   2.398  13.023 -0.6310 -1.2052 -0.0018
  181DOPC   O1122164   2.409   2.503  13.246  0.2626 -0.2800  0.2441
  181DOPC    C122165   2.500   2.418  13.303 -0.3410 -0.4912  0.4099
  181DOPC    HA22166   2.607   2.444  13.294 -0.6924  0.5049 -1.2384
  181DOPC    HB22167   2.490   2.318  13.254 -0.5447 -0.2474 -0.0523
  181DOPC    C222168   2.478   2.402  13.455 -0.2069  0.2378  0.1674
  181DOPC    HS22169   2.556   2.330  13.489 -0.5924 -0.8406 -1.1352
  181DOPC   O2122170   2.346   2.366  13.494  0.5674  0.3765  0.2773
  181DOPC   C2122171   2.315   2.241  13.451 -0.1268 -0.7213  0.2290
  181DOPC   O2222172   2.397   2.163  13.404 -0.1568 -0.1833 -0.7000
  181DOPC   C2222173   2.162   2.229  13.459 -0.3689 -0.6039 -0.2313
  181DOPC   H2R22174   2.143   2.121  13.443 -3.0897 -0.6550  2.4136
  181DOPC   H2S22175   2.114   2.286  13.376  1.7167  0.5860 -0.6985
  181DOPC    C322176   2.516   2.530  13.534  0.0916  0.0429 -0.1771
  181DOPC    HX22177   2.469   2.622  13.495  1.7426  1.5588  1.1771
  181DOPC    HY22178   2.624   2.551  13.514  0.5538  0.2985  2.1821
  181DOPC   O3122179   2.507   2.521  13.682 -0.3631 -0.9175 -0.0151
  181DOPC   C3122180   2.396   2.538  13.744  0.0318  0.9994  0.0819
  181DOPC   O3222181   2.295   2.581  13.694  0.1741  0.4213 -0.5740
  181DOPC   C3222182   2.403   2.489  13.891  0.1332 -0.3229 -0.5103
  181DOPC   H2X22183   2.432   2.382  13.887 -2.3141 -1.0577 -0.5830
  181DOPC   H2Y22184   2.486   2.541  13.942 -1.1195  1.0438  0.2294
  181DOPC   C2322185   2.108   2.295  13.586  0.0622  0.5096 -0.2387
  181DOPC   H3R22186   2.153   2.392  13.617 -0.6643  0.8354 -0.1819
  181DOPC   H3S22187   2.144   2.233  13.671 -0.5075 -1.7482 -1.5614
  181DOPC   C2422188   1.959   2.299  13.584 -0.1240 -0.1148  0.0975
  181DOPC   H4R22189   1.909   2.336  13.676  0.7029 -0.8577  0.8777
  181DOPC   H4S22190   1.922   2.194  13.580 -1.4122  0.1889  2.3838
  181DOPC   C2522191   1.903   2.380  13.465 -0.6492 -0.7654 -0.3234
  181DOPC   H5R22192   1.916   2.326  13.368  1.3162 -2.4006  0.7634
  181DOPC   H5S22193   1.969   2.468  13.471  0.2757 -1.5187  1.1536
  181DOPC   C2622194   1.759   2.430  13.484  0.3694  0.1941 -0.3453
  181DOPC   H6R22195   1.734   2.507  13.409  2.4083 -0.5978 -1.9601
  181DOPC   H6S22196   1.751   2.494  13.574 -1.2220  0.5564 -0.7277
  181DOPC   C2722197   1.645   2.330  13.484 -0.0385  0.3028 -0.6465
  181DOPC   H7R22198   1.645   2.270  13.578 -1.1476  0.1549 -0.7277
  181DOPC   H7S22199   1.647   2.261  13.397 -0.4206 -0.6171  0.0496
  181DOPC   C2822200   1.509   2.405  13.478  1.0420  0.2769  0.0265
  181DOPC   H8R22201   1.513   2.482  13.398  0.5851  0.4449  0.1652
  181DOPC   H8S22202   1.485   2.468  13.566 -0.6667  0.7797 -0.7734
  181DOPC   C2922203   1.389   2.315  13.460 -0.7049 -0.4429 -0.0871
  181DOPC   H9R22204   1.375   2.276  13.359  0.4185 -0.9018 -0.0735
  181DOPC  C21022205   1.285   2.298  13.547 -1.0381  0.7589  0.3669
  181DOPC  H10R22206   1.200   2.231  13.529 -0.7232  0.2575  0.7448
  181DOPC  C21122207   1.280   2.357  13.685 -0.0192  0.0159  0.2659
  181DOPC  H11R22208   1.233   2.457  13.693 -1.1474 -0.5490  0.9318
  181DOPC  H11S22209   1.386   2.371  13.715  0.9405  1.9652 -3.4717
  181DOPC  C21222210   1.206   2.271  13.789  0.0964 -0.3222  1.0049
  181DOPC  H12R22211   1.250   2.169  13.790 -0.9720 -0.8081  0.1812
  181DOPC  H12S22212   1.101   2.265  13.754 -0.3732  0.3226  2.2420
  181DOPC  C21322213   1.221   2.316  13.939 -0.0586  0.3878  0.6927
  181DOPC  H13R22214   1.177   2.232  13.996  2.5082 -1.3895  0.2661
  181DOPC  H13S22215   1.153   2.403  13.952 -0.6652  0.0228  0.0255
  181DOPC  C21422216   1.352   2.349  14.003  0.0157 -0.3220 -0.3044
  181DOPC  H14R22217   1.396   2.427  13.937  0.9025  0.7047  1.4367
  181DOPC  H14S22218   1.425   2.265  14.001  0.9322  0.3479  1.9410
  181DOPC  C21522219   1.333   2.387  14.150  0.1253  0.4296 -0.3952
  181DOPC  H15R22220   1.291   2.301  14.207  0.2403  0.3362 -0.4519
  181DOPC  H15S22221   1.263   2.470  14.171 -0.1427 -0.2505  1.5886
  181DOPC  C21622222   1.471   2.424  14.214  0.2866  0.5977  0.4217
  181DOPC  H16R22223   1.500   2.521  14.167 -2.3571 -0.1447 -3.1793
  181DOPC  H16S22224   1.547   2.344  14.200  0.5235  0.9120 -0.1289
  181DOPC  C21722225   1.475   2.443  14.362 -0.2468 -0.0138  0.0620
  181DOPC  H17R22226   1.444   2.349  14.412 -1.6245 -1.1836 -2.7563
  181DOPC  H17S22227   1.405   2.523  14.396  0.9704  1.0751  0.0910
  181DOPC  C21822228   1.618   2.481  14.417  0.3008  0.3671 -0.0720
  181DOPC  H18R22229   1.673   2.386  14.431 -3.4389 -1.8669  0.8538
  181DOPC  H18S22230   1.622   2.536  14.513  1.8454 -0.5865  0.4439
  181DOPC  H18T22231   1.662   2.538  14.332 -1.9197  0.8460 -0.9940
  181DOPC   C3322232   2.273   2.482  13.960  0.3653 -0.5297  0.0464
  181DOPC   H3X22233   2.192   2.435  13.900  0.2014  0.8766 -0.8869
  181DOPC   H3Y22234   2.232   2.585  13.965 -2.2695 -1.5032 -0.2503
  181DOPC   C3422235   2.282   2.432  14.105  0.5788  0.5257  0.3708
  181DOPC   H4X22236   2.344   2.503  14.165 -0.1347  0.6093  1.0366
  181DOPC   H4Y22237   2.340   2.339  14.096  0.4872  0.4455  0.5999
  181DOPC   C3522238   2.157   2.405  14.174  0.7274 -0.0189 -0.7952
  181DOPC   H5X22239   2.099   2.325  14.122  1.2881  0.3332 -1.9903
  181DOPC   H5Y22240   2.083   2.488  14.176 -0.3523 -0.9403 -1.2494
  181DOPC   C3622241   2.182   2.356  14.319 -0.0003 -0.1969 -0.1447
  181DOPC   H6X22242   2.261   2.278  14.324 -0.2387 -0.3930  0.9488
  181DOPC   H6Y22243   2.210   2.447  14.376 -2.8746  1.7051 -1.4880
  181DOPC   C3722244   2.047   2.318  14.379 -0.0008 -0.8049  0.3025
  181DOPC   H7X22245   1.980   2.404  14.355  0.4096  0.0807  2.1764
  181DOPC   H7Y22246   2.008   2.235  14.316  1.0590  0.0648 -1.6052
  181DOPC   C3822247   2.028   2.296  14.528 -0.2532  0.5199 -0.4963
  181DOPC   H8X22248   2.110   2.224  14.547  2.0020  2.5837 -1.9589
  181DOPC   H8Y22249   1.933   2.248  14.560  0.7802 -0.1114  1.8457
  181DOPC   C3922250   2.041   2.418  14.614 -0.2058  0.2907  0.2243
  181DOPC   H9X22251   1.954   2.487  14.613  1.9726  3.2420 -0.5316
  181DOPC  C31022252   2.150   2.448  14.689  0.2442  0.2719 -0.2429
  181DOPC  H10X22253   2.147   2.539  14.749  1.2350  1.1418 -1.4651
  181DOPC  C31122254   2.277   2.364  14.706 -0.2823 -0.2063  0.2574
  181DOPC  H11X22255   2.268   2.260  14.665 -2.1105  0.4898 -1.2646
  181DOPC  H11Y22256   2.292   2.357  14.816 -0.4156  2.4339  0.4976
  181DOPC  C31222257   2.398   2.418  14.622 -0.0524 -1.1831 -0.0180
  181DOPC  H12X22258   2.414   2.526  14.641  1.5127 -1.3661 -0.1477
  181DOPC  H12Y22259   2.366   2.405  14.516 -0.2856 -2.8568  0.2202
  181DOPC  C31322260   2.531   2.347  14.647  0.3137 -0.1190  0.0455
  181DOPC  H13X22261   2.545   2.361  14.756 -2.0182 -1.2446  0.5446
  181DOPC  H13Y22262   2.524   2.238  14.624  0.5283  0.2335 -1.9121
  181DOPC  C31422263   2.634   2.419  14.558  0.4860  0.3637  0.9639
  181DOPC  H14X22264   2.598   2.415  14.453  2.5982 -0.0224  0.2028
  181DOPC  H14Y22265   2.658   2.523  14.590  2.2874  0.3804 -0.2780
  181DOPC  C31522266   2.771   2.346  14.562  0.7525 -0.5342 -0.0345
  181DOPC  H15X22267   2.780   2.305  14.664 -2.3307  2.6707  1.7274
  181DOPC  H15Y22268   2.851   2.421  14.546 -0.4348  0.6039 -0.8786
  181DOPC  C31622269   2.787   2.225  14.467  0.2069  0.6651  0.1045
  181DOPC  H16X22270   2.883   2.174  14.491  0.4525  0.5755 -1.0228
  181DOPC  H16Y22271   2.707   2.149  14.479  1.0825 -0.6520 -1.8293
  181DOPC  C31722272   2.797   2.267  14.316  0.3837  0.1508  0.2269
  181DOPC  H17X22273   2.711   2.334  14.297  0.6694  0.8071  1.1766
  181DOPC  H17Y22274   2.890   2.326  14.300  1.4138 -1.7456 -1.3054
  181DOPC  C31822275   2.797   2.142  14.225  0.2935 -0.5459 -0.5525
  181DOPC  H18X22276   2.733   2.058  14.260  0.2848 -0.2814  0.0943
  181DOPC  H18Y22277   2.758   2.177  14.127 -0.9481 -0.1162  0.0665
  181DOPC  H18Z22278   2.901   2.109  14.202  0.6567 -0.4660  0.8611
  182DOPC     N22279   3.460   7.203  12.678  0.5214  0.0359 -0.3054
  182DOPC   C1222280   3.518   7.258  12.803  0.2940 -0.1133  0.0267
  182DOPC  H12A22281   3.609   7.313  12.781  0.2047 -0.5525 -1.5983
  182DOPC  H12B22282   3.540   7.167  12.857  1.4732 -0.5545 -1.1398
  182DOPC   C1322283   3.554   7.100  12.621 -0.5549 -0.7107 -0.3500
  182DOPC  H13A22284   3.519   7.057  12.528  1.4220 -0.9228 -1.0473
  182DOPC  H13B22285   3.645   7.156  12.602 -0.8848  0.7195  1.9299
  182DOPC  H13C22286   3.581   7.022  12.690  1.3105  0.2120  0.0244
  182DOPC   C1422287   3.440   7.311  12.579  0.2739 -0.3195  0.0424
  182DOPC  H14A22288   3.381   7.398  12.605  1.4668  0.3325  0.6566
  182DOPC  H14B22289   3.533   7.355  12.548 -1.5094  2.2519 -2.1767
  182DOPC  H14C22290   3.387   7.270  12.494 -0.7421 -0.3176  0.6544
  182DOPC   C1522291   3.321   7.145  12.688 -0.0771 -0.1589  0.2525
  182DOPC  H15A22292   3.277   7.133  12.590  3.5716  0.3967 -1.6304
  182DOPC  H15B22293   3.266   7.207  12.757  1.3804  0.2567  1.0842
  182DOPC  H15C22294   3.326   7.049  12.737 -0.4102 -0.0902  0.4184
  182DOPC   C1122295   3.438   7.359  12.879 -1.1225  0.6360 -0.9057
  182DOPC  H11A22296   3.332   7.327  12.893 -1.2214  1.2933 -0.1096
  182DOPC  H11B22297   3.479   7.364  12.982 -2.6632  0.1582 -0.2356
  182DOPC     P22298   3.539   7.589  12.808  0.5783 -0.1419 -0.3430
  182DOPC   O1322299   3.495   7.709  12.734  0.3244 -0.2354 -0.2127
  182DOPC   O1422300   3.659   7.525  12.756 -0.0353  0.1036 -0.5071
  182DOPC   O1222301   3.423   7.482  12.817  0.3618  0.2164 -0.4650
  182DOPC   O1122302   3.568   7.623  12.958 -0.0313  0.4529 -0.0303
  182DOPC    C122303   3.476   7.684  13.054  0.1634  0.9453 -0.2004
  182DOPC    HA22304   3.439   7.603  13.120  0.4046  0.9772 -0.0255
  182DOPC    HB22305   3.395   7.733  12.996 -0.3279 -0.6923 -0.9722
  182DOPC    C222306   3.549   7.785  13.145  0.6644  0.6667  0.2638
  182DOPC    HS22307   3.576   7.874  13.084  1.8705 -1.2171 -2.1482
  182DOPC   O2122308   3.674   7.725  13.189  0.0165  0.3911  0.1522
  182DOPC   C2122309   3.748   7.794  13.268 -0.0113 -0.0352  0.2369
  182DOPC   O2222310   3.738   7.912  13.291 -0.1838 -0.5208 -0.4746
  182DOPC   C2222311   3.852   7.703  13.324 -0.3899 -0.4717 -0.0827
  182DOPC   H2R22312   3.905   7.649  13.243  1.2600 -0.3117  0.8294
  182DOPC   H2S22313   3.802   7.638  13.399 -1.2557  0.3400  0.0526
  182DOPC    C322314   3.455   7.821  13.267  0.0822 -0.2323 -0.7410
  182DOPC    HX22315   3.351   7.840  13.236  0.0667  1.6069  0.3465
  182DOPC    HY22316   3.482   7.918  13.313 -0.3350 -0.8545  0.9146
  182DOPC   O3122317   3.468   7.720  13.371 -0.7142 -0.1202  0.0464
  182DOPC   C3122318   3.374   7.733  13.469 -0.4261  0.5201  0.5915
  182DOPC   O3222319   3.288   7.821  13.467  0.0575  0.8283  0.6252
  182DOPC   C3222320   3.409   7.635  13.576  0.1740  0.2785 -0.5189
  182DOPC   H2X22321   3.341   7.646  13.663  0.6836  0.5115 -0.1432
  182DOPC   H2Y22322   3.392   7.535  13.530  1.2396  0.0558 -0.4617
  182DOPC   C2322323   3.966   7.774  13.411  0.2970 -0.0242  0.2166
  182DOPC   H3R22324   3.917   7.831  13.493  0.2579  1.9507 -1.1256
  182DOPC   H3S22325   4.012   7.850  13.345 -3.6027  1.7308 -0.8076
  182DOPC   C2422326   4.064   7.675  13.472 -0.0887  0.4070 -0.8989
  182DOPC   H4R22327   4.125   7.630  13.391  1.8129 -0.8329  1.1064
  182DOPC   H4S22328   4.016   7.589  13.524  1.5911 -0.6715 -1.0715
  182DOPC   C2522329   4.165   7.731  13.575 -0.1564  0.0838 -0.0379
  182DOPC   H5R22330   4.225   7.798  13.511  1.3568 -1.2028 -0.0450
  182DOPC   H5S22331   4.222   7.645  13.618 -0.0541 -0.7660 -1.8063
  182DOPC   C2622332   4.102   7.794  13.691 -0.3240  0.6272  0.9489
  182DOPC   H6R22333   4.047   7.711  13.740 -2.0132  0.2711 -1.4076
  182DOPC   H6S22334   4.031   7.875  13.662  0.3271  1.1834  0.8840
  182DOPC   C2722335   4.204   7.854  13.791 -0.0630 -0.5521  0.1443
  182DOPC   H7R22336   4.266   7.919  13.725 -0.2016 -1.1289 -0.5734
  182DOPC   H7S22337   4.276   7.777  13.825 -0.1402 -0.2437  1.0263
  182DOPC   C2822338   4.141   7.938  13.911  0.3455  0.1620  0.0625
  182DOPC   H8R22339   4.219   7.966  13.986 -0.3730  0.2320  0.8047
  182DOPC   H8S22340   4.078   7.858  13.955 -0.7574  1.8017  1.6329
  182DOPC   C2922341   4.074   8.068  13.876  0.4992 -0.3881 -0.7545
  182DOPC   H9R22342   4.142   8.152  13.854 -0.9602  1.3614  1.0085
  182DOPC  C21022343   3.942   8.090  13.891  0.6299  0.5582  0.1659
  182DOPC  H10R22344   3.907   8.194  13.884  0.4136  0.4390 -0.6677
  182DOPC  C21122345   3.834   7.992  13.929 -0.3659 -0.4258  0.1248
  182DOPC  H11R22346   3.879   7.897  13.964  1.6981  0.7072  0.7455
  182DOPC  H11S22347   3.764   7.974  13.844  1.1718 -0.2603 -1.2234
  182DOPC  C21222348   3.732   8.042  14.041  0.0544  0.0984  0.9405
  182DOPC  H12R22349   3.679   8.132  14.004  0.6563 -0.7389 -2.3036
  182DOPC  H12S22350   3.778   8.059  14.141  2.3785  0.6313 -0.1402
  182DOPC  C21322351   3.624   7.936  14.059  0.4143  0.6605 -0.1241
  182DOPC  H13R22352   3.668   7.844  14.102 -0.6223  0.8848  1.5154
  182DOPC  H13S22353   3.583   7.916  13.957  0.4455 -0.4069  0.0561
  182DOPC  C21422354   3.514   7.984  14.150 -0.4704  0.2254 -0.1941
  182DOPC  H14R22355   3.429   7.912  14.147  0.2217 -0.5997 -0.9506
  182DOPC  H14S22356   3.477   8.077  14.102  1.4506  0.2586 -1.7574
  182DOPC  C21522357   3.553   8.016  14.296  0.1767  0.3220  0.0834
  182DOPC  H15R22358   3.472   8.069  14.352  3.0371  3.4019  1.6460
  182DOPC  H15S22359   3.637   8.088  14.295  1.8246 -1.5178  0.6723
  182DOPC  C21622360   3.607   7.899  14.385  0.0896  0.0704  0.2459
  182DOPC  H16R22361   3.699   7.866  14.333  0.1665 -0.8754  0.9587
  182DOPC  H16S22362   3.533   7.815  14.382  0.6949 -0.4406 -1.8652
  182DOPC  C21722363   3.634   7.953  14.522 -0.0174 -0.7151 -0.7327
  182DOPC  H17R22364   3.536   7.992  14.558  0.5612  0.9371 -0.8297
  182DOPC  H17S22365   3.705   8.037  14.502  0.6462 -0.0837  3.3550
  182DOPC  C21822366   3.692   7.856  14.619  0.3470  0.2199  0.1399
  182DOPC  H18R22367   3.634   7.763  14.637  0.8565 -0.2991 -0.8229
  182DOPC  H18S22368   3.719   7.901  14.717 -1.5166  2.7127 -0.3878
  182DOPC  H18T22369   3.788   7.825  14.572 -0.0533  0.2828 -0.7352
  182DOPC   C3322370   3.554   7.651  13.626  0.3515  0.4449  0.0326
  182DOPC   H3X22371   3.562   7.753  13.669 -1.3992 -0.1375  1.8779
  182DOPC   H3Y22372   3.630   7.646  13.545 -0.2194  1.6346 -0.6117
  182DOPC   C3422373   3.586   7.556  13.738 -0.2175 -0.4429 -0.1006
  182DOPC   H4X22374   3.596   7.454  13.695  1.3229 -0.2044 -0.3607
  182DOPC   H4Y22375   3.504   7.555  13.814 -0.8333  0.7669 -0.7125
  182DOPC   C3522376   3.723   7.588  13.792 -0.4800 -0.6193 -0.4827
  182DOPC   H5X22377   3.739   7.693  13.825  0.9033 -0.4191 -1.6634
  182DOPC   H5Y22378   3.804   7.572  13.718  0.7083  0.2087  0.5925
  182DOPC   C3622379   3.755   7.496  13.912 -0.6238 -0.1276 -0.5408
  182DOPC   H6X22380   3.694   7.547  13.990  0.0814  0.6245 -0.4743
  182DOPC   H6Y22381   3.707   7.396  13.903 -2.1020  0.6170 -1.3708
  182DOPC   C3722382   3.905   7.498  13.957  0.2710  0.3332 -0.4522
  182DOPC   H7X22383   3.922   7.607  13.967 -0.8717  0.3655  1.6278
  182DOPC   H7Y22384   3.909   7.446  14.055 -2.2878  2.3211  0.8390
  182DOPC   C3822385   3.994   7.422  13.868 -0.5104 -0.6442 -0.0260
  182DOPC   H8X22386   4.100   7.452  13.884 -0.0068 -1.0244 -2.4175
  182DOPC   H8Y22387   3.978   7.474  13.772 -0.3706  0.2468  0.4149
  182DOPC   C3922388   3.981   7.269  13.861  0.1429 -0.3822  0.2063
  182DOPC   H9X22389   3.878   7.234  13.844 -0.8651  1.7696  1.5003
  182DOPC  C31022390   4.064   7.171  13.886 -0.1286 -0.6304  0.0271
  182DOPC  H10X22391   4.035   7.067  13.866 -2.0073 -0.5728  2.1230
  182DOPC  C31122392   4.208   7.193  13.924 -0.1648  0.2918 -0.0243
  182DOPC  H11X22393   4.256   7.286  13.885  1.8946  0.3696  2.4532
  182DOPC  H11Y22394   4.271   7.108  13.892 -0.9789 -1.0271  1.6619
  182DOPC  C31222395   4.225   7.212  14.081  0.1079  0.3651 -0.2229
  182DOPC  H12X22396   4.146   7.284  14.111  0.0533  1.2644 -2.3540
  182DOPC  H12Y22397   4.325   7.256  14.101  0.2823  0.1565 -0.6248
  182DOPC  C31322398   4.200   7.084  14.173 -0.2235 -0.1441 -0.3720
  182DOPC  H13X22399   4.102   7.034  14.158 -0.9817  1.7767 -2.5892
  182DOPC  H13Y22400   4.283   7.015  14.150 -1.5730 -2.1950  0.6387
  182DOPC  C31422401   4.217   7.119  14.326  1.2821  0.6142  0.2656
  182DOPC  H14X22402   4.318   7.165  14.339  0.7835  1.0870  3.1008
  182DOPC  H14Y22403   4.140   7.195  14.351 -0.6119 -1.7787  2.0947
  182DOPC  C31522404   4.201   6.999  14.410 -0.1069  0.0809 -0.4395
  182DOPC  H15X22405   4.296   6.944  14.399  0.1526  0.6861 -1.3522
  182DOPC  H15Y22406   4.114   6.938  14.377 -1.5162  1.3336  0.7403
  182DOPC  C31622407   4.176   7.037  14.555  0.6255  0.7612 -0.9586
  182DOPC  H16X22408   4.258   7.107  14.582  2.0724 -0.3128 -2.2959
  182DOPC  H16Y22409   4.081   7.093  14.565  0.5946  0.7779 -1.3336
  182DOPC  C31722410   4.167   6.920  14.653  0.2407  0.1374 -0.1487
  182DOPC  H17X22411   4.083   6.854  14.625 -1.3307  3.1308 -3.2392
  182DOPC  H17Y22412   4.268   6.873  14.643  1.3290  2.6375 -2.2968
  182DOPC  C31822413   4.131   6.980  14.790  0.2503  0.7853 -0.2388
  182DOPC  H18X22414   4.212   7.053  14.811  1.2251 -0.3900  0.2495
  182DOPC  H18Y22415   4.031   7.025  14.802 -0.1689 -0.5188  1.6328
  182DOPC  H18Z22416   4.151   6.902  14.867 -1.5251  1.4071  0.8974
  183DOPC     N22417   0.060   4.516  12.735 -1.2040 -0.1386 -0.3690
  183DOPC   C1222418  -0.027   4.525  12.853  0.6967 -0.1794 -0.4129
  183DOPC  H12A22419   0.024   4.490  12.941  0.0460 -1.0719 -0.3819
  183DOPC  H12B22420  -0.113   4.460  12.849  1.2529 -1.0881  1.4385
  183DOPC   C1322421  -0.022   4.539  12.602 -0.0832 -0.1306 -0.4794
  183DOPC  H13A22422  -0.109   4.474  12.603 -1.3197  1.4750 -0.7215
  183DOPC  H13B22423  -0.060   4.638  12.588 -1.4865 -0.3759  1.2532
  183DOPC  H13C22424   0.039   4.514  12.517  0.4581  0.1200 -0.1693
  183DOPC   C1422425   0.125   4.384  12.711  0.0303  0.0094 -0.0982
  183DOPC  H14A22426   0.187   4.348  12.792  0.0033  0.3728  0.0867
  183DOPC  H14B22427   0.050   4.307  12.698 -1.8949  1.3069  2.3594
  183DOPC  H14C22428   0.194   4.387  12.629 -0.9844 -0.4771 -0.9970
  183DOPC   C1522429   0.166   4.617  12.742 -0.5603 -0.1451 -0.4957
  183DOPC  H15A22430   0.232   4.608  12.827  0.8306 -0.8159 -1.6091
  183DOPC  H15B22431   0.117   4.713  12.741 -1.9442 -0.8245 -0.3384
  183DOPC  H15C22432   0.229   4.611  12.655  0.0675  0.6808 -0.1127
  183DOPC   C1122433  -0.077   4.667  12.886 -0.0543 -0.5143  0.5373
  183DOPC  H11A22434   0.004   4.743  12.887  0.6339 -1.1181 -1.9618
  183DOPC  H11B22435  -0.149   4.706  12.811  1.1764  0.2575 -0.2878
  183DOPC     P22436  -0.130   4.769  13.109  0.2158  0.5568  0.2471
  183DOPC   O1322437  -0.233   4.750  13.210  0.5113  0.0026  0.0243
  183DOPC   O1422438  -0.127   4.898  13.035  0.7545 -0.5069 -0.2311
  183DOPC   O1222439  -0.139   4.656  13.009  0.7636  0.2154 -0.1668
  183DOPC   O1122440   0.017   4.754  13.182 -0.1265  0.2873 -0.3628
  183DOPC    C122441   0.074   4.626  13.221 -0.7912 -0.5399  0.3600
  183DOPC    HA22442   0.102   4.572  13.127  0.8164  0.7595  0.0358
  183DOPC    HB22443  -0.001   4.568  13.278  1.1024 -3.0198  0.5003
  183DOPC    C222444   0.198   4.650  13.309  0.1691 -0.8750  0.2405
  183DOPC    HS22445   0.237   4.555  13.351 -0.0591 -1.0754  0.0101
  183DOPC   O2122446   0.173   4.749  13.413  0.0866  0.0222 -0.1087
  183DOPC   C2122447   0.100   4.691  13.505 -0.1200 -0.1369  0.1122
  183DOPC   O2222448   0.071   4.574  13.505  0.0020  0.6940  0.4834
  183DOPC   C2222449   0.060   4.792  13.615 -0.0437 -0.0324  0.1156
  183DOPC   H2R22450  -0.044   4.768  13.646  0.4263 -1.1091  0.9470
  183DOPC   H2S22451   0.052   4.894  13.571  2.6157 -0.3685 -1.3834
  183DOPC    C322452   0.308   4.697  13.209  0.1641 -0.1052 -0.0608
  183DOPC    HX22453   0.267   4.791  13.166  0.9830  0.8738  1.2247
  183DOPC    HY22454   0.308   4.623  13.126  0.6239  2.6030 -2.6584
  183DOPC   O3122455   0.438   4.710  13.271  0.7192  0.1431 -0.6400
  183DOPC   C3122456   0.511   4.594  13.281 -0.4426 -0.1509 -0.0150
  183DOPC   O3222457   0.479   4.487  13.236  0.2707  0.1491 -0.1460
  183DOPC   C3222458   0.624   4.618  13.372 -0.4688 -1.1672  0.2423
  183DOPC   H2X22459   0.708   4.553  13.340 -0.0076 -0.6115  0.3156
  183DOPC   H2Y22460   0.659   4.723  13.362  0.2143 -1.5970 -3.1008
  183DOPC   C2322461   0.145   4.797  13.740 -0.1529  0.6507 -0.0938
  183DOPC   H3R22462   0.173   4.694  13.769 -0.0578  1.1483  1.6811
  183DOPC   H3S22463   0.076   4.837  13.818 -1.3259 -1.2029 -0.1000
  183DOPC   C2422464   0.270   4.892  13.733 -0.2206  0.1809  0.2271
  183DOPC   H4R22465   0.243   4.989  13.685 -0.9019 -0.6395 -1.1008
  183DOPC   H4S22466   0.343   4.861  13.655 -0.6209  2.6501 -1.2472
  183DOPC   C2522467   0.342   4.895  13.870 -0.1710 -0.6818  0.1284
  183DOPC   H5R22468   0.264   4.892  13.948 -0.1565  1.3860  0.2795
  183DOPC   H5S22469   0.396   4.990  13.891 -2.0837  0.2097  1.2839
  183DOPC   C2622470   0.448   4.778  13.896  0.0749  0.1584 -0.6665
  183DOPC   H6R22471   0.517   4.786  13.809  0.1171  0.7702 -0.5850
  183DOPC   H6S22472   0.403   4.678  13.882  2.0255 -0.5946 -2.0603
  183DOPC   C2722473   0.516   4.793  14.032 -1.0492 -0.1696 -0.2797
  183DOPC   H7R22474   0.444   4.833  14.107  0.7921  1.5232  0.7171
  183DOPC   H7S22475   0.590   4.874  14.013 -0.2235 -1.2563 -1.9760
  183DOPC   C2822476   0.603   4.681  14.098  0.1582  0.1742  1.0002
  183DOPC   H8R22477   0.663   4.742  14.170  0.9166  2.1767 -1.1944
  183DOPC   H8S22478   0.675   4.635  14.026 -0.2861  2.0440 -0.7389
  183DOPC   C2922479   0.516   4.570  14.150 -0.0684 -0.6230  0.4745
  183DOPC   H9R22480   0.433   4.534  14.088  0.7915 -1.7358 -0.0653
  183DOPC  C21022481   0.530   4.513  14.273  0.3138 -0.4302 -0.3654
  183DOPC  H10R22482   0.466   4.430  14.305  0.8210 -1.4132 -1.8139
  183DOPC  C21122483   0.648   4.537  14.366 -0.2892 -0.2640  0.2861
  183DOPC  H11R22484   0.644   4.640  14.406  0.4381 -0.0458 -0.1738
  183DOPC  H11S22485   0.740   4.524  14.306  0.3073  0.1764  1.0767
  183DOPC  C21222486   0.646   4.448  14.487  0.1433  0.6045 -0.0391
  183DOPC  H12R22487   0.558   4.466  14.552 -0.5687 -2.5412 -0.0043
  183DOPC  H12S22488   0.735   4.475  14.547  0.1065 -2.2850  1.4619
  183DOPC  C21322489   0.669   4.295  14.463  0.1516 -0.7315 -0.9923
  183DOPC  H13R22490   0.778   4.303  14.446 -0.2252  0.6136 -3.3173
  183DOPC  H13S22491   0.614   4.262  14.372 -0.1000 -2.5188 -0.2188
  183DOPC  C21422492   0.647   4.206  14.593 -0.4432 -0.4633  0.3047
  183DOPC  H14R22493   0.541   4.201  14.625  0.2082 -0.2891  2.7676
  183DOPC  H14S22494   0.696   4.268  14.671  0.8906 -1.2879  0.1561
  183DOPC  C21522495   0.720   4.071  14.572  0.0912 -0.8137  0.3618
  183DOPC  H15R22496   0.830   4.080  14.554  0.1439 -1.3952  0.3560
  183DOPC  H15S22497   0.672   4.038  14.478 -1.2619 -0.2061  0.8188
  183DOPC  C21622498   0.702   3.973  14.691 -0.1680 -0.4621  0.5205
  183DOPC  H16R22499   0.604   3.999  14.738 -0.0274  3.1909 -0.9307
  183DOPC  H16S22500   0.782   3.987  14.766 -0.5770  4.7287  0.3056
  183DOPC  C21722501   0.716   3.830  14.635 -0.7090  0.1677  0.3100
  183DOPC  H17R22502   0.670   3.820  14.535 -1.4651  0.6909  0.5919
  183DOPC  H17S22503   0.673   3.754  14.703 -1.3185  0.6454  0.4675
  183DOPC  C21822504   0.863   3.788  14.629 -0.5838 -0.0159 -0.0534
  183DOPC  H18R22505   0.874   3.682  14.598  0.3114 -0.3318  1.2660
  183DOPC  H18S22506   0.904   3.796  14.732 -0.6352 -1.6251  0.1097
  183DOPC  H18T22507   0.920   3.855  14.561  0.6420  1.0670  1.9324
  183DOPC   C3322508   0.573   4.591  13.514 -0.2808 -0.3754 -0.9597
  183DOPC   H3X22509   0.516   4.497  13.528 -0.1698 -0.1087  1.7746
  183DOPC   H3Y22510   0.507   4.675  13.542 -0.9125 -1.4777  1.0229
  183DOPC   C3422511   0.686   4.601  13.618 -0.0245  0.5720 -0.3932
  183DOPC   H4X22512   0.659   4.592  13.725 -0.7202  2.2403 -0.4015
  183DOPC   H4Y22513   0.714   4.708  13.613 -0.1552  0.5594 -1.9720
  183DOPC   C3522514   0.801   4.503  13.603  0.1062  0.1425  0.2841
  183DOPC   H5X22515   0.841   4.513  13.500  1.0581 -3.1086  0.2294
  183DOPC   H5Y22516   0.753   4.403  13.611 -0.2319 -0.1233 -3.6041
  183DOPC   C3622517   0.903   4.514  13.719 -0.2063  0.7447 -0.1060
  183DOPC   H6X22518   0.850   4.531  13.815  3.1527  1.9940  1.6893
  183DOPC   H6Y22519   0.954   4.416  13.731 -1.1539  0.2739  0.2163
  183DOPC   C3722520   1.014   4.622  13.700  0.3466 -0.1171  0.1336
  183DOPC   H7X22521   1.086   4.577  13.629 -0.8293 -0.9962 -0.5375
  183DOPC   H7Y22522   0.967   4.716  13.663  0.8440 -0.0944 -0.4419
  183DOPC   C3822523   1.072   4.671  13.840  0.1815  0.2583  0.2329
  183DOPC   H8X22524   0.990   4.708  13.906 -0.7344  0.9252 -1.2427
  183DOPC   H8Y22525   1.138   4.759  13.825 -1.0745  1.1357 -0.2535
  183DOPC   C3922526   1.152   4.560  13.903  0.1550  0.2327 -0.2103
  183DOPC   H9X22527   1.245   4.528  13.855  0.3431 -1.0318  0.9245
  183DOPC  C31022528   1.122   4.483  14.010  0.1478 -0.3765  0.0001
  183DOPC  H10X22529   1.177   4.389  14.028  1.0490  0.3916  1.4874
  183DOPC  C31122530   1.003   4.496  14.098  0.4154  0.3315  0.1270
  183DOPC  H11X22531   0.916   4.450  14.048  0.8350 -3.6248  2.5682
  183DOPC  H11Y22532   0.968   4.601  14.111 -2.7838 -0.6738  0.4844
  183DOPC  C31222533   1.014   4.417  14.230 -0.0212 -0.0235  0.0653
  183DOPC  H12X22534   1.048   4.315  14.203 -0.4508  0.5487 -2.8855
  183DOPC  H12Y22535   0.912   4.418  14.274  0.2417  1.7205  0.7388
  183DOPC  C31322536   1.106   4.493  14.331  0.1911  0.5557  0.3993
  183DOPC  H13X22537   1.191   4.526  14.267 -1.3196  1.1578 -1.4122
  183DOPC  H13Y22538   1.050   4.585  14.359 -3.1275 -0.8005 -1.3387
  183DOPC  C31422539   1.138   4.414  14.454  0.6692  0.0908  0.7018
  183DOPC  H14X22540   1.049   4.383  14.512  0.4230 -0.1747  0.1908
  183DOPC  H14Y22541   1.196   4.325  14.421  1.4680  0.9450 -0.2801
  183DOPC  C31522542   1.232   4.488  14.548  0.2528  0.2789  0.2791
  183DOPC  H15X22543   1.195   4.586  14.586  1.9516  0.7500  0.7667
  183DOPC  H15Y22544   1.311   4.514  14.475 -0.1944 -0.3871 -0.4584
  183DOPC  C31622545   1.292   4.409  14.662  0.4816  0.1290 -0.4964
  183DOPC  H16X22546   1.210   4.361  14.720  1.5386 -0.4007  0.6271
  183DOPC  H16Y22547   1.351   4.323  14.623  0.5187 -1.2648  2.3988
  183DOPC  C31722548   1.369   4.491  14.773  0.0108 -0.1258  0.1139
  183DOPC  H17X22549   1.390   4.583  14.716 -1.3288  1.7416  2.4425
  183DOPC  H17Y22550   1.302   4.516  14.858  2.8176  2.0094  1.8542
  183DOPC  C31822551   1.503   4.419  14.820  0.3831  0.3045 -0.0030
  183DOPC  H18X22552   1.563   4.406  14.727  0.7766  0.3237  0.2492
  183DOPC  H18Y22553   1.559   4.489  14.885 -0.4499 -1.3197  2.5978
  183DOPC  H18Z22554   1.484   4.321  14.867 -1.5822  0.6800  0.0654
  184DOPC     N22555   6.306   7.359  12.823  0.0436 -0.4099  0.9174
  184DOPC   C1222556   6.259   7.465  12.924  0.0165  0.4238  0.3900
  184DOPC  H12A22557   6.152   7.460  12.913  0.2387 -2.7505 -1.9803
  184DOPC  H12B22558   6.298   7.556  12.881  2.3875 -0.1004  1.2614
  184DOPC   C1322559   6.446   7.377  12.776  0.3703 -0.4566  0.0168
  184DOPC  H13A22560   6.477   7.283  12.735  0.7755 -0.9264  1.3452
  184DOPC  H13B22561   6.473   7.460  12.713  0.8455 -0.3298  0.3838
  184DOPC  H13C22562   6.502   7.388  12.868 -1.0445 -1.2846  1.0226
  184DOPC   C1422563   6.228   7.378  12.693  0.1845  0.2194 -0.0297
  184DOPC  H14A22564   6.228   7.478  12.652 -1.6544  1.2609  2.3062
  184DOPC  H14B22565   6.265   7.304  12.623  0.5217  0.2143  0.1515
  184DOPC  H14C22566   6.123   7.360  12.710 -0.1495  0.7156 -1.3803
  184DOPC   C1522567   6.283   7.215  12.868 -0.4134 -0.3885  0.5197
  184DOPC  H15A22568   6.347   7.180  12.948 -0.2625 -1.9820 -0.2789
  184DOPC  H15B22569   6.289   7.156  12.778 -0.2544  1.3492 -0.6601
  184DOPC  H15C22570   6.181   7.206  12.904 -0.6016 -1.9626 -0.3448
  184DOPC   C1122571   6.303   7.454  13.069  0.1816  0.1112 -0.7891
  184DOPC  H11A22572   6.414   7.449  13.068  0.2341  1.1675 -0.7168
  184DOPC  H11B22573   6.276   7.548  13.121  1.4849 -0.7263  1.5431
  184DOPC     P22574   6.126   7.326  13.220  0.1327 -0.3833 -0.0306
  184DOPC   O1322575   6.066   7.192  13.212  1.0185 -0.3448 -0.6125
  184DOPC   O1422576   6.036   7.441  13.194 -0.0277  0.5177  0.4667
  184DOPC   O1222577   6.254   7.329  13.130 -0.1624  0.0185 -0.0330
  184DOPC   O1122578   6.203   7.337  13.357 -0.4603 -0.3059 -0.3317
  184DOPC    C122579   6.247   7.462  13.412 -0.2013 -0.3588  0.3240
  184DOPC    HA22580   6.253   7.540  13.333  0.9970  1.0961  1.7573
  184DOPC    HB22581   6.346   7.447  13.461 -0.2110  1.5056  1.0076
  184DOPC    C222582   6.151   7.509  13.523  0.4151  0.8873  0.1044
  184DOPC    HS22583   6.212   7.581  13.582  1.2807  0.3260 -0.0940
  184DOPC   O2122584   6.089   7.399  13.591 -0.3825  0.1705  0.4137
  184DOPC   C2122585   6.176   7.329  13.667  0.2517 -0.7302  0.2559
  184DOPC   O2222586   6.293   7.353  13.688 -0.0284 -0.1181  0.2991
  184DOPC   C2222587   6.117   7.199  13.718  0.2701  0.6359  0.0256
  184DOPC   H2R22588   6.199   7.124  13.719  1.6141  2.0203 -1.2052
  184DOPC   H2S22589   6.051   7.167  13.635  1.0516  1.4441 -0.9374
  184DOPC    C322590   6.030   7.592  13.466 -0.0156 -0.5526 -0.3662
  184DOPC    HX22591   5.978   7.528  13.392 -0.7576 -0.1044 -0.2469
  184DOPC    HY22592   6.077   7.674  13.407  1.4120 -0.6916  0.5217
  184DOPC   O3122593   5.952   7.651  13.575  0.4286 -0.0771  0.5448
  184DOPC   C3122594   5.824   7.628  13.576  0.4680  0.3792  0.3332
  184DOPC   O3222595   5.761   7.546  13.510  0.0496 -0.3994  0.1317
  184DOPC   C3222596   5.762   7.721  13.683  0.1898 -0.5106  0.0618
  184DOPC   H2X22597   5.797   7.680  13.780 -0.6952 -0.3625  0.4522
  184DOPC   H2Y22598   5.792   7.826  13.663 -1.0017 -0.4664 -1.7700
  184DOPC   C2322599   6.055   7.211  13.850  0.1615 -0.1316 -0.7395
  184DOPC   H3R22600   6.003   7.117  13.876 -0.1776 -0.0439 -1.0898
  184DOPC   H3S22601   5.978   7.291  13.850 -0.1764 -0.4292  0.8142
  184DOPC   C2422602   6.149   7.254  13.968  0.6334 -0.3935  0.4904
  184DOPC   H4R22603   6.198   7.347  13.933 -1.0816  1.1237  1.9351
  184DOPC   H4S22604   6.232   7.181  13.978  0.6782 -0.4441 -0.1848
  184DOPC   C2522605   6.069   7.282  14.097 -0.3395  1.0904 -0.5017
  184DOPC   H5R22606   6.035   7.184  14.137  0.9898  0.5297 -0.6898
  184DOPC   H5S22607   5.981   7.343  14.070 -1.5790 -0.4772 -0.1365
  184DOPC   C2622608   6.152   7.346  14.216 -0.2735 -0.2770 -0.6992
  184DOPC   H6R22609   6.202   7.441  14.185  1.5354 -0.5498  1.1360
  184DOPC   H6S22610   6.237   7.277  14.234  0.0916  0.5615  0.9704
  184DOPC   C2722611   6.068   7.361  14.344  0.2628 -0.4310 -0.0786
  184DOPC   H7R22612   6.037   7.255  14.361 -1.3612  0.0741  0.2543
  184DOPC   H7S22613   5.978   7.419  14.315 -1.4588 -4.2932 -3.4452
  184DOPC   C2822614   6.147   7.416  14.468 -0.3291  0.2815 -0.9850
  184DOPC   H8R22615   6.252   7.382  14.454  0.3026  1.2037  1.1451
  184DOPC   H8S22616   6.117   7.364  14.561  1.6356 -1.0938 -1.0569
  184DOPC   C2922617   6.135   7.565  14.465  0.4583 -0.3035 -0.5612
  184DOPC   H9R22618   6.201   7.620  14.396  2.2316 -1.4388  0.1561
  184DOPC  C21022619   6.034   7.626  14.536  0.0623 -0.4071 -0.3584
  184DOPC  H10R22620   6.026   7.736  14.535  3.6654  0.0521  2.4755
  184DOPC  C21122621   5.928   7.554  14.623  0.1945 -0.5142  0.1582
  184DOPC  H11R22622   5.961   7.560  14.729  0.8771 -0.6952 -0.0351
  184DOPC  H11S22623   5.934   7.447  14.596 -0.9695 -0.5865  0.1383
  184DOPC  C21222624   5.778   7.602  14.629  0.1616 -0.1430 -0.4591
  184DOPC  H12R22625   5.780   7.703  14.677 -0.6070  0.1853 -1.0975
  184DOPC  H12S22626   5.715   7.534  14.690 -0.3417  0.5783 -0.1574
  184DOPC  C21322627   5.714   7.601  14.491 -0.3330  1.2295  0.3369
  184DOPC  H13R22628   5.697   7.493  14.468  0.6887  1.6944 -3.1993
  184DOPC  H13S22629   5.785   7.632  14.411 -0.3042 -0.0597 -0.1589
  184DOPC  C21422630   5.596   7.692  14.476  0.1962  0.2413 -0.1305
  184DOPC  H14R22631   5.560   7.704  14.372  1.9912 -2.3987 -1.1569
  184DOPC  H14S22632   5.628   7.796  14.499 -2.1920  0.7327  1.3710
  184DOPC  C21522633   5.477   7.658  14.567 -1.3132  0.1560  0.1734
  184DOPC  H15R22634   5.502   7.656  14.675  1.5264 -1.3266 -0.4197
  184DOPC  H15S22635   5.453   7.553  14.540  0.2593 -0.2979  0.4467
  184DOPC  C21622636   5.347   7.742  14.546 -0.1711 -0.0445 -0.3141
  184DOPC  H16R22637   5.347   7.776  14.440  0.5253 -1.6638 -0.8592
  184DOPC  H16S22638   5.348   7.833  14.610  0.7854  0.2106 -0.6763
  184DOPC  C21722639   5.213   7.676  14.590 -0.1489  0.0479 -0.2032
  184DOPC  H17R22640   5.209   7.578  14.537 -0.0555  0.2128 -0.5179
  184DOPC  H17S22641   5.128   7.742  14.562 -0.3023 -0.5111 -1.0996
  184DOPC  C21822642   5.211   7.635  14.734  0.2080 -0.3972  0.2047
  184DOPC  H18R22643   5.279   7.555  14.772  0.0059 -0.6259  0.0901
  184DOPC  H18S22644   5.106   7.617  14.767 -0.0973  1.8629  0.5756
  184DOPC  H18T22645   5.241   7.723  14.795  0.1796 -0.1391 -0.1514
  184DOPC   C3322646   5.605   7.723  13.686  0.9937 -0.7054  0.0658
  184DOPC   H3X22647   5.568   7.619  13.673  0.9249 -0.4603 -2.0513
  184DOPC   H3Y22648   5.564   7.776  13.598 -0.3966  0.6927  1.4914
  184DOPC   C3422649   5.541   7.776  13.817 -0.3086  0.3074  0.3515
  184DOPC   H4X22650   5.565   7.882  13.837 -0.7367  0.9314 -2.1293
  184DOPC   H4Y22651   5.584   7.717  13.901 -2.2245 -0.1489  1.0835
  184DOPC   C3522652   5.386   7.760  13.830 -0.6871 -0.0694 -0.3315
  184DOPC   H5X22653   5.351   7.656  13.810 -2.4890  0.3282  0.5825
  184DOPC   H5Y22654   5.324   7.813  13.754 -1.7472  0.8072  1.0985
  184DOPC   C3622655   5.335   7.807  13.972 -0.1562 -0.1061  0.5480
  184DOPC   H6X22656   5.375   7.739  14.050 -0.0038 -0.6270  0.0208
  184DOPC   H6Y22657   5.372   7.911  13.984 -0.0061 -0.0050 -0.6785
  184DOPC   C3722658   5.183   7.797  13.988  1.0577 -0.0918 -0.6941
  184DOPC   H7X22659   5.134   7.861  13.911  0.5180  2.3867  1.5582
  184DOPC   H7Y22660   5.150   7.692  13.971  1.5834 -0.2145 -0.9859
  184DOPC   C3822661   5.134   7.830  14.129 -0.5961 -0.2215  0.7463
  184DOPC   H8X22662   5.154   7.938  14.142 -1.0858  0.3374 -2.3708
  184DOPC   H8Y22663   5.203   7.793  14.208  0.5953 -0.0909 -0.2216
  184DOPC   C3922664   4.991   7.811  14.157 -0.7567  0.6221 -0.0292
  184DOPC   H9X22665   4.976   7.702  14.160  0.2363  0.5103  1.5774
  184DOPC  C31022666   4.895   7.897  14.198  1.0315 -0.0957  0.0943
  184DOPC  H10X22667   4.799   7.853  14.228  0.5687  0.8914  0.0917
  184DOPC  C31122668   4.912   8.047  14.213  0.0926 -0.5754  0.2602
  184DOPC  H11X22669   4.813   8.093  14.237  0.1816 -0.6375  0.7426
  184DOPC  H11Y22670   4.960   8.085  14.120  1.8605 -2.3621  0.3918
  184DOPC  C31222671   4.997   8.073  14.338 -0.0276  0.4930 -0.2177
  184DOPC  H12X22672   5.010   8.181  14.362  2.4750  0.4886 -1.2520
  184DOPC  H12Y22673   5.098   8.029  14.326 -0.9834 -1.5403 -1.2210
  184DOPC  C31322674   4.955   8.005  14.470  1.7221 -0.2986  0.2802
  184DOPC  H13X22675   4.852   8.037  14.498  0.8211 -0.8028 -2.2641
  184DOPC  H13Y22676   4.938   7.897  14.451 -0.1263 -0.2507  1.3878
  184DOPC  C31422677   5.041   8.043  14.593  0.1997  0.0053 -0.3470
  184DOPC  H14X22678   5.147   8.016  14.577 -0.3578 -3.9292  1.5152
  184DOPC  H14Y22679   5.042   8.154  14.601  2.6159 -0.0187  0.4180
  184DOPC  C31522680   4.993   7.980  14.728 -0.5978  0.0585 -0.0033
  184DOPC  H15X22681   4.993   7.870  14.712 -0.1906  0.1999 -1.1075
  184DOPC  H15Y22682   4.887   8.014  14.735 -0.2818  1.7802 -2.2470
  184DOPC  C31622683   5.073   8.026  14.846 -0.2211 -0.5343 -0.4886
  184DOPC  H16X22684   5.175   7.983  14.845  1.6829  3.4259  0.6256
  184DOPC  H16Y22685   5.081   8.137  14.843  1.4414 -0.6398 -1.0369
  184DOPC  C31722686   4.998   8.005  14.981 -0.2702  0.0119 -0.3398
  184DOPC  H17X22687   4.899   8.054  14.973 -0.9358 -1.1638  0.3268
  184DOPC  H17Y22688   4.969   7.899  14.999  2.0835 -0.5247  0.7314
  184DOPC  C31822689   5.061   8.057  15.103 -0.5676  0.2383 -0.1351
  184DOPC  H18X22690   5.084   8.166  15.095  1.0478 -0.1302 -0.8308
  184DOPC  H18Y22691   5.010   8.037  15.200  2.5652 -2.5974  1.1083
  184DOPC  H18Z22692   5.153   8.003  15.133 -0.5416 -0.3813 -1.2671
  185DOPC     N22693   7.138   4.809  12.607 -0.1320  0.6087  0.1077
  185DOPC   C1222694   7.173   4.685  12.681 -0.6885 -0.1652  0.0284
  185DOPC  H12A22695   7.268   4.652  12.643  0.6824  3.0636  0.3320
  185DOPC  H12B22696   7.101   4.607  12.662  0.1678 -1.1512  0.7277
  185DOPC   C1322697   7.234   4.924  12.623  0.7368  0.0706  0.2803
  185DOPC  H13A22698   7.333   4.897  12.590  0.3720  0.6699 -1.3847
  185DOPC  H13B22699   7.202   5.008  12.564  0.0546 -0.7406 -0.5355
  185DOPC  H13C22700   7.249   4.951  12.727  0.4887  1.5370 -0.0551
  185DOPC   C1422701   6.999   4.861  12.645 -0.0058  0.2584 -0.2268
  185DOPC  H14A22702   6.921   4.794  12.609 -1.7717  1.1003  1.8066
  185DOPC  H14B22703   6.982   4.875  12.750 -0.2254  1.4479 -0.4078
  185DOPC  H14C22704   6.983   4.955  12.594  1.0781  0.9743  0.7102
  185DOPC   C1522705   7.136   4.776  12.460  0.5872 -0.5603  0.3481
  185DOPC  H15A22706   7.231   4.737  12.427  1.4031  1.9532 -0.5449
  185DOPC  H15B22707   7.112   4.857  12.392  2.2057 -1.2140 -1.0841
  185DOPC  H15C22708   7.068   4.697  12.432  2.4569 -1.4623 -1.9493
  185DOPC   C1122709   7.190   4.693  12.840  0.2864  0.2367  0.4552
  185DOPC  H11A22710   7.235   4.599  12.879 -2.7003 -2.5483 -2.1436
  185DOPC  H11B22711   7.263   4.774  12.861  0.5035  0.6674 -1.7509
  185DOPC     P22712   6.982   4.602  12.979 -0.1513  0.0365  0.5469
  185DOPC   O1322713   6.991   4.472  12.903 -0.0828 -0.2694 -0.5531
  185DOPC   O1422714   6.845   4.650  12.992 -0.2954  0.3597  0.1929
  185DOPC   O1222715   7.068   4.720  12.902 -0.5747 -0.6106  0.2977
  185DOPC   O1122716   7.061   4.598  13.111  0.3972 -0.3401 -0.1206
  185DOPC    C122717   7.088   4.722  13.182  0.6193 -0.2441  0.2242
  185DOPC    HA22718   7.023   4.810  13.164 -1.8141 -1.4111  2.6799
  185DOPC    HB22719   7.194   4.745  13.159  0.9381 -1.9925 -0.1942
  185DOPC    C222720   7.084   4.700  13.335  0.3724  0.5515  0.2389
  185DOPC    HS22721   7.095   4.797  13.387 -0.5382  0.1631  1.1794
  185DOPC   O2122722   7.185   4.602  13.370  0.0560 -0.1303  0.5635
  185DOPC   C2122723   7.265   4.620  13.475  0.5367 -0.5698 -0.8606
  185DOPC   O2222724   7.269   4.729  13.531 -0.2607  0.0228 -0.6889
  185DOPC   C2222725   7.329   4.487  13.510  0.1315  0.0062 -0.2009
  185DOPC   H2R22726   7.413   4.478  13.438 -0.4691  0.4099 -0.9681
  185DOPC   H2S22727   7.254   4.409  13.490  2.2282 -1.9117 -1.0608
  185DOPC    C322728   6.947   4.637  13.377  1.2064  0.9179 -0.7479
  185DOPC    HX22729   6.939   4.540  13.323 -0.7653  0.5336  0.1388
  185DOPC    HY22730   6.866   4.702  13.337 -3.4140 -1.2195  3.9537
  185DOPC   O3122731   6.928   4.638  13.525  0.3149  0.0721  0.1896
  185DOPC   C3122732   6.905   4.763  13.579 -0.8396 -0.1110  0.0271
  185DOPC   O3222733   6.898   4.870  13.520  0.5554  0.1584 -0.2232
  185DOPC   C3222734   6.870   4.747  13.717  0.6080  0.3211  0.1711
  185DOPC   H2X22735   6.774   4.800  13.736  1.1678  1.9636 -1.3040
  185DOPC   H2Y22736   6.856   4.639  13.736  2.7277  0.3178  2.1808
  185DOPC   C2322737   7.382   4.474  13.659  0.5203 -0.0433  0.1243
  185DOPC   H3R22738   7.461   4.551  13.678 -1.8660  2.5621  0.0804
  185DOPC   H3S22739   7.428   4.373  13.670 -0.2240 -0.3096  0.9172
  185DOPC   C2422740   7.270   4.475  13.763  0.1883  0.3782  0.9220
  185DOPC   H4R22741   7.218   4.377  13.762  1.6398 -0.4307 -0.2279
  185DOPC   H4S22742   7.197   4.555  13.738  1.1800  1.5791  1.7375
  185DOPC   C2522743   7.323   4.494  13.906 -1.1795 -0.6817  0.0073
  185DOPC   H5R22744   7.373   4.592  13.911  0.8131 -1.6910  0.8099
  185DOPC   H5S22745   7.405   4.420  13.916 -0.5988  0.2005  2.5365
  185DOPC   C2622746   7.220   4.487  14.014 -0.0695 -0.1995 -0.6023
  185DOPC   H6R22747   7.164   4.391  14.008 -0.2006 -0.1958  0.3451
  185DOPC   H6S22748   7.141   4.562  13.990 -0.4576 -0.5492 -0.4301
  185DOPC   C2722749   7.272   4.519  14.151  0.0955 -0.5297  0.4954
  185DOPC   H7R22750   7.323   4.618  14.142 -0.6061 -0.2832 -1.1343
  185DOPC   H7S22751   7.340   4.442  14.193  1.2703  0.9417  1.4216
  185DOPC   C2822752   7.149   4.551  14.244 -0.3746 -0.0395  0.1245
  185DOPC   H8R22753   7.091   4.461  14.273  2.2154 -1.7726  0.1922
  185DOPC   H8S22754   7.084   4.625  14.192 -0.1093  0.4928  0.5266
  185DOPC   C2922755   7.205   4.611  14.370 -0.4069 -0.1548  0.2297
  185DOPC   H9R22756   7.261   4.538  14.431 -1.2293 -0.5827  0.4863
  185DOPC  C21022757   7.228   4.742  14.400 -0.1021  0.3710 -1.1095
  185DOPC  H10R22758   7.285   4.783  14.485 -0.5755  0.5236 -0.8600
  185DOPC  C21122759   7.181   4.856  14.316 -0.4536 -0.5395 -0.5566
  185DOPC  H11R22760   7.161   4.830  14.210 -1.6361  4.3342 -1.7913
  185DOPC  H11S22761   7.253   4.940  14.309  0.3504 -1.2649 -1.0472
  185DOPC  C21222762   7.046   4.906  14.380 -0.1568  0.3822  0.6865
  185DOPC  H12R22763   6.973   4.823  14.378 -0.1985  0.3981 -1.5989
  185DOPC  H12S22764   7.009   4.985  14.310  0.1454  0.8642  1.0642
  185DOPC  C21322765   7.069   4.970  14.518  0.9329  0.2814 -0.4748
  185DOPC  H13R22766   7.121   5.066  14.501 -1.4013  1.7084 -0.0147
  185DOPC  H13S22767   7.129   4.910  14.590  0.0997  0.8107  0.6887
  185DOPC  C21422768   6.928   5.000  14.575  0.4249  0.1349 -0.2715
  185DOPC  H14R22769   6.867   4.909  14.558  3.7366 -2.3738  0.2468
  185DOPC  H14S22770   6.876   5.080  14.519 -0.0454  1.2532  1.6589
  185DOPC  C21522771   6.928   5.043  14.726  0.3573  0.4849  0.5467
  185DOPC  H15R22772   6.975   5.143  14.735  1.3282  0.4045 -2.5834
  185DOPC  H15S22773   6.985   4.986  14.802 -0.5113  1.1192  1.7157
  185DOPC  C21622774   6.778   5.051  14.776 -1.2237  0.7024 -0.1165
  185DOPC  H16R22775   6.723   4.969  14.725 -1.5567  0.2657  0.9175
  185DOPC  H16S22776   6.727   5.145  14.744 -0.7532  0.6761 -0.9826
  185DOPC  C21722777   6.781   5.037  14.929 -0.1785 -0.2433  0.7373
  185DOPC  H17R22778   6.844   5.116  14.977 -1.1785  0.5622  0.7605
  185DOPC  H17S22779   6.836   4.941  14.942 -0.2897 -0.4274 -0.0778
  185DOPC  C21822780   6.646   5.035  14.993  1.3156  0.8517  0.2521
  185DOPC  H18R22781   6.577   5.110  14.950  0.0739 -0.4675 -0.1674
  185DOPC  H18S22782   6.654   5.041  15.104 -0.8068  0.3165  0.4703
  185DOPC  H18T22783   6.605   4.931  14.986  0.2777  1.2069  0.8073
  185DOPC   C3322784   6.981   4.796  13.815  0.2446  0.3470  0.1584
  185DOPC   H3X22785   7.075   4.746  13.782  0.1671  0.3563 -0.0768
  185DOPC   H3Y22786   6.955   4.746  13.910 -0.8086  1.4998  0.4932
  185DOPC   C3422787   6.993   4.949  13.820  0.0472 -0.2808  0.1945
  185DOPC   H4X22788   6.891   4.990  13.830  0.8553  1.3555  3.0165
  185DOPC   H4Y22789   7.041   4.980  13.724 -2.9719 -0.5691 -1.5340
  185DOPC   C3522790   7.088   5.007  13.930  0.1753 -0.1741 -0.7669
  185DOPC   H5X22791   7.041   4.991  14.029  2.4172 -1.1247  0.2298
  185DOPC   H5Y22792   7.093   5.117  13.914 -2.4263  0.1701  0.2922
  185DOPC   C3622793   7.231   4.947  13.933 -0.5736  0.4476 -0.1622
  185DOPC   H6X22794   7.280   4.990  14.023  0.9186 -1.3953 -0.0106
  185DOPC   H6Y22795   7.223   4.839  13.961  1.4215  0.3260  0.0506
  185DOPC   C3722796   7.324   4.977  13.816 -0.6670  0.2127 -0.2739
  185DOPC   H7X22797   7.271   4.918  13.738 -3.4681 -0.7694  2.1585
  185DOPC   H7Y22798   7.304   5.082  13.785 -1.0866 -0.4519 -2.3704
  185DOPC   C3822799   7.475   4.951  13.821 -0.7675 -0.0973  0.7245
  185DOPC   H8X22800   7.520   4.980  13.724 -1.4838 -1.3246  0.0011
  185DOPC   H8Y22801   7.492   4.842  13.831 -0.8526 -0.3267 -1.1935
  185DOPC   C3922802   7.535   5.033  13.930 -0.5410 -0.4197 -0.7531
  185DOPC   H9X22803   7.526   5.142  13.920  0.5042 -0.1525  0.7492
  185DOPC  C31022804   7.587   4.985  14.047 -0.0972 -0.6474  0.1340
  185DOPC  H10X22805   7.621   5.051  14.129  2.0297 -2.2404  0.6024
  185DOPC  C31122806   7.568   4.849  14.091  0.3724 -0.0435 -0.4627
  185DOPC  H11X22807   7.622   4.785  14.018  1.3070 -1.3492  1.2951
  185DOPC  H11Y22808   7.461   4.821  14.085  0.3909 -0.5102  0.9524
  185DOPC  C31222809   7.615   4.822  14.233 -0.0420 -0.1548  0.7962
  185DOPC  H12X22810   7.617   4.712  14.251  0.9195 -0.3458 -0.3816
  185DOPC  H12Y22811   7.547   4.869  14.307  0.4256 -0.5927  1.5223
  185DOPC  C31322812   7.759   4.869  14.258 -0.0049 -0.3577 -0.3139
  185DOPC  H13X22813   7.825   4.827  14.179 -1.1923  1.7352 -2.5512
  185DOPC  H13Y22814   7.769   4.979  14.256 -1.7079 -0.1687 -2.7146
  185DOPC  C31422815   7.811   4.813  14.387  0.0015 -0.2181  0.1115
  185DOPC  H14X22816   7.729   4.809  14.462 -1.2401 -1.4248 -1.2525
  185DOPC  H14Y22817   7.835   4.705  14.379 -0.4814 -0.3388  0.2451
  185DOPC  C31522818   7.944   4.879  14.437  0.1960 -0.0552  0.2857
  185DOPC  H15X22819   7.929   4.989  14.435 -0.6405 -0.1631  0.1285
  185DOPC  H15Y22820   8.020   4.860  14.358 -1.1812  0.9821 -1.3739
  185DOPC  C31622821   7.990   4.837  14.579  0.9244 -0.3079  0.2540
  185DOPC  H16X22822   7.909   4.835  14.655 -0.1599  1.4084 -0.7909
  185DOPC  H16Y22823   8.040   4.738  14.585  1.1836 -0.1491  0.7543
  185DOPC  C31722824   8.090   4.934  14.631 -0.2469  0.3012  0.0739
  185DOPC  H17X22825   8.173   4.935  14.556  2.3626  1.3132  2.7820
  185DOPC  H17Y22826   8.041   5.033  14.640  0.4774  0.9311 -2.0944
  185DOPC  C31822827   8.149   4.907  14.766 -0.0750 -0.6284  0.4296
  185DOPC  H18X22828   8.219   4.990  14.790  2.0648 -2.0629 -0.4893
  185DOPC  H18Y22829   8.071   4.915  14.845 -0.2213  0.0162  0.2237
  185DOPC  H18Z22830   8.190   4.804  14.780 -1.5836 -1.4124 -0.6928
  186DOPC     N22831   1.157   1.578  12.451  0.3885 -0.4351  0.7564
  186DOPC   C1222832   1.049   1.637  12.543  0.7604  0.4579  0.2235
  186DOPC  H12A22833   1.078   1.612  12.644 -1.4327  1.6263  1.2136
  186DOPC  H12B22834   0.953   1.591  12.526  0.3031  1.6527 -0.5960
  186DOPC   C1322835   1.288   1.632  12.494 -0.0804 -0.0325 -0.1006
  186DOPC  H13A22836   1.374   1.614  12.431  0.2365  3.7477 -1.0033
  186DOPC  H13B22837   1.276   1.739  12.485  1.4891  0.2750  0.9353
  186DOPC  H13C22838   1.317   1.608  12.595 -0.3766  2.9905  0.7940
  186DOPC   C1422839   1.127   1.605  12.312 -0.1182  0.5397 -0.0682
  186DOPC  H14A22840   1.194   1.546  12.251 -0.0884  0.2708  0.2267
  186DOPC  H14B22841   1.028   1.566  12.291 -0.1052  0.6152 -0.2722
  186DOPC  H14C22842   1.144   1.707  12.281 -1.0064  0.6686 -0.1707
  186DOPC   C1522843   1.159   1.431  12.473  0.3423  0.4243 -0.2709
  186DOPC  H15A22844   1.063   1.385  12.488 -0.7525  3.0242  1.3638
  186DOPC  H15B22845   1.210   1.409  12.566  2.0337  1.5746 -0.8859
  186DOPC  H15C22846   1.228   1.371  12.416  0.0348 -0.2584  0.0591
  186DOPC   C1122847   1.036   1.791  12.533 -0.2303 -0.7449 -0.6196
  186DOPC  H11A22848   1.017   1.826  12.430 -0.1399  0.6173 -0.1946
  186DOPC  H11B22849   0.944   1.821  12.587 -0.6227 -1.0797 -1.0947
  186DOPC     P22850   1.184   1.848  12.734  0.0381 -0.3088  0.1697
  186DOPC   O1322851   1.329   1.876  12.752  0.2095 -0.2942  0.1653
  186DOPC   O1422852   1.137   1.725  12.806  0.9261  0.2987  0.0250
  186DOPC   O1222853   1.155   1.851  12.579  0.1957  0.0503 -0.0309
  186DOPC   O1122854   1.105   1.973  12.793  0.5314 -0.0222 -0.1184
  186DOPC    C122855   1.150   2.059  12.899  0.3561 -0.1278  0.3003
  186DOPC    HA22856   1.084   2.144  12.926  0.6432  0.9653 -2.1806
  186DOPC    HB22857   1.251   2.095  12.871  1.1131 -1.9331  0.5494
  186DOPC    C222858   1.186   1.985  13.028 -0.5781  0.2201 -1.0629
  186DOPC    HS22859   1.271   1.916  13.008 -0.0499  0.6553 -0.3851
  186DOPC   O2122860   1.068   1.913  13.069  0.1713  0.1125 -0.1539
  186DOPC   C2122861   1.092   1.791  13.124 -0.2611 -0.2590 -0.0887
  186DOPC   O2222862   1.201   1.739  13.125 -0.1647  0.1541 -0.1231
  186DOPC   C2222863   0.971   1.740  13.202 -0.7135  0.7197  0.8742
  186DOPC   H2R22864   0.997   1.633  13.218 -1.4486 -0.2411 -3.1236
  186DOPC   H2S22865   0.877   1.741  13.142 -1.5262 -0.8476  2.0822
  186DOPC    C322866   1.238   2.074  13.144  0.4107 -0.0850  0.2131
  186DOPC    HX22867   1.152   2.140  13.169  1.4316  1.5486 -0.4640
  186DOPC    HY22868   1.309   2.148  13.102 -1.8120  0.7207 -2.3960
  186DOPC   O3122869   1.275   2.017  13.270 -0.0567  0.1292 -0.1857
  186DOPC   C3122870   1.398   1.970  13.291  0.4507 -0.4174  0.3511
  186DOPC   O3222871   1.487   1.971  13.207  0.6257 -0.2280  0.1831
  186DOPC   C3222872   1.396   1.896  13.433 -0.0713  0.8740 -1.3720
  186DOPC   H2X22873   1.322   1.943  13.502 -0.4325 -1.0048 -0.4105
  186DOPC   H2Y22874   1.369   1.791  13.408 -1.8880  1.5348 -2.4089
  186DOPC   C2322875   0.949   1.809  13.341  0.1561 -0.0963 -0.3704
  186DOPC   H3R22876   0.839   1.805  13.352  0.0399 -2.1094 -1.6605
  186DOPC   H3S22877   0.978   1.916  13.349 -1.2210  0.1891  1.3895
  186DOPC   C2422878   1.019   1.747  13.458 -0.0085 -0.0719 -0.5712
  186DOPC   H4R22879   1.130   1.751  13.449 -0.0053 -1.3744 -1.4291
  186DOPC   H4S22880   0.991   1.639  13.462  0.4030 -0.1595  0.0759
  186DOPC   C2522881   0.967   1.803  13.591  0.0801  0.3879 -0.3258
  186DOPC   H5R22882   0.859   1.777  13.588 -0.3938  2.2096 -0.7905
  186DOPC   H5S22883   0.980   1.914  13.583 -0.0414  0.7559  3.1157
  186DOPC   C2622884   1.033   1.753  13.719 -0.0263 -1.4807 -0.3349
  186DOPC   H6R22885   1.139   1.785  13.726 -0.4796  0.2138 -0.8340
  186DOPC   H6S22886   1.026   1.642  13.723 -2.0617 -1.3619  0.4257
  186DOPC   C2722887   0.965   1.807  13.843  0.5892  0.3761 -0.2186
  186DOPC   H7R22888   0.867   1.754  13.846  0.7665  0.0511 -0.1812
  186DOPC   H7S22889   0.954   1.917  13.829  1.5348  0.6800  1.2312
  186DOPC   C2822890   1.045   1.799  13.978  0.4205  0.4154  1.0439
  186DOPC   H8R22891   1.119   1.880  13.960 -0.7038  1.4861  1.0736
  186DOPC   H8S22892   1.106   1.707  13.970 -0.2477 -0.0381  1.0507
  186DOPC   C2922893   0.947   1.798  14.098 -0.0853  0.1336 -0.2863
  186DOPC   H9R22894   0.864   1.727  14.085  0.6228 -0.4320 -2.1732
  186DOPC  C21022895   0.953   1.870  14.206 -0.4533  0.2613 -0.1024
  186DOPC  H10R22896   0.885   1.843  14.288 -0.4027  2.4963  0.7538
  186DOPC  C21122897   1.053   1.972  14.252 -0.5878 -0.0447 -0.2931
  186DOPC  H11R22898   0.994   2.055  14.297 -1.4491 -0.8401  0.0570
  186DOPC  H11S22899   1.098   2.004  14.155  0.1524  0.1236  0.1002
  186DOPC  C21222900   1.144   1.926  14.362 -0.0591 -0.4018  0.4230
  186DOPC  H12R22901   1.216   2.008  14.381 -3.2463  2.6260  0.4528
  186DOPC  H12S22902   1.201   1.832  14.341 -2.0218 -1.7846  0.9987
  186DOPC  C21322903   1.066   1.911  14.496  0.1003  0.0276 -0.5477
  186DOPC  H13R22904   0.980   1.842  14.509  0.0809  0.6080  3.6412
  186DOPC  H13S22905   1.040   2.015  14.525  0.5042 -0.0137 -0.0197
  186DOPC  C21422906   1.175   1.869  14.597  0.8982  0.1133  0.2864
  186DOPC  H14R22907   1.266   1.930  14.579  0.6568  0.3004 -0.3100
  186DOPC  H14S22908   1.209   1.767  14.570 -1.9176 -0.5516 -1.0892
  186DOPC  C21522909   1.128   1.870  14.737 -0.4121  0.0986 -0.3430
  186DOPC  H15R22910   1.076   1.774  14.758 -0.6787  0.4084  0.4727
  186DOPC  H15S22911   1.055   1.954  14.749 -1.4362 -0.6781 -0.9265
  186DOPC  C21622912   1.238   1.882  14.837 -0.0425  0.0212 -0.6510
  186DOPC  H16R22913   1.280   1.984  14.823 -1.2942  1.0140  2.0240
  186DOPC  H16S22914   1.318   1.805  14.824  3.2402  2.8909  0.9035
  186DOPC  C21722915   1.192   1.872  14.981 -0.5374  0.5721 -0.0214
  186DOPC  H17R22916   1.283   1.905  15.035 -0.0457 -1.5133  0.5013
  186DOPC  H17S22917   1.168   1.768  15.009  1.4165  0.4742  1.4536
  186DOPC  C21822918   1.084   1.962  15.026  0.3750  0.2629 -0.5599
  186DOPC  H18R22919   1.071   1.967  15.136 -1.7231  0.3626 -0.7633
  186DOPC  H18S22920   0.985   1.920  14.997  0.8108  0.7350 -2.9837
  186DOPC  H18T22921   1.079   2.062  14.979 -0.4323 -0.0247 -1.1210
  186DOPC   C3322922   1.529   1.887  13.507  0.1204 -0.0651 -0.2958
  186DOPC   H3X22923   1.580   1.985  13.520 -0.0729  0.0736 -0.5835
  186DOPC   H3Y22924   1.599   1.833  13.440  1.1131  0.6355  0.1415
  186DOPC   C3422925   1.516   1.826  13.648  0.4073  0.2808  0.1901
  186DOPC   H4X22926   1.612   1.772  13.660 -0.9439 -2.6137 -0.9339
  186DOPC   H4Y22927   1.444   1.741  13.655  1.9280 -1.2614 -1.5135
  186DOPC   C3522928   1.511   1.934  13.756  0.0682  0.2657 -0.4040
  186DOPC   H5X22929   1.432   2.008  13.731  0.6238  1.2823  0.7557
  186DOPC   H5Y22930   1.608   1.988  13.760  0.2400 -0.0452 -0.4002
  186DOPC   C3622931   1.484   1.874  13.896  0.4346  0.2523 -0.5244
  186DOPC   H6X22932   1.383   1.830  13.907  0.4561  0.1697 -0.6628
  186DOPC   H6Y22933   1.554   1.788  13.905  0.5490  0.4573  0.8005
  186DOPC   C3722934   1.484   1.977  14.017 -0.0560 -0.8992 -0.1154
  186DOPC   H7X22935   1.563   2.054  14.003 -0.4715 -0.0709  1.7839
  186DOPC   H7Y22936   1.389   2.034  14.001  0.7509  1.0474  1.5359
  186DOPC   C3822937   1.499   1.914  14.155  0.4070  0.5318 -0.4334
  186DOPC   H8X22938   1.582   1.840  14.156 -1.0095 -1.1619 -1.7046
  186DOPC   H8Y22939   1.410   1.852  14.178  1.2485  0.0787  1.9722
  186DOPC   C3922940   1.513   2.027  14.250 -0.1043 -0.0524  0.1492
  186DOPC   H9X22941   1.436   2.105  14.248 -1.2225 -1.1200 -2.3340
  186DOPC  C31022942   1.617   2.042  14.339 -0.2749  0.3188  0.9358
  186DOPC  H10X22943   1.627   2.136  14.395 -0.1503  0.7330  0.2322
  186DOPC  C31122944   1.732   1.944  14.373  0.8421 -1.0857 -0.3937
  186DOPC  H11X22945   1.829   1.959  14.322  1.4641  1.0500  1.2725
  186DOPC  H11Y22946   1.707   1.840  14.343  2.5888 -1.2536 -1.3708
  186DOPC  C31222947   1.749   1.944  14.525  0.2627 -0.4265  0.3624
  186DOPC  H12X22948   1.650   1.912  14.565 -1.1454  1.1299 -1.7234
  186DOPC  H12Y22949   1.781   2.046  14.553  2.4933 -0.6134 -1.2148
  186DOPC  C31322950   1.851   1.844  14.571  0.6103  0.3131 -0.4027
  186DOPC  H13X22951   1.826   1.746  14.526  0.4547  1.2348 -2.4339
  186DOPC  H13Y22952   1.951   1.875  14.534  0.8859  0.4260  0.4149
  186DOPC  C31422953   1.861   1.840  14.725 -0.1789 -0.2337 -0.5101
  186DOPC  H14X22954   1.938   1.763  14.746 -0.2233  0.3901  2.4519
  186DOPC  H14Y22955   1.911   1.935  14.751  0.9676 -1.9363  4.8240
  186DOPC  C31522956   1.734   1.803  14.802  0.5733 -0.6594  0.2551
  186DOPC  H15X22957   1.759   1.739  14.890 -1.0006 -1.8393 -0.1243
  186DOPC  H15Y22958   1.656   1.749  14.744  0.0575  0.3096  0.0318
  186DOPC  C31622959   1.659   1.925  14.851  0.3540 -0.0309  0.0496
  186DOPC  H16X22960   1.650   2.002  14.772 -1.0318  0.9158  1.0770
  186DOPC  H16Y22961   1.551   1.904  14.867  0.2181  1.0664  0.6847
  186DOPC  C31722962   1.706   1.975  14.983 -0.5679 -0.7390  0.2942
  186DOPC  H17X22963   1.687   1.910  15.072 -1.7204 -0.3871  0.3275
  186DOPC  H17Y22964   1.816   1.990  14.980 -0.8555  2.2034  1.0624
  186DOPC  C31822965   1.629   2.105  15.026  0.5380  0.4912  0.5016
  186DOPC  H18X22966   1.644   2.133  15.132  1.7510  0.7507  0.2752
  186DOPC  H18Y22967   1.664   2.191  14.965 -0.4335  0.5461  0.0054
  186DOPC  H18Z22968   1.521   2.085  15.010  0.5892  1.5649 -1.5101
  187DOPC     N22969   6.892   0.084  12.663  0.8427 -0.7257  0.2388
  187DOPC   C1222970   6.768   0.104  12.750  0.0054  0.2495 -0.3390
  187DOPC  H12A22971   6.680   0.116  12.688 -0.6474 -1.0517  0.2780
  187DOPC  H12B22972   6.777   0.199  12.801  0.7890 -0.9854  1.9786
  187DOPC   C1322973   6.926   0.197  12.574  0.2709  0.5557  0.1323
  187DOPC  H13A22974   7.023   0.192  12.527 -0.1370  0.3090 -0.6916
  187DOPC  H13B22975   6.853   0.217  12.497  1.2380 -0.4170 -1.0896
  187DOPC  H13C22976   6.933   0.290  12.630 -1.6055  0.3908  0.6866
  187DOPC   C1422977   6.864  -0.035  12.568 -0.5441  0.0022  0.2544
  187DOPC  H14A22978   6.788  -0.010  12.496  1.0564  0.4134 -1.3488
  187DOPC  H14B22979   6.946  -0.066  12.505 -1.6725 -1.3652 -0.6137
  187DOPC  H14C22980   6.827  -0.118  12.627 -2.3527  1.2686  0.9973
  187DOPC   C1522981   7.007   0.060  12.754  0.8448 -0.0471  0.4872
  187DOPC  H15A22982   7.098   0.054  12.696  0.0443  1.6201 -1.0392
  187DOPC  H15B22983   6.990  -0.034  12.804 -1.2944  0.4564  0.8384
  187DOPC  H15C22984   7.020   0.141  12.824 -0.8228  1.4908 -0.8948
  187DOPC   C1122985   6.740  -0.006  12.862  0.5484  0.2465 -0.1820
  187DOPC  H11A22986   6.826   0.001  12.932 -0.6633 -0.6534  1.4785
  187DOPC  H11B22987   6.645   0.008  12.917  0.9880  0.6686  0.4794
  187DOPC     P22988   6.813  -0.256  12.862 -0.0592 -0.5141 -0.2347
  187DOPC   O1322989   6.949  -0.234  12.809  0.3015  0.6671 -0.1719
  187DOPC   O1422990   6.752  -0.382  12.816  0.2385  0.3161  0.6667
  187DOPC   O1222991   6.721  -0.136  12.809 -0.2997  0.2661 -0.0531
  187DOPC   O1122992   6.815  -0.248  13.026  0.1259  0.0647  0.3963
  187DOPC    C122993   6.700  -0.255  13.104  0.8367  0.3689  0.5606
  187DOPC    HA22994   6.637  -0.341  13.074 -0.8587  2.1220 -1.1544
  187DOPC    HB22995   6.629  -0.170  13.102 -0.1422 -0.4656 -0.7104
  187DOPC    C222996   6.736  -0.282  13.254 -0.2712 -0.5918  0.5276
  187DOPC    HS22997   6.641  -0.299  13.309  0.1499  0.4306  1.6229
  187DOPC   O2122998   6.810  -0.167  13.305 -0.5061 -0.1266 -1.0382
  187DOPC   C2122999   6.738  -0.067  13.353  0.5089 -0.5435 -0.3368
  187DOPC   O2223000   6.619  -0.040  13.326  0.5888  1.1743  0.2048
  187DOPC   C2223001   6.826   0.036  13.433  0.4062 -0.1399 -0.0282
  187DOPC   H2R23002   6.842   0.121  13.362 -0.7846 -0.9423 -1.3123
  187DOPC   H2S23003   6.926  -0.011  13.441 -0.4866 -2.0020  0.6534
  187DOPC    C323004   6.821  -0.415  13.263  0.2879 -0.4758 -0.0064
  187DOPC    HX23005   6.927  -0.388  13.243  0.6993 -1.6108  0.5412
  187DOPC    HY23006   6.789  -0.489  13.187  1.8467  1.3117 -2.5519
  187DOPC   O3123007   6.803  -0.465  13.395 -0.1815  0.5722 -0.1992
  187DOPC   C3123008   6.896  -0.429  13.480 -0.4353  0.0124 -0.2458
  187DOPC   O3223009   6.979  -0.340  13.465  0.6516 -0.3495  0.1382
  187DOPC   C3223010   6.869  -0.496  13.609  0.3224  0.2768  0.4594
  187DOPC   H2X23011   6.776  -0.461  13.659 -0.4624 -0.6888 -0.2794
  187DOPC   H2Y23012   6.864  -0.605  13.586 -0.6217  0.6420 -1.2744
  187DOPC   C2323013   6.760   0.076  13.568  0.5586 -0.4812  0.3349
  187DOPC   H3R23014   6.667   0.128  13.537  0.8852  0.2012  0.4899
  187DOPC   H3S23015   6.820   0.156  13.616 -0.9477  0.8192  0.1324
  187DOPC   C2423016   6.712  -0.046  13.644  0.0978  0.2592 -0.2473
  187DOPC   H4R23017   6.803  -0.109  13.654 -0.0008  0.2217  0.4963
  187DOPC   H4S23018   6.631  -0.104  13.595 -0.2208  0.8530 -0.4348
  187DOPC   C2523019   6.687  -0.002  13.788  0.2251  0.4778  1.1470
  187DOPC   H5R23020   6.628   0.092  13.789  0.8703  0.9495 -0.6739
  187DOPC   H5S23021   6.777   0.027  13.845  0.3301  1.0397  0.7105
  187DOPC   C2623022   6.605  -0.112  13.861  0.0901  0.2490 -0.0752
  187DOPC   H6R23023   6.670  -0.201  13.872 -0.2181  0.3670  4.8900
  187DOPC   H6S23024   6.525  -0.155  13.797  1.1096 -1.4283 -0.2752
  187DOPC   C2723025   6.560  -0.092  14.003  0.4948  0.1189 -0.3220
  187DOPC   H7R23026   6.524   0.013  14.009 -0.8103 -0.3056 -0.2925
  187DOPC   H7S23027   6.641  -0.110  14.076  1.1015  0.9324 -0.7870
  187DOPC   C2823028   6.436  -0.183  14.034  0.0459  0.2481 -0.2498
  187DOPC   H8R23029   6.363  -0.182  13.950 -0.1669 -0.6607 -0.0881
  187DOPC   H8S23030   6.391  -0.143  14.127 -0.0975 -1.5464  0.4835
  187DOPC   C2923031   6.481  -0.328  14.049 -0.4096 -0.3927 -0.0081
  187DOPC   H9R23032   6.469  -0.384  13.955 -1.9810 -0.6250  0.3083
  187DOPC  C21023033   6.516  -0.383  14.170  0.0436  0.5635 -0.3972
  187DOPC  H10R23034   6.551  -0.486  14.152  0.3570  0.9395 -2.1789
  187DOPC  C21123035   6.531  -0.323  14.310 -0.5013  0.3962  0.5589
  187DOPC  H11R23036   6.482  -0.390  14.384  0.2774 -3.2035 -1.9203
  187DOPC  H11S23037   6.480  -0.224  14.301  0.6820  1.0788  1.1394
  187DOPC  C21223038   6.678  -0.317  14.364  0.2811  0.0298  0.5859
  187DOPC  H12R23039   6.743  -0.258  14.295  0.1795 -2.2855 -1.6241
  187DOPC  H12S23040   6.735  -0.412  14.371 -0.3915 -0.3036  1.7688
  187DOPC  C21323041   6.686  -0.246  14.505 -1.2438  0.3351  0.3998
  187DOPC  H13R23042   6.660  -0.321  14.582  1.3710 -2.4708 -1.2038
  187DOPC  H13S23043   6.616  -0.160  14.502 -2.4313 -0.6088  0.2290
  187DOPC  C21423044   6.826  -0.196  14.535  0.4580 -1.1314 -0.1380
  187DOPC  H14R23045   6.862  -0.136  14.449  2.3497  0.7953  1.8673
  187DOPC  H14S23046   6.897  -0.279  14.552  2.0018  0.3160  0.8248
  187DOPC  C21523047   6.826  -0.092  14.655 -0.1361 -0.1555  0.6265
  187DOPC  H15R23048   6.774  -0.121  14.749 -1.2984  1.0594  0.3917
  187DOPC  H15S23049   6.769  -0.006  14.614 -0.2075 -0.5795 -0.1743
  187DOPC  C21623050   6.968  -0.052  14.683 -0.2063 -0.0050 -0.4525
  187DOPC  H16R23051   7.017  -0.007  14.594  0.9092 -0.9619 -0.3450
  187DOPC  H16S23052   7.022  -0.142  14.718  0.0604 -0.0341 -0.9318
  187DOPC  C21723053   6.982   0.039  14.805  0.4023 -0.5522  0.1427
  187DOPC  H17R23054   6.926  -0.009  14.887 -2.4113  1.2170 -0.6217
  187DOPC  H17S23055   6.929   0.135  14.787  1.2921 -0.0066  0.3389
  187DOPC  C21823056   7.125   0.062  14.859 -0.4956 -0.1421  0.2863
  187DOPC  H18R23057   7.178  -0.025  14.905 -0.6405  0.3291  1.3883
  187DOPC  H18S23058   7.112   0.124  14.950  1.2294  0.7403 -0.0385
  187DOPC  H18T23059   7.178   0.117  14.779 -0.9829  0.1654  0.1701
  187DOPC   C3323060   6.985  -0.476  13.712 -0.3120 -0.0772  0.2666
  187DOPC   H3X23061   6.997  -0.367  13.732 -2.7623  0.4369 -0.6935
  187DOPC   H3Y23062   7.080  -0.514  13.671 -0.5212  0.8970 -1.1966
  187DOPC   C3423063   6.953  -0.552  13.846  0.2820 -0.4715 -0.0049
  187DOPC   H4X23064   7.050  -0.537  13.899 -0.8032  1.1662  1.6273
  187DOPC   H4Y23065   6.932  -0.659  13.829 -2.5786 -0.6888  3.7885
  187DOPC   C3523066   6.843  -0.488  13.932  0.3160  0.8961 -0.0180
  187DOPC   H5X23067   6.750  -0.499  13.872  0.5364  0.0482 -0.2272
  187DOPC   H5Y23068   6.857  -0.378  13.932  1.4523  0.7713  0.7423
  187DOPC   C3623069   6.825  -0.544  14.071 -0.5233 -0.5306  0.0562
  187DOPC   H6X23070   6.924  -0.567  14.114  0.0427  2.0760  0.2866
  187DOPC   H6Y23071   6.777  -0.463  14.130 -3.1376 -0.9714 -1.3061
  187DOPC   C3723072   6.746  -0.674  14.078  0.0067 -0.0105 -0.3813
  187DOPC   H7X23073   6.647  -0.664  14.028 -0.8875 -0.1354  1.2760
  187DOPC   H7Y23074   6.807  -0.754  14.029 -0.3932  0.4164 -1.6204
  187DOPC   C3823075   6.715  -0.709  14.223  0.5270 -0.7454 -0.1395
  187DOPC   H8X23076   6.614  -0.754  14.234 -0.0805  0.3676 -0.8732
  187DOPC   H8Y23077   6.698  -0.614  14.278  0.6870 -1.0493  0.4387
  187DOPC   C3923078   6.817  -0.780  14.294  0.2576  0.2568  0.4823
  187DOPC   H9X23079   6.919  -0.754  14.260  1.7327 -0.6043  3.8273
  187DOPC  C31023080   6.799  -0.880  14.388 -0.3779  0.3776 -0.0608
  187DOPC  H10X23081   6.886  -0.904  14.451 -0.5338 -1.6501 -0.5460
  187DOPC  C31123082   6.675  -0.945  14.442  0.0994  0.2043  0.1581
  187DOPC  H11X23083   6.660  -1.041  14.387  1.2978  0.3440 -0.4516
  187DOPC  H11Y23084   6.587  -0.879  14.426 -0.1963  0.1111  1.3484
  187DOPC  C31223085   6.678  -0.975  14.590  0.5189  0.0321 -0.0340
  187DOPC  H12X23086   6.712  -0.886  14.648 -1.1162  0.6806 -0.0353
  187DOPC  H12Y23087   6.760  -1.042  14.625  1.2582  0.8736 -0.1115
  187DOPC  C31323088   6.549  -1.030  14.651 -0.6063  0.2154  0.1571
  187DOPC  H13X23089   6.473  -0.950  14.638 -0.4357  0.2458 -0.7358
  187DOPC  H13Y23090   6.515  -1.115  14.586  0.7957  0.6756 -1.2474
  187DOPC  C31423091   6.565  -1.062  14.798  0.7287 -0.5437 -0.1985
  187DOPC  H14X23092   6.607  -0.975  14.854 -0.1667 -1.1955  1.5571
  187DOPC  H14Y23093   6.459  -1.064  14.829  0.3756  1.0629 -1.1597
  187DOPC  C31523094   6.631  -1.192  14.835  0.5332  0.3757 -0.8655
  187DOPC  H15X23095   6.720  -1.204  14.769  0.8047  2.2636 -0.9048
  187DOPC  H15Y23096   6.553  -1.269  14.817  0.1353  0.5524  0.0186
  187DOPC  C31623097   6.685  -1.190  14.980 -0.1721  0.8252  0.4822
  187DOPC  H16X23098   6.619  -1.143  15.057  1.6045  1.0067  1.9679
  187DOPC  H16Y23099   6.708  -1.292  15.016 -0.0213  0.9476  0.7394
  187DOPC  C31723100   6.808  -1.106  14.979  0.1336 -0.9132  0.0362
  187DOPC  H17X23101   6.878  -1.147  14.903  2.6936  1.8754  0.6612
  187DOPC  H17Y23102   6.798  -1.004  14.936 -0.8754 -1.1969 -0.4110
  187DOPC  C31823103   6.892  -1.090  15.108  0.1343  0.4525 -0.2341
  187DOPC  H18X23104   6.983  -1.154  15.106 -0.4643 -0.5087  1.2441
  187DOPC  H18Y23105   6.941  -0.991  15.116  0.4869  0.4139 -1.6403
  187DOPC  H18Z23106   6.825  -1.112  15.195 -0.7023  0.4160 -0.8693
  188DOPC     N23107   1.696   0.377  12.765  0.4655  1.0085 -0.2590
  188DOPC   C1223108   1.794   0.360  12.883 -0.3109  0.1347  0.4865
  188DOPC  H12A23109   1.882   0.420  12.869 -1.5089  1.3570 -2.5912
  188DOPC  H12B23110   1.815   0.254  12.887 -4.8115 -0.9497  0.2919
  188DOPC   C1323111   1.690   0.526  12.741  0.1527  0.0528  0.0107
  188DOPC  H13A23112   1.610   0.542  12.670  0.6193 -1.2669 -0.8485
  188DOPC  H13B23113   1.671   0.584  12.830 -0.8560  2.2964 -1.5711
  188DOPC  H13C23114   1.786   0.563  12.706 -0.5494  2.9089  0.8311
  188DOPC   C1423115   1.556   0.326  12.801  0.2800  0.1376  0.1042
  188DOPC  H14A23116   1.521   0.360  12.898  1.2086  1.0299  0.1500
  188DOPC  H14B23117   1.485   0.342  12.721 -0.7709  0.1901  1.0228
  188DOPC  H14C23118   1.563   0.219  12.808  0.8718  0.1444 -0.3171
  188DOPC   C1523119   1.738   0.301  12.639  0.3465  0.3080  0.3318
  188DOPC  H15A23120   1.756   0.196  12.660  0.2503 -0.2516 -2.1016
  188DOPC  H15B23121   1.828   0.349  12.604 -1.2649  1.6890 -2.3287
  188DOPC  H15C23122   1.662   0.314  12.563  1.0450  1.2089 -0.2391
  188DOPC   C1123123   1.738   0.390  13.032 -0.1294  0.3912  0.7781
  188DOPC  H11A23124   1.646   0.336  13.063  0.8409 -0.7778  1.7219
  188DOPC  H11B23125   1.811   0.342  13.101 -0.3806 -3.9050 -1.5963
  188DOPC     P23126   1.614   0.604  13.102  0.2600  0.1955 -0.1951
  188DOPC   O1323127   1.493   0.541  13.041  0.2765 -0.4946  0.2451
  188DOPC   O1423128   1.636   0.742  13.065 -0.6646 -0.0003 -0.2116
  188DOPC   O1223129   1.739   0.530  13.049  0.4875  0.3102 -0.7415
  188DOPC   O1123130   1.630   0.579  13.265  0.0540 -0.8478 -0.9246
  188DOPC    C123131   1.755   0.531  13.319  0.3986  0.0124  0.6604
  188DOPC    HA23132   1.842   0.575  13.265  0.8411  0.3808  1.6492
  188DOPC    HB23133   1.753   0.420  13.325  0.0464  0.0133  0.5665
  188DOPC    C223134   1.777   0.570  13.466 -0.1611  0.9182 -0.5625
  188DOPC    HS23135   1.847   0.503  13.519 -0.1174  0.8732 -0.6775
  188DOPC   O2123136   1.647   0.542  13.521 -0.1880  0.3882 -0.0281
  188DOPC   C2123137   1.634   0.515  13.652  0.3512 -0.3790  0.3301
  188DOPC   O2223138   1.722   0.501  13.732 -0.7220 -0.6324 -0.7496
  188DOPC   C2223139   1.483   0.511  13.673 -0.2504 -0.4036  0.3945
  188DOPC   H2R23140   1.441   0.416  13.632 -0.6976 -0.1769  0.3276
  188DOPC   H2S23141   1.435   0.599  13.625 -1.7516  0.1890  2.8123
  188DOPC    C323142   1.821   0.717  13.480 -0.7126 -0.2149 -0.2485
  188DOPC    HX23143   1.754   0.789  13.427  0.4074  2.1295  1.3578
  188DOPC    HY23144   1.922   0.733  13.437 -0.8372 -1.4955 -1.0648
  188DOPC   O3123145   1.824   0.765  13.619 -0.1023 -0.4242  0.2984
  188DOPC   C3123146   1.932   0.720  13.681  0.0021  0.2224 -0.3868
  188DOPC   O3223147   2.038   0.680  13.628  0.3532 -0.4594 -0.6306
  188DOPC   C3223148   1.915   0.745  13.833  0.0994 -0.5127 -0.4669
  188DOPC   H2X23149   1.841   0.823  13.860  1.9059  0.3922  2.2955
  188DOPC   H2Y23150   1.859   0.653  13.862 -1.0514  0.5439  0.7956
  188DOPC   C2323151   1.457   0.525  13.828  0.0700  0.4009 -0.1169
  188DOPC   H3R23152   1.476   0.631  13.856  0.6404 -0.1940  1.9133
  188DOPC   H3S23153   1.518   0.459  13.893  1.7166  0.8221 -1.1580
  188DOPC   C2423154   1.312   0.484  13.860  0.5237 -0.0764  0.4192
  188DOPC   H4R23155   1.309   0.378  13.895  0.5046 -0.7397 -1.5024
  188DOPC   H4S23156   1.241   0.494  13.776  1.2636 -1.7977 -0.4649
  188DOPC   C2523157   1.253   0.576  13.972  0.5412  0.4375  0.0924
  188DOPC   H5R23158   1.246   0.681  13.937 -0.1874  0.0012 -1.1162
  188DOPC   H5S23159   1.314   0.576  14.065  0.8541 -0.3639 -0.1043
  188DOPC   C2623160   1.108   0.538  14.006 -1.0020 -0.1950 -0.4217
  188DOPC   H6R23161   1.050   0.557  13.913 -1.9856 -0.3494  0.1457
  188DOPC   H6S23162   1.066   0.614  14.076  0.6302  1.3072 -1.0022
  188DOPC   C2723163   1.092   0.396  14.061  0.2925  0.1910  0.6408
  188DOPC   H7R23164   1.157   0.371  14.147  2.7226 -0.5709 -1.2971
  188DOPC   H7S23165   1.116   0.325  13.979 -1.1494  0.0901  0.2833
  188DOPC   C2823166   0.936   0.380  14.077  0.1654  0.8544 -0.1952
  188DOPC   H8R23167   0.895   0.392  13.974  0.5185  1.0807 -0.3124
  188DOPC   H8S23168   0.905   0.468  14.137 -0.6634  0.1585  0.4326
  188DOPC   C2923169   0.905   0.250  14.143 -0.0778  0.2584  0.2868
  188DOPC   H9R23170   0.904   0.160  14.080  0.7158  0.1270  0.4438
  188DOPC  C21023171   0.886   0.227  14.275  0.1352  0.0621 -0.3200
  188DOPC  H10R23172   0.873   0.122  14.305  1.2960 -0.0235 -0.0458
  188DOPC  C21123173   0.892   0.331  14.386 -0.0806 -0.2426 -0.3945
  188DOPC  H11R23174   0.813   0.402  14.353  1.1819  2.0174  1.1478
  188DOPC  H11S23175   0.989   0.384  14.385 -0.7448  1.0255  0.2925
  188DOPC  C21223176   0.863   0.291  14.528  0.0670 -0.3653  0.1983
  188DOPC  H12R23177   0.956   0.244  14.568  0.1831  1.0615  1.7119
  188DOPC  H12S23178   0.786   0.211  14.535 -0.0814 -0.1022  1.8515
  188DOPC  C21323179   0.818   0.404  14.628 -0.5086 -0.0586  0.2555
  188DOPC  H13R23180   0.717   0.438  14.597 -0.7462 -1.7351 -0.9475
  188DOPC  H13S23181   0.880   0.496  14.625 -1.2762  0.5261  1.3663
  188DOPC  C21423182   0.810   0.341  14.768 -0.1717  0.2927 -0.0866
  188DOPC  H14R23183   0.915   0.310  14.790 -0.3298  1.5311  2.8755
  188DOPC  H14S23184   0.741   0.254  14.771 -0.6702  0.6593 -0.7583
  188DOPC  C21523185   0.746   0.440  14.863  0.4059  0.5084  0.6676
  188DOPC  H15R23186   0.658   0.486  14.813  1.8058  1.9379 -0.5903
  188DOPC  H15S23187   0.812   0.529  14.865  0.0664  0.7595  0.7339
  188DOPC  C21623188   0.711   0.382  15.002  0.4570  0.4727 -0.1188
  188DOPC  H16R23189   0.802   0.339  15.049  0.1863  0.5290  0.4587
  188DOPC  H16S23190   0.636   0.304  14.978 -0.8240  1.8583 -0.7435
  188DOPC  C21723191   0.654   0.488  15.097 -0.0359  0.4608  0.0227
  188DOPC  H17R23192   0.571   0.533  15.038  0.8176 -0.6020 -2.1259
  188DOPC  H17S23193   0.723   0.573  15.116  1.6264 -1.1996  1.7749
  188DOPC  C21823194   0.599   0.427  15.226  0.3875  0.0432  0.5918
  188DOPC  H18R23195   0.520   0.350  15.213 -0.9571  1.4948 -0.1840
  188DOPC  H18S23196   0.556   0.508  15.289  0.8223  0.9233 -0.2073
  188DOPC  H18T23197   0.681   0.386  15.289  0.4312 -3.2839 -1.4260
  188DOPC   C3323198   2.051   0.754  13.917  0.3689  0.1540 -0.4116
  188DOPC   H3X23199   2.125   0.829  13.885  0.4181 -0.2164 -1.1737
  188DOPC   H3Y23200   2.098   0.653  13.914  0.9614  0.4046  0.1885
  188DOPC   C3423201   2.019   0.769  14.072  0.1660  0.5859 -0.3231
  188DOPC   H4X23202   1.934   0.704  14.103  0.0493  1.0454  0.3435
  188DOPC   H4Y23203   1.981   0.872  14.089 -3.5421 -0.5514 -0.9533
  188DOPC   C3523204   2.146   0.722  14.152 -0.2631 -0.6817 -0.1206
  188DOPC   H5X23205   2.234   0.787  14.130 -0.4561 -0.6466 -0.8317
  188DOPC   H5Y23206   2.162   0.623  14.104 -1.2212 -0.1157 -1.7280
  188DOPC   C3623207   2.121   0.708  14.299 -0.5797  0.4689  0.3264
  188DOPC   H6X23208   2.041   0.637  14.327  0.2438 -0.6436 -0.0546
  188DOPC   H6Y23209   2.221   0.665  14.323 -0.4392  0.4990 -0.2007
  188DOPC   C3723210   2.109   0.837  14.379  0.0765  0.3854  0.1657
  188DOPC   H7X23211   2.178   0.909  14.329 -0.8574 -0.0867 -1.9448
  188DOPC   H7Y23212   2.007   0.875  14.356  0.6102  0.1006 -3.1716
  188DOPC   C3823213   2.127   0.822  14.531  0.3383 -0.4043  0.1212
  188DOPC   H8X23214   2.125   0.926  14.571  0.1807  0.1790 -1.3544
  188DOPC   H8Y23215   2.234   0.795  14.542  0.8805  1.7835  0.6717
  188DOPC   C3923216   2.034   0.726  14.599  0.2542  0.5412 -0.3685
  188DOPC   H9X23217   1.929   0.759  14.607  0.9123  3.2662 -1.9227
  188DOPC  C31023218   2.066   0.619  14.678 -0.3925 -0.5509  0.6122
  188DOPC  H10X23219   1.973   0.572  14.713 -2.0693  2.0472 -0.1179
  188DOPC  C31123220   2.205   0.565  14.713 -0.7309 -0.1011  0.4870
  188DOPC  H11X23221   2.213   0.522  14.815 -0.0205  0.7970  0.8273
  188DOPC  H11Y23222   2.285   0.642  14.701 -1.2175  0.1140 -1.9519
  188DOPC  C31223223   2.260   0.470  14.608  0.2835 -0.2205 -0.3182
  188DOPC  H12X23224   2.245   0.502  14.503  0.5041  1.1600  0.0475
  188DOPC  H12Y23225   2.198   0.380  14.628  0.2951 -0.5466 -1.7068
  188DOPC  C31323226   2.401   0.433  14.622 -0.5439  0.2425 -0.0183
  188DOPC  H13X23227   2.442   0.386  14.530  0.2774 -0.0064  0.4648
  188DOPC  H13Y23228   2.464   0.524  14.626 -0.9884  0.5299  0.5213
  188DOPC  C31423229   2.428   0.339  14.742  0.6256  0.3456 -0.8065
  188DOPC  H14X23230   2.380   0.384  14.831  1.3406 -1.8678  0.7758
  188DOPC  H14Y23231   2.376   0.247  14.711  1.3537  0.1945 -1.6223
  188DOPC  C31523232   2.579   0.318  14.771  0.6653 -0.4554 -0.0797
  188DOPC  H15X23233   2.579   0.282  14.875  1.0172  1.4583  0.6285
  188DOPC  H15Y23234   2.644   0.408  14.764  0.9247 -0.5986  0.4868
  188DOPC  C31623235   2.637   0.206  14.680 -0.1180  0.1803  0.3407
  188DOPC  H16X23236   2.591   0.106  14.698  0.5509  0.1239  1.9049
  188DOPC  H16Y23237   2.624   0.239  14.575 -0.1564 -1.4314 -0.1955
  188DOPC  C31723238   2.796   0.186  14.705  0.2609  0.4077  0.0553
  188DOPC  H17X23239   2.856   0.279  14.704 -0.7434  1.1841  2.5608
  188DOPC  H17Y23240   2.813   0.151  14.809 -1.6689  0.6457  0.5011
  188DOPC  C31823241   2.862   0.089  14.605  0.3160 -0.0761  0.4747
  188DOPC  H18X23242   2.883   0.144  14.510 -0.6961  0.3263  0.4709
  188DOPC  H18Y23243   2.962   0.053  14.636  0.2525 -0.5486  0.1409
  188DOPC  H18Z23244   2.805  -0.006  14.594 -0.7634  0.7133 -1.2994
  189DOPC     N23245   5.233   7.060  12.522 -0.4194  0.1796 -0.5083
  189DOPC   C1223246   5.196   7.076  12.675 -0.8826  0.0886  0.7391
  189DOPC  H12A23247   5.136   7.164  12.692  1.7701  2.0117  0.7718
  189DOPC  H12B23248   5.291   7.089  12.726 -0.3919 -0.1877 -0.0801
  189DOPC   C1323249   5.342   6.960  12.517  0.3467  0.6887 -0.4623
  189DOPC  H13A23250   5.367   6.951  12.413  0.4314  3.0909 -0.6958
  189DOPC  H13B23251   5.427   6.994  12.576 -0.7930  1.8921  0.5506
  189DOPC  H13C23252   5.305   6.865  12.555 -0.8455  0.1206 -2.8812
  189DOPC   C1423253   5.291   7.177  12.464 -0.4639 -0.2528  0.5038
  189DOPC  H14A23254   5.328   7.153  12.366  1.3434 -0.0684  1.1077
  189DOPC  H14B23255   5.220   7.258  12.462  0.4836  0.6116  0.8381
  189DOPC  H14C23256   5.379   7.210  12.518 -0.1196 -0.5293  0.1177
  189DOPC   C1523257   5.111   7.013  12.446 -0.0891  0.1942 -0.6895
  189DOPC  H15A23258   5.034   7.088  12.440 -0.0691  0.2699 -0.0447
  189DOPC  H15B23259   5.074   6.926  12.499  0.0129  0.7695  0.3568
  189DOPC  H15C23260   5.142   6.989  12.346  1.2499  0.8691 -0.4550
  189DOPC   C1123261   5.145   6.955  12.755  0.0565 -0.2496  0.2278
  189DOPC  H11A23262   5.213   6.873  12.725 -0.0222  0.8973 -3.7178
  189DOPC  H11B23263   5.148   6.986  12.862 -0.8175 -1.1614  0.5255
  189DOPC     P23264   4.894   7.005  12.784  0.5029 -0.0962  0.1323
  189DOPC   O1323265   4.763   6.947  12.743  0.2616 -0.4636  0.6071
  189DOPC   O1423266   4.917   7.150  12.769  0.2743 -0.1622  0.0986
  189DOPC   O1223267   5.009   6.921  12.715 -0.0647 -0.4925 -0.6151
  189DOPC   O1123268   4.918   6.969  12.928  0.4243 -0.0781 -0.7327
  189DOPC    C123269   4.886   6.860  13.012  0.3959  0.1077 -0.4287
  189DOPC    HA23270   4.963   6.780  13.014 -1.6503 -2.0237 -1.6327
  189DOPC    HB23271   4.795   6.807  12.977  0.5650 -0.7158  0.3441
  189DOPC    C223272   4.880   6.895  13.159 -0.1563  0.6677 -0.1902
  189DOPC    HS23273   4.791   6.959  13.178 -1.0025 -0.3306 -0.6769
  189DOPC   O2123274   5.002   6.967  13.189 -0.6633  0.6328  0.3614
  189DOPC   C2123275   5.000   7.097  13.184  0.2051 -0.3473  0.2334
  189DOPC   O2223276   4.911   7.170  13.150  0.0584 -0.3608  0.1046
  189DOPC   C2223277   5.115   7.151  13.265  0.5554 -0.5019  0.6390
  189DOPC   H2R23278   5.148   7.243  13.212  0.0315 -0.3092  0.6387
  189DOPC   H2S23279   5.205   7.086  13.262  2.0421  1.4451  0.2699
  189DOPC    C323280   4.871   6.767  13.252  0.3584 -0.4253 -0.5157
  189DOPC    HX23281   4.969   6.716  13.258  1.5624  1.5740 -1.9306
  189DOPC    HY23282   4.804   6.689  13.211 -0.9476 -0.0292  0.7641
  189DOPC   O3123283   4.824   6.794  13.385 -0.5527 -0.1950  0.2240
  189DOPC   C3123284   4.698   6.821  13.402 -0.1093  0.0888  0.3983
  189DOPC   O3223285   4.611   6.808  13.318  0.2035 -0.0887 -0.0585
  189DOPC   C3223286   4.685   6.873  13.549  0.3031  0.6090 -0.1386
  189DOPC   H2X23287   4.631   6.791  13.602 -0.4074  1.7629  0.9806
  189DOPC   H2Y23288   4.785   6.882  13.597  1.7187 -0.1976 -2.7274
  189DOPC   C2323289   5.083   7.191  13.409  0.1223  0.1334  0.4448
  189DOPC   H3R23290   4.999   7.261  13.428  0.2227 -0.2506  2.5533
  189DOPC   H3S23291   5.169   7.250  13.447  1.0045 -0.9633  0.2254
  189DOPC   C2423292   5.058   7.063  13.491  0.2106 -0.0575 -0.3817
  189DOPC   H4R23293   5.152   7.007  13.510  0.0769 -0.1549 -0.0044
  189DOPC   H4S23294   4.995   6.993  13.431  0.5634 -0.0882 -0.7225
  189DOPC   C2523295   4.985   7.090  13.625 -0.0822 -0.1936 -0.4497
  189DOPC   H5R23296   4.963   6.993  13.675  0.1262 -0.7298 -1.3890
  189DOPC   H5S23297   4.888   7.130  13.589  0.6412  1.1934 -0.9151
  189DOPC   C2623298   5.059   7.195  13.717 -0.0262 -0.5076 -0.0596
  189DOPC   H6R23299   5.083   7.287  13.660  1.2559 -0.1798  0.9682
  189DOPC   H6S23300   5.158   7.153  13.744  0.0501 -0.2922 -0.0088
  189DOPC   C2723301   4.984   7.239  13.838  0.4608  0.4709  0.1674
  189DOPC   H7R23302   4.970   7.146  13.897  3.0784 -1.0931 -1.4208
  189DOPC   H7S23303   4.881   7.258  13.801  0.3543 -1.4524 -0.6408
  189DOPC   C2823304   5.048   7.353  13.915  0.1493 -0.7236  0.0379
  189DOPC   H8R23305   5.087   7.428  13.843 -0.5519  1.3542  1.7264
  189DOPC   H8S23306   5.127   7.306  13.978 -0.0615 -0.5649  0.4197
  189DOPC   C2923307   4.953   7.426  14.006  0.3219  0.3297  0.8017
  189DOPC   H9R23308   4.888   7.494  13.949  3.0064  0.5622 -2.3180
  189DOPC  C21023309   4.928   7.400  14.139  0.3526  0.0710 -0.1821
  189DOPC  H10R23310   4.858   7.468  14.188 -0.0905 -0.9004  0.5581
  189DOPC  C21123311   4.982   7.293  14.231 -0.4909 -0.2271  0.5069
  189DOPC  H11R23312   5.084   7.264  14.197  0.0549  0.3554  1.5806
  189DOPC  H11S23313   4.918   7.203  14.231  1.3106 -1.6464  2.9375
  189DOPC  C21223314   4.988   7.341  14.376 -0.3085  1.1390  0.8021
  189DOPC  H12R23315   4.886   7.372  14.406 -0.2089  2.0915  0.2325
  189DOPC  H12S23316   5.037   7.441  14.382 -0.5984  1.4368 -1.0134
  189DOPC  C21323317   5.058   7.232  14.458  0.9520  0.2507 -0.2032
  189DOPC  H13R23318   5.156   7.206  14.413  0.8329 -0.3099 -0.1425
  189DOPC  H13S23319   4.991   7.144  14.451  0.5300  0.5679 -0.1687
  189DOPC  C21423320   5.063   7.266  14.607 -0.6256  0.2330  0.2351
  189DOPC  H14R23321   4.965   7.296  14.650 -0.3857 -0.0251  0.9764
  189DOPC  H14S23322   5.127   7.356  14.616 -2.3465  1.3171  2.4620
  189DOPC  C21523323   5.128   7.153  14.689 -0.8884 -0.6850  0.0462
  189DOPC  H15R23324   5.236   7.152  14.665 -0.3041  2.9469  1.7694
  189DOPC  H15S23325   5.092   7.054  14.654 -1.8585 -0.0385 -0.8627
  189DOPC  C21623326   5.129   7.159  14.847  0.1992 -0.0688 -0.2344
  189DOPC  H16R23327   5.147   7.266  14.869 -0.6988  0.2794 -1.1356
  189DOPC  H16S23328   5.205   7.087  14.883 -1.7423 -1.0818  2.1929
  189DOPC  C21723329   5.003   7.111  14.915 -1.0375  0.3202 -0.2390
  189DOPC  H17R23330   4.979   7.005  14.889 -0.0328  0.5738 -2.4772
  189DOPC  H17S23331   4.928   7.175  14.866 -0.2567 -1.4348 -4.1258
  189DOPC  C21823332   4.995   7.116  15.068 -0.2972 -0.3119  0.1626
  189DOPC  H18R23333   4.892   7.093  15.104 -0.7991  2.0727  0.4039
  189DOPC  H18S23334   5.021   7.215  15.109 -0.4549 -0.4366  0.5631
  189DOPC  H18T23335   5.064   7.035  15.100 -1.1218 -1.2957 -0.4655
  189DOPC   C3323336   4.617   7.012  13.557 -0.2758 -0.1111 -0.2276
  189DOPC   H3X23337   4.518   7.006  13.507 -1.3128  1.7541  1.4656
  189DOPC   H3Y23338   4.674   7.094  13.508 -1.4624  1.3535  0.7530
  189DOPC   C3423339   4.587   7.053  13.702 -0.9339 -0.0795  0.0315
  189DOPC   H4X23340   4.680   7.048  13.763 -0.8380 -1.1007 -0.1835
  189DOPC   H4Y23341   4.525   6.977  13.755 -1.8516  2.2933  2.5531
  189DOPC   C3523342   4.504   7.180  13.706 -0.4537  0.4216  0.0216
  189DOPC   H5X23343   4.485   7.201  13.814  0.9634 -0.7676  0.5269
  189DOPC   H5Y23344   4.412   7.179  13.644 -0.6204  2.2400  0.1675
  189DOPC   C3623345   4.598   7.300  13.652 -0.1161 -0.0316 -0.7514
  189DOPC   H6X23346   4.689   7.299  13.717 -0.9252 -0.0143  0.4155
  189DOPC   H6Y23347   4.634   7.282  13.549 -0.4766  0.4658 -0.9651
  189DOPC   C3723348   4.536   7.449  13.644  0.3906 -0.4529 -0.5898
  189DOPC   H7X23349   4.598   7.499  13.567  2.7125 -2.1502  0.0909
  189DOPC   H7Y23350   4.430   7.443  13.610 -0.2472  2.5625  0.5304
  189DOPC   C3823351   4.546   7.533  13.769 -0.1816  0.1646 -0.7302
  189DOPC   H8X23352   4.536   7.636  13.730 -0.7523  0.0499 -0.8922
  189DOPC   H8Y23353   4.649   7.534  13.809 -0.8685  2.4594  1.2250
  189DOPC   C3923354   4.447   7.512  13.880  0.1331  0.2409 -0.1397
  189DOPC   H9X23355   4.350   7.476  13.842  0.1321  1.1086 -0.9700
  189DOPC  C31023356   4.459   7.543  14.012  0.6044 -0.5302 -0.1261
  189DOPC  H10X23357   4.368   7.530  14.073 -0.3771 -0.9579 -1.6001
  189DOPC  C31123358   4.573   7.604  14.080 -0.3559  0.7126  0.6592
  189DOPC  H11X23359   4.661   7.618  14.013 -1.6760  0.1099 -1.2705
  189DOPC  H11Y23360   4.610   7.527  14.153  1.6258 -0.3871 -1.3612
  189DOPC  C31223361   4.525   7.732  14.152 -0.4540  0.1909 -0.0508
  189DOPC  H12X23362   4.596   7.747  14.236 -0.5605  0.6602 -0.0393
  189DOPC  H12Y23363   4.429   7.710  14.204 -0.0276 -0.8440  0.3288
  189DOPC  C31323364   4.519   7.867  14.070  0.4650  0.1293 -1.0305
  189DOPC  H13X23365   4.625   7.861  14.038  0.2466  0.5166 -1.8526
  189DOPC  H13Y23366   4.465   7.868  13.973 -0.8684  0.0424 -0.3206
  189DOPC  C31423367   4.493   7.998  14.147  0.3587  0.4928 -0.3395
  189DOPC  H14X23368   4.390   7.982  14.185  1.3911 -1.5814  1.8202
  189DOPC  H14Y23369   4.567   8.007  14.229 -1.2831  0.4862  1.2199
  189DOPC  C31523370   4.492   8.122  14.049  0.8214 -0.3072 -0.4984
  189DOPC  H15X23371   4.426   8.090  13.965 -0.1663  0.4772 -0.0474
  189DOPC  H15Y23372   4.596   8.144  14.016  0.5943  0.4685 -0.7240
  189DOPC  C31623373   4.444   8.253  14.114  0.0690 -1.0257  0.0406
  189DOPC  H16X23374   4.348   8.225  14.163 -0.0377 -0.6465  0.0503
  189DOPC  H16Y23375   4.516   8.292  14.189 -1.3502  0.1720  0.8403
  189DOPC  C31723376   4.436   8.372  14.008 -0.4375  0.2387  0.3505
  189DOPC  H17X23377   4.427   8.463  14.071  3.4656  0.0242  1.5280
  189DOPC  H17Y23378   4.540   8.381  13.969  0.3197  0.3651  2.2801
  189DOPC  C31823379   4.331   8.353  13.910  0.3755 -0.6463  0.1779
  189DOPC  H18X23380   4.327   8.434  13.835  0.6746 -0.4194  0.4052
  189DOPC  H18Y23381   4.332   8.252  13.863  1.1818 -0.0884 -1.0506
  189DOPC  H18Z23382   4.236   8.359  13.967 -0.3285 -1.0217 -0.9216
  190DOPC     N23383   2.684   7.317  12.374  0.1107 -0.3800 -0.3736
  190DOPC   C1223384   2.754   7.380  12.500 -0.9799  0.3752 -0.1825
  190DOPC  H12A23385   2.805   7.470  12.472 -2.0277  1.2580  0.6662
  190DOPC  H12B23386   2.834   7.317  12.536 -0.2680  0.4243 -1.6450
  190DOPC   C1323387   2.626   7.432  12.299  0.8475  0.1830 -0.1950
  190DOPC  H13A23388   2.550   7.486  12.354  0.0098 -0.7811 -0.3790
  190DOPC  H13B23389   2.695   7.511  12.272  0.3131  1.4267  1.8459
  190DOPC  H13C23390   2.581   7.386  12.212 -2.2293 -0.6298  1.6484
  190DOPC   C1423391   2.588   7.208  12.398  0.4930 -0.5720  0.3420
  190DOPC  H14A23392   2.564   7.150  12.310  1.2382  0.6153 -0.6829
  190DOPC  H14B23393   2.633   7.137  12.466  0.7454 -2.4683 -1.6794
  190DOPC  H14C23394   2.497   7.252  12.437  0.0670 -0.4906 -0.6976
  190DOPC   C1523395   2.798   7.259  12.290  0.1618  0.3374  0.1436
  190DOPC  H15A23396   2.870   7.195  12.339 -1.3988 -1.3459  0.3712
  190DOPC  H15B23397   2.863   7.333  12.246  1.9154 -1.2442 -0.0564
  190DOPC  H15C23398   2.762   7.209  12.201  1.1354  1.8054 -1.1339
  190DOPC   C1123399   2.657   7.427  12.623  0.5285  0.2998 -0.1413
  190DOPC  H11A23400   2.654   7.338  12.688 -0.5025 -0.1368 -0.7696
  190DOPC  H11B23401   2.715   7.501  12.682 -0.1303  1.4123 -0.8537
  190DOPC     P23402   2.393   7.442  12.644 -0.0650  0.4757 -0.3200
  190DOPC   O1323403   2.355   7.299  12.612 -0.1494 -0.0825 -1.1052
  190DOPC   O1423404   2.294   7.544  12.607  0.1338 -0.2458  0.0939
  190DOPC   O1223405   2.533   7.481  12.580 -0.1224 -0.5949 -0.1992
  190DOPC   O1123406   2.409   7.451  12.801  0.1364  0.0743 -0.4335
  190DOPC    C123407   2.426   7.569  12.871  0.6908 -0.1925  0.2498
  190DOPC    HA23408   2.329   7.622  12.873  1.1031  0.5549  1.0219
  190DOPC    HB23409   2.503   7.630  12.820  1.1671 -1.4862 -0.6566
  190DOPC    C223410   2.480   7.552  13.017  0.7247  0.9818 -0.4689
  190DOPC    HS23411   2.533   7.644  13.049  1.3726  0.8834 -1.2281
  190DOPC   O2123412   2.561   7.434  13.035 -0.7862 -0.3714 -0.0228
  190DOPC   C2123413   2.685   7.457  12.994 -0.8740  0.6122 -0.1665
  190DOPC   O2223414   2.727   7.558  12.948 -0.2181 -0.4127 -0.3411
  190DOPC   C2223415   2.770   7.335  13.022  0.2558 -0.0470 -0.0767
  190DOPC   H2R23416   2.810   7.299  12.925 -0.6106 -0.2414 -0.3705
  190DOPC   H2S23417   2.708   7.247  13.052  2.2918 -1.1771  1.0374
  190DOPC    C323418   2.354   7.539  13.116  0.5632 -0.5452 -0.0427
  190DOPC    HX23419   2.290   7.453  13.089  0.6455  0.0068 -2.2178
  190DOPC    HY23420   2.292   7.627  13.090  3.0937  0.2573 -4.3199
  190DOPC   O3123421   2.391   7.535  13.258  0.0861 -0.2616 -0.0652
  190DOPC   C3123422   2.293   7.526  13.340 -0.0109  0.3045  0.6151
  190DOPC   O3223423   2.174   7.553  13.310 -0.7148 -0.6485 -0.1277
  190DOPC   C3223424   2.341   7.476  13.474  0.5010  0.3132  0.2570
  190DOPC   H2X23425   2.393   7.554  13.534 -1.7336  1.8174  0.3570
  190DOPC   H2Y23426   2.251   7.439  13.528  0.1036 -0.0455 -0.6336
  190DOPC   C2323427   2.883   7.350  13.124 -0.5881 -0.3709  0.3049
  190DOPC   H3R23428   2.915   7.247  13.152 -1.4178 -0.7974 -0.2718
  190DOPC   H3S23429   2.846   7.390  13.220  0.9947 -1.6347  1.4987
  190DOPC   C2423430   3.001   7.427  13.064  0.7091 -0.4228  1.0140
  190DOPC   H4R23431   2.970   7.526  13.026  0.8538 -1.8555 -3.4672
  190DOPC   H4S23432   3.030   7.374  12.970 -1.0989  1.1189 -0.4868
  190DOPC   C2523433   3.129   7.428  13.147 -0.1664 -0.6188  0.0631
  190DOPC   H5R23434   3.209   7.420  13.071  0.5686  1.5546  0.5578
  190DOPC   H5S23435   3.143   7.330  13.198  1.0542 -1.5969 -2.0057
  190DOPC   C2623436   3.146   7.548  13.236 -0.2702  0.2439 -0.5415
  190DOPC   H6R23437   3.137   7.640  13.174 -2.2623 -0.0411 -0.7617
  190DOPC   H6S23438   3.251   7.551  13.272 -1.1562 -2.0046  2.6545
  190DOPC   C2723439   3.057   7.549  13.358  0.1441 -0.4489  0.8304
  190DOPC   H7R23440   3.099   7.586  13.454 -3.6067 -1.6213  3.1326
  190DOPC   H7S23441   3.024   7.448  13.389  0.7868 -0.4672  1.4950
  190DOPC   C2823442   2.930   7.637  13.336  0.3419 -0.0773  0.0470
  190DOPC   H8R23443   2.911   7.631  13.227  0.5301  1.3916 -0.0791
  190DOPC   H8S23444   2.949   7.743  13.360 -0.5026  0.3005 -0.8750
  190DOPC   C2923445   2.806   7.580  13.402 -0.7658 -0.7778  0.1373
  190DOPC   H9R23446   2.741   7.524  13.333 -0.1659 -0.4963 -0.6750
  190DOPC  C21023447   2.787   7.583  13.534  0.5358 -0.5729  0.1701
  190DOPC  H10R23448   2.690   7.552  13.574 -0.0671 -0.5531 -1.2320
  190DOPC  C21123449   2.886   7.643  13.641 -0.1378  0.0223  0.5620
  190DOPC  H11R23450   2.834   7.710  13.713 -2.3133 -1.7926  0.8036
  190DOPC  H11S23451   2.974   7.697  13.600 -0.8489  0.9599  0.2344
  190DOPC  C21223452   2.943   7.524  13.726  0.0825 -0.1270  0.1204
  190DOPC  H12R23453   3.008   7.460  13.663 -1.3097 -1.1569 -0.3161
  190DOPC  H12S23454   2.858   7.464  13.764 -0.8249 -0.5992 -2.4150
  190DOPC  C21323455   3.033   7.582  13.838 -0.3631  0.4469 -0.9708
  190DOPC  H13R23456   2.963   7.645  13.898 -0.5796  0.1630 -0.9199
  190DOPC  H13S23457   3.109   7.650  13.795  0.5843  0.5541  0.7673
  190DOPC  C21423458   3.087   7.478  13.933 -0.2427  0.1435  0.0891
  190DOPC  H14R23459   3.148   7.408  13.872  0.2154 -1.0914  1.8968
  190DOPC  H14S23460   3.006   7.419  13.980 -0.7579  1.1872  0.5520
  190DOPC  C21523461   3.167   7.539  14.047 -0.1992  0.1926  0.3034
  190DOPC  H15R23462   3.120   7.639  14.057 -0.3577  0.0420  1.1186
  190DOPC  H15S23463   3.273   7.551  14.017 -0.0763 -0.8264  0.3025
  190DOPC  C21623464   3.165   7.460  14.179 -0.0192  0.0033  0.1382
  190DOPC  H16R23465   3.218   7.363  14.161  1.9700  0.8447  1.1106
  190DOPC  H16S23466   3.063   7.450  14.220  1.1522  0.6882  3.4590
  190DOPC  C21723467   3.260   7.541  14.276  0.9159  0.1757 -0.5995
  190DOPC  H17R23468   3.240   7.498  14.377  1.0687  2.1052  0.2979
  190DOPC  H17S23469   3.225   7.646  14.278  3.9960  1.3167 -0.2021
  190DOPC  C21823470   3.408   7.544  14.263 -0.5345 -0.5073 -0.2835
  190DOPC  H18R23471   3.432   7.623  14.189  1.9790 -0.0181  0.9523
  190DOPC  H18S23472   3.442   7.450  14.214 -2.4282  0.3028 -3.4451
  190DOPC  H18T23473   3.469   7.567  14.353  1.6096 -1.0576 -1.5304
  190DOPC   C3323474   2.432   7.344  13.461 -0.0476 -0.3403 -0.1124
  190DOPC   H3X23475   2.527   7.373  13.409 -0.3249  0.0099 -0.4357
  190DOPC   H3Y23476   2.375   7.271  13.400  0.7078 -0.4949 -0.6448
  190DOPC   C3423477   2.469   7.292  13.600 -0.0548 -0.0361 -0.3233
  190DOPC   H4X23478   2.524   7.370  13.656  1.2235  0.2109 -1.8576
  190DOPC   H4Y23479   2.540   7.210  13.579 -0.8380 -1.0917  0.9652
  190DOPC   C3523480   2.350   7.231  13.679 -0.2027  0.1197  0.4360
  190DOPC   H5X23481   2.304   7.149  13.619  2.1551 -3.1870  2.7764
  190DOPC   H5Y23482   2.273   7.308  13.702  0.8594  1.1250  0.6680
  190DOPC   C3623483   2.398   7.163  13.807  0.2243  0.1761 -0.6532
  190DOPC   H6X23484   2.481   7.090  13.788  1.9522  1.4964  1.3960
  190DOPC   H6Y23485   2.437   7.233  13.883  0.1762 -1.3033  0.7856
  190DOPC   C3723486   2.300   7.080  13.878 -0.3519  1.3168 -0.0433
  190DOPC   H7X23487   2.200   7.128  13.876 -1.5958 -0.9811  2.1014
  190DOPC   H7Y23488   2.296   6.978  13.833 -1.1014  0.8782  0.9826
  190DOPC   C3823489   2.340   7.056  14.023  0.2931  0.1362 -0.1444
  190DOPC   H8X23490   2.351   7.153  14.075 -2.0801  2.3686 -3.4357
  190DOPC   H8Y23491   2.441   7.010  14.024  1.1887  1.9861 -0.7939
  190DOPC   C3923492   2.242   6.962  14.085  0.5163  0.5996  0.2053
  190DOPC   H9X23493   2.250   6.865  14.033  1.8696  0.7798  0.0546
  190DOPC  C31023494   2.142   6.983  14.177  0.1590  0.2276 -0.7766
  190DOPC  H10X23495   2.068   6.906  14.205  0.5871 -0.6691 -2.0048
  190DOPC  C31123496   2.116   7.116  14.250  0.8238  0.4834  0.0154
  190DOPC  H11X23497   2.042   7.178  14.195  0.9985  0.2350 -0.5020
  190DOPC  H11Y23498   2.205   7.182  14.262 -1.0838  3.2101  0.0748
  190DOPC  C31223499   2.056   7.107  14.395  0.5516  0.4474 -0.0517
  190DOPC  H12X23500   2.141   7.084  14.462  0.9009  1.1578 -0.2465
  190DOPC  H12Y23501   1.990   7.018  14.407  0.4866  0.6606  1.3544
  190DOPC  C31323502   1.995   7.245  14.435  0.8093 -0.4353  0.1256
  190DOPC  H13X23503   2.056   7.313  14.373  0.6292 -0.4160 -0.0338
  190DOPC  H13Y23504   1.896   7.265  14.388  1.8251  0.3637 -1.7887
  190DOPC  C31423505   1.998   7.278  14.587  0.2493  0.2356  0.2610
  190DOPC  H14X23506   2.097   7.254  14.631 -0.3206  3.0180  3.4979
  190DOPC  H14Y23507   1.999   7.389  14.593 -1.1484  0.2876 -0.0656
  190DOPC  C31523508   1.882   7.232  14.675  0.6965  0.3278 -0.6830
  190DOPC  H15X23509   1.783   7.242  14.626  0.6742 -1.8848 -1.1758
  190DOPC  H15Y23510   1.878   7.293  14.769  0.5486  1.2550 -1.2802
  190DOPC  C31623511   1.889   7.088  14.719 -0.0514 -0.1020  0.7990
  190DOPC  H16X23512   1.787   7.064  14.755 -0.8585 -0.2602 -1.4250
  190DOPC  H16Y23513   1.919   7.030  14.629  0.1631 -0.4693  1.1070
  190DOPC  C31723514   2.000   7.070  14.822  0.4038 -0.3695 -0.7204
  190DOPC  H17X23515   2.093   7.124  14.791  1.9727 -2.9018 -0.7439
  190DOPC  H17Y23516   1.966   7.121  14.914  1.9752 -2.0453  0.8904
  190DOPC  C31823517   2.044   6.929  14.860 -0.4770 -0.5627  0.4658
  190DOPC  H18X23518   2.130   6.939  14.929 -0.2571  0.3911  0.0685
  190DOPC  H18Y23519   1.964   6.868  14.907 -1.0445 -0.4554 -0.3407
  190DOPC  H18Z23520   2.071   6.869  14.770  0.5992  1.3798 -0.5630
  191DOPC     N23521   6.592   6.704  12.569  0.3243  0.7401 -0.1657
  191DOPC   C1223522   6.585   6.658  12.710  0.3779  0.1607 -0.3580
  191DOPC  H12A23523   6.542   6.733  12.774 -0.1088 -0.8979  0.5840
  191DOPC  H12B23524   6.686   6.634  12.742 -0.1127  0.2556  1.3575
  191DOPC   C1323525   6.449   6.708  12.524 -0.0244 -0.4782 -0.4909
  191DOPC  H13A23526   6.440   6.733  12.420 -0.1135 -0.1877 -0.4148
  191DOPC  H13B23527   6.393   6.616  12.525 -2.0928  0.6450  2.8163
  191DOPC  H13C23528   6.405   6.780  12.591 -0.5185  0.2974 -1.6200
  191DOPC   C1423529   6.652   6.599  12.481 -0.1109  0.5365  0.0831
  191DOPC  H14A23530   6.758   6.615  12.473 -0.1881  1.1609  0.2040
  191DOPC  H14B23531   6.640   6.495  12.506  2.0102  0.1220 -0.4197
  191DOPC  H14C23532   6.628   6.623  12.378  1.6161 -0.9105 -0.6936
  191DOPC   C1523533   6.670   6.836  12.550  0.5191  0.0876  0.1972
  191DOPC  H15A23534   6.774   6.822  12.573  0.5024  0.5559  0.5810
  191DOPC  H15B23535   6.625   6.916  12.607 -0.8802 -0.4639 -0.0916
  191DOPC  H15C23536   6.676   6.859  12.444  2.3854 -0.4235  0.1666
  191DOPC   C1123537   6.492   6.541  12.746 -0.2762  0.5092  0.1327
  191DOPC  H11A23538   6.491   6.471  12.660 -0.3687  0.1858  0.3955
  191DOPC  H11B23539   6.527   6.483  12.834  1.5560  0.5911 -0.4973
  191DOPC     P23540   6.327   6.692  12.885  0.0260 -0.6389  0.3669
  191DOPC   O1323541   6.180   6.684  12.918  0.2543 -0.0308  0.4585
  191DOPC   O1423542   6.380   6.821  12.843 -0.1935  0.6299 -0.6068
  191DOPC   O1223543   6.356   6.587  12.771  0.2557 -0.3522  0.3619
  191DOPC   O1123544   6.408   6.630  12.998  0.5353  0.4311  0.1573
  191DOPC    C123545   6.367   6.516  13.066  0.2342  1.1344 -0.2385
  191DOPC    HA23546   6.460   6.464  13.097 -0.7146 -0.4919 -0.0480
  191DOPC    HB23547   6.308   6.445  13.004  2.6692 -0.9982 -0.2716
  191DOPC    C223548   6.264   6.548  13.180 -0.2331  0.4085  0.5424
  191DOPC    HS23549   6.191   6.623  13.144 -0.0778  0.5211  0.4626
  191DOPC   O2123550   6.331   6.608  13.286  0.7393 -0.2318 -0.0783
  191DOPC   C2123551   6.275   6.704  13.362 -0.0984  0.2717 -0.6540
  191DOPC   O2223552   6.168   6.760  13.338 -0.1034  0.4107  0.1675
  191DOPC   C2223553   6.377   6.742  13.462 -0.8012  0.0477  1.1026
  191DOPC   H2R23554   6.430   6.834  13.427 -1.6469 -0.2853 -1.1954
  191DOPC   H2S23555   6.464   6.673  13.461 -0.1870  0.7981  1.4050
  191DOPC    C323556   6.180   6.421  13.228  0.4366 -0.3721 -0.2209
  191DOPC    HX23557   6.250   6.341  13.260  0.7136  0.2630  0.8463
  191DOPC    HY23558   6.106   6.383  13.155 -2.0876 -0.1609  2.0814
  191DOPC   O3123559   6.111   6.449  13.352 -0.4915 -0.4229  0.2472
  191DOPC   C3123560   5.989   6.509  13.345 -0.3863 -0.0525 -0.1908
  191DOPC   O3223561   5.926   6.524  13.243 -0.1868  0.5749  0.2049
  191DOPC   C3223562   5.947   6.556  13.485 -0.6198 -0.3076  0.4079
  191DOPC   H2X23563   5.862   6.496  13.522 -0.7851  1.7710  3.8933
  191DOPC   H2Y23564   6.031   6.551  13.558 -1.2548 -1.7029  1.0853
  191DOPC   C2323565   6.328   6.769  13.611  0.0826  0.0684  0.1889
  191DOPC   H3R23566   6.317   6.673  13.665 -1.6051 -0.1944 -0.5662
  191DOPC   H3S23567   6.232   6.822  13.623  0.1734 -0.1950  2.7042
  191DOPC   C2423568   6.425   6.857  13.699 -0.7509  0.1218 -0.0154
  191DOPC   H4R23569   6.457   6.947  13.643  1.0481 -0.4553  0.0380
  191DOPC   H4S23570   6.519   6.799  13.705 -0.6751  0.3463  1.3617
  191DOPC   C2523571   6.373   6.905  13.837  0.3000 -0.0409  0.0327
  191DOPC   H5R23572   6.288   6.976  13.824  1.3854  1.1688 -0.5846
  191DOPC   H5S23573   6.448   6.960  13.896 -0.4069  0.2676  0.6651
  191DOPC   C2623574   6.331   6.789  13.935  0.6617  0.5244 -0.0856
  191DOPC   H6R23575   6.408   6.709  13.940 -0.6800 -0.7325  1.7565
  191DOPC   H6S23576   6.236   6.743  13.901  0.6933 -0.8100  1.5494
  191DOPC   C2723577   6.311   6.831  14.085 -0.2693 -0.8703 -0.1744
  191DOPC   H7R23578   6.232   6.909  14.086 -0.3918 -0.9441  2.0297
  191DOPC   H7S23579   6.407   6.883  14.109 -0.2741  0.3471 -2.5320
  191DOPC   C2823580   6.281   6.712  14.171 -0.6324  0.6465 -0.4210
  191DOPC   H8R23581   6.377   6.687  14.220 -2.5572  1.3248  4.1948
  191DOPC   H8S23582   6.268   6.619  14.112  0.2487  1.0692 -1.3090
  191DOPC   C2923583   6.163   6.733  14.268 -0.3794  0.1275  1.2214
  191DOPC   H9R23584   6.063   6.689  14.256  0.5705 -1.4067 -2.2316
  191DOPC  C21023585   6.174   6.799  14.381  0.0017  0.7391 -0.5738
  191DOPC  H10R23586   6.079   6.830  14.428  1.3899  3.3402  0.7802
  191DOPC  C21123587   6.290   6.869  14.443  0.0663  0.2811 -0.0613
  191DOPC  H11R23588   6.361   6.903  14.365  0.0197  0.3271 -0.0838
  191DOPC  H11S23589   6.343   6.799  14.511 -1.3071  2.6018  3.7086
  191DOPC  C21223590   6.245   6.993  14.530 -0.3349  0.2709 -0.6564
  191DOPC  H12R23591   6.176   7.066  14.481 -1.8139  0.5503  1.6888
  191DOPC  H12S23592   6.341   7.045  14.549  0.5206 -0.5250 -2.5593
  191DOPC  C21323593   6.182   6.953  14.667  0.6904  0.5122 -0.3206
  191DOPC  H13R23594   6.252   6.889  14.726 -0.1602 -1.2056 -1.1040
  191DOPC  H13S23595   6.099   6.882  14.647  1.3584 -0.3220 -0.2143
  191DOPC  C21423596   6.151   7.081  14.750 -0.7401 -0.4517  0.2342
  191DOPC  H14R23597   6.095   7.040  14.836  2.9181 -0.2770  2.9571
  191DOPC  H14S23598   6.083   7.151  14.697  1.3964  0.5583 -1.3718
  191DOPC  C21523599   6.279   7.154  14.795 -0.5463  0.5675 -0.1856
  191DOPC  H15R23600   6.323   7.206  14.708  0.3528  0.2192  0.0551
  191DOPC  H15S23601   6.345   7.070  14.825  1.2345  2.6216  1.9997
  191DOPC  C21623602   6.275   7.250  14.913  0.2861 -0.0476 -0.8171
  191DOPC  H16R23603   6.218   7.205  14.998  0.4990 -1.0235 -1.1828
  191DOPC  H16S23604   6.217   7.340  14.886 -1.3453 -1.0545 -0.8100
  191DOPC  C21723605   6.413   7.307  14.937 -0.1325 -0.3308 -0.7306
  191DOPC  H17R23606   6.491   7.236  14.972 -1.5595 -1.0633  1.0985
  191DOPC  H17S23607   6.401   7.383  15.017 -1.4876 -0.0021 -1.2124
  191DOPC  C21823608   6.457   7.398  14.817 -0.2785  0.0447  0.0904
  191DOPC  H18R23609   6.374   7.453  14.768  0.8956 -1.3906 -3.9446
  191DOPC  H18S23610   6.494   7.334  14.734 -0.0392  2.6040 -1.9176
  191DOPC  H18T23611   6.544   7.463  14.839 -1.0755  1.5985 -1.1309
  191DOPC   C3323612   5.908   6.705  13.498 -0.3626 -0.3970 -0.0179
  191DOPC   H3X23613   5.843   6.729  13.411  0.6147 -3.8497 -1.8798
  191DOPC   H3Y23614   6.004   6.760  13.492  0.7916 -2.4833 -2.9097
  191DOPC   C3423615   5.820   6.735  13.618 -0.1503 -0.0159  0.7178
  191DOPC   H4X23616   5.750   6.650  13.632  1.9843 -1.9915  0.1271
  191DOPC   H4Y23617   5.762   6.829  13.605 -1.3818 -0.7272  0.9188
  191DOPC   C3523618   5.902   6.760  13.739  0.1277  0.2027 -0.3606
  191DOPC   H5X23619   5.977   6.840  13.726  1.7967 -1.4566 -1.4185
  191DOPC   H5Y23620   5.964   6.670  13.762 -0.0112 -0.0066 -0.7919
  191DOPC   C3623621   5.813   6.782  13.861  0.3176  0.1231 -0.6783
  191DOPC   H6X23622   5.780   6.887  13.849  0.4260  0.3346  0.7725
  191DOPC   H6Y23623   5.730   6.709  13.846  0.5175  0.1967 -2.3161
  191DOPC   C3723624   5.887   6.777  13.991  0.4129 -0.5937  0.4438
  191DOPC   H7X23625   5.928   6.675  14.006  1.1901 -0.6640 -1.6995
  191DOPC   H7Y23626   5.979   6.839  13.980  0.8003 -1.3803 -0.9638
  191DOPC   C3823627   5.809   6.826  14.117 -0.3163  0.4718  0.8531
  191DOPC   H8X23628   5.773   6.928  14.092 -1.5290 -0.0764  0.2319
  191DOPC   H8Y23629   5.892   6.845  14.188  3.0594 -2.4785 -1.8520
  191DOPC   C3923630   5.703   6.728  14.163  0.4010 -0.6291 -0.3910
  191DOPC   H9X23631   5.634   6.697  14.083 -0.7919 -2.6683  1.3220
  191DOPC  C31023632   5.703   6.660  14.275 -0.2538  0.1198  0.3003
  191DOPC  H10X23633   5.625   6.583  14.285  1.3260 -1.5440  0.2923
  191DOPC  C31123634   5.776   6.704  14.402  0.5953  0.3612 -0.1643
  191DOPC  H11X23635   5.772   6.815  14.406  0.8488  0.4502 -1.6198
  191DOPC  H11Y23636   5.878   6.663  14.419  0.1770 -0.3624  0.6725
  191DOPC  C31223637   5.710   6.655  14.537  0.2221  0.4249 -0.5345
  191DOPC  H12X23638   5.610   6.702  14.544  1.6433  3.5458  0.7538
  191DOPC  H12Y23639   5.760   6.695  14.628 -1.3730 -0.5646  0.8356
  191DOPC  C31323640   5.697   6.500  14.556 -0.5514 -0.8177  0.0763
  191DOPC  H13X23641   5.642   6.461  14.468  0.6236  2.4210 -2.3048
  191DOPC  H13Y23642   5.802   6.465  14.557  0.7316  2.6478  1.4042
  191DOPC  C31423643   5.632   6.463  14.686 -0.4482  0.6931 -0.0536
  191DOPC  H14X23644   5.718   6.451  14.755  0.9373  1.6325 -1.5595
  191DOPC  H14Y23645   5.560   6.531  14.737  0.8095 -0.2439  3.2798
  191DOPC  C31523646   5.565   6.327  14.691  0.0128 -0.3133  0.4521
  191DOPC  H15X23647   5.620   6.258  14.623  1.7195  1.9000 -0.5537
  191DOPC  H15Y23648   5.457   6.328  14.668  0.1182  1.0039 -0.0554
  191DOPC  C31623649   5.582   6.269  14.834 -1.0081  0.2994  0.6743
  191DOPC  H16X23650   5.691   6.273  14.854 -0.3877 -0.1316 -2.1648
  191DOPC  H16Y23651   5.534   6.333  14.911 -1.4649  0.0759  0.5789
  191DOPC  C31723652   5.532   6.126  14.848 -0.1958  0.1126  0.4467
  191DOPC  H17X23653   5.429   6.112  14.809  0.8389  0.1979 -2.6064
  191DOPC  H17Y23654   5.587   6.057  14.781 -2.2548 -0.7252 -0.4654
  191DOPC  C31823655   5.555   6.065  14.987 -0.1121 -0.2803  0.2251
  191DOPC  H18X23656   5.510   6.136  15.060 -0.3230  2.1719 -2.1575
  191DOPC  H18Y23657   5.526   5.958  14.981  0.2218 -0.3839  0.4064
  191DOPC  H18Z23658   5.660   6.071  15.023  0.4257 -0.9867 -1.1733
  192DOPC     N23659   0.898   3.995  12.312  0.1574  0.4500  0.5145
  192DOPC   C1223660   0.889   3.850  12.363  0.7928  0.5670  0.1438
  192DOPC  H12A23661   0.967   3.837  12.436 -1.2734  0.4237  2.4463
  192DOPC  H12B23662   0.915   3.786  12.280  1.3415  0.4387  0.4126
  192DOPC   C1323663   0.884   4.093  12.425 -0.0705 -0.1016  0.4584
  192DOPC  H13A23664   0.875   4.197  12.395 -0.6966 -0.4641 -0.6942
  192DOPC  H13B23665   0.793   4.071  12.479 -0.7017 -0.7575 -0.8233
  192DOPC  H13C23666   0.969   4.084  12.491 -0.6629  1.3573  1.4709
  192DOPC   C1423667   0.789   4.027  12.210 -0.1848 -0.0196 -0.2042
  192DOPC  H14A23668   0.794   3.956  12.128 -1.4783 -1.1322  0.6329
  192DOPC  H14B23669   0.690   4.008  12.249  0.2918 -3.4569 -0.3300
  192DOPC  H14C23670   0.795   4.131  12.183 -0.7014  0.3106  0.9147
  192DOPC   C1523671   1.027   4.004  12.242 -0.4886 -0.1416 -0.1520
  192DOPC  H15A23672   1.040   3.927  12.167 -0.7639 -0.5655  0.2305
  192DOPC  H15B23673   1.114   4.005  12.307 -0.8838  0.7443  0.3772
  192DOPC  H15C23674   1.044   4.101  12.197  2.2219 -0.0662  0.8656
  192DOPC   C1123675   0.754   3.802  12.406 -0.1069 -0.5261  0.0734
  192DOPC  H11A23676   0.680   3.813  12.323 -2.6132  0.4398  2.3142
  192DOPC  H11B23677   0.771   3.693  12.424  1.3890 -0.3390 -0.0828
  192DOPC     P23678   0.710   3.792  12.659 -0.1641  0.4973 -0.0255
  192DOPC   O1323679   0.832   3.831  12.732  0.1476  0.4662  0.2329
  192DOPC   O1423680   0.677   3.649  12.643 -0.3336 -0.2630 -0.0923
  192DOPC   O1223681   0.708   3.870  12.521  0.0080  0.3993  0.5212
  192DOPC   O1123682   0.591   3.843  12.743 -0.1407 -0.8092  0.2909
  192DOPC    C123683   0.596   3.973  12.808  0.7166 -0.6416  0.2021
  192DOPC    HA23684   0.503   4.032  12.794  0.4179 -0.9375  0.9014
  192DOPC    HB23685   0.674   4.042  12.769 -0.1433 -0.4734 -1.2630
  192DOPC    C223686   0.629   3.958  12.957 -0.3420 -0.1469 -0.0008
  192DOPC    HS23687   0.706   3.879  12.968 -2.5008 -2.4504 -0.5430
  192DOPC   O2123688   0.512   3.921  13.028  0.2229 -0.0106  0.1295
  192DOPC   C2123689   0.533   3.836  13.130  0.2848 -0.0057 -0.1590
  192DOPC   O2223690   0.642   3.795  13.161 -0.6981 -0.1697  0.3055
  192DOPC   C2223691   0.397   3.806  13.200  0.2480  0.2512 -0.0081
  192DOPC   H2R23692   0.344   3.712  13.174 -2.5550  1.6812  0.1354
  192DOPC   H2S23693   0.333   3.895  13.179  0.9119  0.7758  0.1737
  192DOPC    C323694   0.683   4.094  13.010 -0.5525 -0.1566  0.5343
  192DOPC    HX23695   0.626   4.177  12.962 -1.7944  0.6151  3.1101
  192DOPC    HY23696   0.781   4.112  12.961 -0.6854 -0.2063  0.2446
  192DOPC   O3123697   0.684   4.100  13.151  0.3761 -0.3176 -0.7184
  192DOPC   C3123698   0.752   4.206  13.198 -0.0621 -0.2376  0.2209
  192DOPC   O3223699   0.818   4.281  13.128 -0.2781 -0.3507  0.5487
  192DOPC   C3223700   0.740   4.213  13.348 -0.0630 -0.1674 -0.0159
  192DOPC   H2X23701   0.808   4.297  13.374 -0.1323  0.6382 -2.1747
  192DOPC   H2Y23702   0.636   4.252  13.354  0.4731  1.3786 -0.1053
  192DOPC   C2323703   0.424   3.796  13.349 -0.0168 -0.0307  0.0226
  192DOPC   H3R23704   0.501   3.871  13.377 -0.8220  0.9542 -0.3519
  192DOPC   H3S23705   0.446   3.691  13.379 -1.3521 -0.1896  0.5163
  192DOPC   C2423706   0.299   3.813  13.435  0.4099  0.1104 -0.0249
  192DOPC   H4R23707   0.215   3.754  13.393 -2.4836  2.7520  1.6382
  192DOPC   H4S23708   0.274   3.921  13.431 -0.2308 -0.0582 -0.7219
  192DOPC   C2523709   0.317   3.765  13.577  0.4536 -0.7938  0.0358
  192DOPC   H5R23710   0.399   3.690  13.582  1.0858 -0.2348 -1.3076
  192DOPC   H5S23711   0.226   3.715  13.615 -0.4767  1.3537  0.8151
  192DOPC   C2623712   0.347   3.873  13.678 -0.1964  0.0340  0.3900
  192DOPC   H6R23713   0.272   3.955  13.680 -0.4341 -0.1446  3.0402
  192DOPC   H6S23714   0.442   3.924  13.653  0.8439 -2.2572 -0.6122
  192DOPC   C2723715   0.340   3.815  13.822  0.5530  0.5680 -0.5019
  192DOPC   H7R23716   0.395   3.719  13.831 -3.2645 -1.9652 -1.6990
  192DOPC   H7S23717   0.232   3.794  13.839  0.6959 -0.7120 -1.0408
  192DOPC   C2823718   0.388   3.911  13.941  0.2837  0.2939  0.0852
  192DOPC   H8R23719   0.487   3.959  13.929  0.5904 -0.4265 -0.3299
  192DOPC   H8S23720   0.404   3.837  14.022 -3.3839 -4.2006 -2.7967
  192DOPC   C2923721   0.282   4.015  13.987 -0.5030  0.2716  0.6200
  192DOPC   H9R23722   0.267   4.096  13.914 -0.5305  0.2482  0.5997
  192DOPC  C21023723   0.206   4.023  14.096 -0.1890  0.6324 -0.0480
  192DOPC  H10R23724   0.139   4.108  14.113  0.1543  0.9814 -0.4285
  192DOPC  C21123725   0.208   3.921  14.213  0.2608 -0.1714  0.2023
  192DOPC  H11R23726   0.226   3.818  14.175 -0.4595 -0.5979  0.9803
  192DOPC  H11S23727   0.103   3.919  14.250 -0.7936  0.9706 -2.5116
  192DOPC  C21223728   0.302   3.972  14.317  0.2648 -0.5344  0.1985
  192DOPC  H12R23729   0.276   4.070  14.364 -1.0718  0.4358 -2.3555
  192DOPC  H12S23730   0.399   3.984  14.265  0.8914 -3.1049  0.6767
  192DOPC  C21323731   0.347   3.877  14.426 -0.3007 -0.2620  0.5175
  192DOPC  H13R23732   0.256   3.853  14.485  0.5952 -1.1309  1.6019
  192DOPC  H13S23733   0.418   3.916  14.502  0.7742  2.2853 -1.6348
  192DOPC  C21423734   0.405   3.742  14.373  0.3775 -0.0933 -0.0630
  192DOPC  H14R23735   0.512   3.765  14.359  0.3178 -0.6316 -1.6105
  192DOPC  H14S23736   0.359   3.704  14.279  0.2106 -0.9180  0.3420
  192DOPC  C21523737   0.385   3.632  14.484  0.1668  0.4045 -0.0526
  192DOPC  H15R23738   0.276   3.624  14.504  0.0627  0.5845 -0.5341
  192DOPC  H15S23739   0.424   3.675  14.579 -0.4117  1.0049 -0.0789
  192DOPC  C21623740   0.458   3.503  14.446  0.4832 -0.0419 -0.3417
  192DOPC  H16R23741   0.564   3.533  14.427 -0.3207  2.3056 -1.4584
  192DOPC  H16S23742   0.421   3.460  14.350  0.8126  0.9855 -0.9387
  192DOPC  C21723743   0.458   3.407  14.561  0.1634  0.3247  0.0580
  192DOPC  H17R23744   0.357   3.362  14.560  0.2025  0.2386 -0.5730
  192DOPC  H17S23745   0.474   3.459  14.658  0.6164  0.5723 -0.1467
  192DOPC  C21823746   0.568   3.303  14.548  0.6715 -0.0862  0.9502
  192DOPC  H18R23747   0.547   3.246  14.455 -0.6308  1.6663  0.1111
  192DOPC  H18S23748   0.572   3.238  14.638 -0.4507 -0.7812  0.5226
  192DOPC  H18T23749   0.667   3.352  14.535  0.6574  0.7113  3.2668
  192DOPC   C3323750   0.755   4.078  13.417 -0.0866 -0.1561  0.4516
  192DOPC   H3X23751   0.862   4.052  13.398 -0.3231 -0.7299 -0.1285
  192DOPC   H3Y23752   0.675   4.007  13.386 -0.6395 -0.2235  1.9910
  192DOPC   C3423753   0.730   4.093  13.566 -0.1581 -0.1702  0.1205
  192DOPC   H4X23754   0.631   4.143  13.569 -0.9218 -1.0004 -4.0154
  192DOPC   H4Y23755   0.798   4.172  13.604 -0.5517  0.9147 -1.3185
  192DOPC   C3523756   0.739   3.969  13.653 -0.4618 -0.5600  0.0081
  192DOPC   H5X23757   0.693   3.879  13.607  0.3224 -0.5878 -0.7440
  192DOPC   H5Y23758   0.686   3.980  13.750 -0.2752 -0.7772  0.1344
  192DOPC   C3623759   0.886   3.947  13.698 -0.2060  0.0273  0.1362
  192DOPC   H6X23760   0.951   3.916  13.613  0.3820  0.9195  0.2482
  192DOPC   H6Y23761   0.919   4.044  13.740 -2.3574  0.9186 -0.0750
  192DOPC   C3723762   0.906   3.848  13.816  0.2246  0.4049  0.0682
  192DOPC   H7X23763   0.819   3.840  13.886 -0.0263 -1.2736 -0.3971
  192DOPC   H7Y23764   0.909   3.753  13.759 -0.8064  0.6747 -0.4688
  192DOPC   C3823765   1.033   3.868  13.904  0.0608 -0.9937  0.2270
  192DOPC   H8X23766   1.044   3.973  13.939  1.8916 -0.9762 -0.3224
  192DOPC   H8Y23767   1.124   3.855  13.841 -0.1989  1.2245 -0.7069
  192DOPC   C3923768   1.025   3.777  14.021 -0.2015  0.3090  0.4880
  192DOPC   H9X23769   1.000   3.671  14.007  1.9553 -0.2123  0.2217
  192DOPC  C31023770   1.048   3.822  14.151 -0.3564 -0.1155 -0.2974
  192DOPC  H10X23771   1.037   3.742  14.226  0.5850 -0.3899 -0.4431
  192DOPC  C31123772   1.088   3.961  14.199 -0.1295  0.9165  0.2012
  192DOPC  H11X23773   1.123   4.020  14.112  0.3964  1.3750  0.7115
  192DOPC  H11Y23774   1.175   3.948  14.267 -0.1402  2.3569  0.5266
  192DOPC  C31223775   0.991   4.031  14.285  0.4295 -0.0964  0.0937
  192DOPC  H12X23776   1.053   4.102  14.344  0.8485 -1.9211  1.9866
  192DOPC  H12Y23777   0.945   3.952  14.348 -0.3482  0.1637 -0.1271
  192DOPC  C31323778   0.884   4.114  14.205  0.2742  0.3736 -0.1130
  192DOPC  H13X23779   0.854   4.194  14.276 -0.1372 -0.4965  0.7146
  192DOPC  H13Y23780   0.939   4.154  14.117 -0.1810 -0.3932 -0.7569
  192DOPC  C31423781   0.754   4.043  14.162  0.2698  0.4302 -0.1225
  192DOPC  H14X23782   0.777   3.949  14.107  2.2044 -1.7254  3.8864
  192DOPC  H14Y23783   0.700   4.007  14.252 -0.9894  2.1875 -0.1196
  192DOPC  C31523784   0.651   4.138  14.093  1.2387 -0.3418 -0.9356
  192DOPC  H15X23785   0.637   4.224  14.161 -1.3378 -1.8894  0.6427
  192DOPC  H15Y23786   0.549   4.095  14.089  1.0297 -0.1727  1.2243
  192DOPC  C31623787   0.699   4.200  13.955 -0.3541  0.5943 -0.2584
  192DOPC  H16X23788   0.803   4.233  13.975 -0.0784 -1.1326  1.5558
  192DOPC  H16Y23789   0.695   4.115  13.884 -2.7461 -1.1414  1.7694
  192DOPC  C31723790   0.617   4.319  13.905  0.5964 -0.3613 -0.1245
  192DOPC  H17X23791   0.656   4.403  13.967 -0.6578  0.7431 -0.7701
  192DOPC  H17Y23792   0.635   4.341  13.798  1.6585  2.7596  0.5723
  192DOPC  C31823793   0.468   4.303  13.914  0.0932 -0.2848 -0.0450
  192DOPC  H18X23794   0.435   4.276  14.016 -2.0892 -0.6624 -0.7947
  192DOPC  H18Y23795   0.424   4.403  13.893  1.4942  0.0735 -1.4568
  192DOPC  H18Z23796   0.425   4.230  13.842  0.6058  0.5682 -1.2621
  193DOPC     N23797   0.226   1.637  12.756  0.3123 -0.2176 -0.3594
  193DOPC   C1223798   0.120   1.550  12.696 -0.6960 -0.2166  0.0910
  193DOPC  H12A23799   0.165   1.493  12.616  2.1448  1.6594  0.1883
  193DOPC  H12B23800   0.046   1.612  12.647 -1.3588 -1.6851 -0.8539
  193DOPC   C1323801   0.182   1.684  12.894  0.0368 -0.6635  0.6129
  193DOPC  H13A23802   0.265   1.712  12.957 -0.6444 -1.5730  1.9765
  193DOPC  H13B23803   0.122   1.773  12.894  1.9189  0.6563 -0.1648
  193DOPC  H13C23804   0.128   1.603  12.943 -3.0705  1.3273  0.7603
  193DOPC   C1423805   0.253   1.750  12.668  0.2844 -0.2205  0.3838
  193DOPC  H14A23806   0.334   1.809  12.709  1.2310 -1.7634  0.8241
  193DOPC  H14B23807   0.276   1.714  12.569 -1.7249 -0.1494 -0.1441
  193DOPC  H14C23808   0.166   1.813  12.662  0.0911 -0.6010 -1.2737
  193DOPC   C1523809   0.349   1.560  12.779  0.3304  0.0083  0.1448
  193DOPC  H15A23810   0.345   1.470  12.838 -1.5589  0.1854  0.3696
  193DOPC  H15B23811   0.420   1.631  12.819 -1.1330  0.3390  2.3723
  193DOPC  H15C23812   0.380   1.522  12.683 -0.7703 -0.4036 -0.0698
  193DOPC   C1123813   0.054   1.450  12.795 -0.3271 -0.1878  0.3267
  193DOPC  H11A23814  -0.005   1.380  12.733 -1.5699 -0.1765  1.4602
  193DOPC  H11B23815   0.129   1.387  12.847  0.6529  0.6538 -0.0113
  193DOPC     P23816  -0.170   1.453  12.942 -0.0837  0.2733 -0.2774
  193DOPC   O1323817  -0.267   1.463  12.830 -0.6147 -0.1178 -0.2660
  193DOPC   O1423818  -0.198   1.520  13.071  0.6239 -0.1363 -0.0454
  193DOPC   O1223819  -0.031   1.512  12.889  0.1420  0.0009 -0.2807
  193DOPC   O1123820  -0.145   1.302  12.973  0.6038  0.2255 -0.2971
  193DOPC    C123821  -0.038   1.264  13.060 -0.1928 -0.5545 -0.3443
  193DOPC    HA23822   0.018   1.345  13.112  1.3776 -2.1315  0.5288
  193DOPC    HB23823   0.040   1.216  12.998 -1.2117  0.2894 -2.3756
  193DOPC    C223824  -0.078   1.164  13.176 -0.1311 -0.4625  0.2901
  193DOPC    HS23825   0.013   1.130  13.229 -0.1567 -0.9208  0.0429
  193DOPC   O2123826  -0.144   1.052  13.112 -0.9202  0.3359  0.2195
  193DOPC   C2123827  -0.073   0.952  13.059  0.1138 -0.8115  0.5614
  193DOPC   O2223828   0.051   0.949  13.047  0.4361 -0.0031  0.0774
  193DOPC   C2223829  -0.173   0.847  13.021 -0.0985  0.4323  0.4831
  193DOPC   H2R23830  -0.185   0.846  12.911 -1.1450 -0.3560  0.5891
  193DOPC   H2S23831  -0.273   0.873  13.061  0.2445 -0.5607  2.0952
  193DOPC    C323832  -0.181   1.225  13.279 -0.3596  0.0096 -0.3557
  193DOPC    HX23833  -0.277   1.243  13.225 -1.9295 -0.4767  2.1165
  193DOPC    HY23834  -0.145   1.327  13.304 -0.4170 -0.3049  1.0984
  193DOPC   O3123835  -0.190   1.133  13.399 -0.3095  0.5455 -0.2408
  193DOPC   C3123836  -0.298   1.060  13.406  0.7706  0.9010 -0.3099
  193DOPC   O3223837  -0.399   1.064  13.334 -0.4478  0.3104  0.2965
  193DOPC   C3223838  -0.300   0.991  13.542 -0.1960  0.5764 -1.4977
  193DOPC   H2X23839  -0.200   1.017  13.582 -0.3992 -0.5630 -0.1421
  193DOPC   H2Y23840  -0.382   1.034  13.603  0.5267 -0.8867  0.6242
  193DOPC   C2323841  -0.113   0.712  13.072  0.9063 -0.5946 -0.4896
  193DOPC   H3R23842  -0.007   0.705  13.039  1.3780 -1.0627  1.0495
  193DOPC   H3S23843  -0.169   0.626  13.030 -0.6599  0.0997  0.0981
  193DOPC   C2423844  -0.129   0.685  13.222  0.4773 -0.2850  0.0755
  193DOPC   H4R23845  -0.234   0.708  13.249  0.1260 -1.1853 -0.4467
  193DOPC   H4S23846  -0.068   0.761  13.274  0.6271  0.2571 -0.8591
  193DOPC   C2523847  -0.087   0.548  13.269 -0.1276 -0.1925  0.3185
  193DOPC   H5R23848   0.020   0.538  13.242 -0.4861 -0.7595 -0.9808
  193DOPC   H5S23849  -0.132   0.464  13.213  2.3307 -1.7251  0.5151
  193DOPC   C2623850  -0.094   0.512  13.421 -0.0381 -0.2674  0.8796
  193DOPC   H6R23851  -0.202   0.515  13.448  0.3759  0.4661  2.5713
  193DOPC   H6S23852  -0.040   0.594  13.473  2.4069  0.1909 -2.0910
  193DOPC   C2723853  -0.032   0.382  13.460  0.3001  0.0522 -0.2620
  193DOPC   H7R23854   0.070   0.378  13.416  1.5721 -0.9886  2.5536
  193DOPC   H7S23855  -0.093   0.299  13.419  0.7442 -1.1198  1.3510
  193DOPC   C2823856  -0.017   0.371  13.614  0.4036  0.1890 -0.3981
  193DOPC   H8R23857  -0.120   0.367  13.657  0.4584  0.9227 -0.1820
  193DOPC   H8S23858   0.041   0.456  13.655  1.3526 -0.2397 -0.8255
  193DOPC   C2923859   0.058   0.242  13.651  0.0747  0.1067  0.8608
  193DOPC   H9R23860   0.153   0.223  13.598  0.4265 -0.4508  1.6645
  193DOPC  C21023861   0.029   0.155  13.749 -0.7054 -0.3295 -0.3101
  193DOPC  H10R23862   0.099   0.074  13.774  0.0766  0.6019  0.5973
  193DOPC  C21123863  -0.085   0.167  13.835 -0.1941 -0.3549  0.0871
  193DOPC  H11R23864  -0.174   0.191  13.772  1.6155 -1.4705 -3.1334
  193DOPC  H11S23865  -0.070   0.249  13.908 -0.6120  0.0493 -0.2709
  193DOPC  C21223866  -0.116   0.036  13.908  0.2901  0.0203 -0.1917
  193DOPC  H12R23867  -0.129  -0.042  13.830 -0.4975  0.2750 -0.3280
  193DOPC  H12S23868  -0.212   0.055  13.960 -0.7105 -1.6544 -1.3315
  193DOPC  C21323869  -0.007   0.004  14.011 -1.1481 -0.1446  0.1092
  193DOPC  H13R23870  -0.007   0.092  14.079  1.2657  0.9234 -1.1689
  193DOPC  H13S23871   0.096  -0.004  13.973 -1.3276 -0.6023 -0.2844
  193DOPC  C21423872  -0.040  -0.120  14.088  0.4379  0.4688  0.4234
  193DOPC  H14R23873   0.012  -0.212  14.052  1.1236  0.9346  0.2058
  193DOPC  H14S23874  -0.148  -0.145  14.077  0.9126 -1.2661 -0.8872
  193DOPC  C21523875  -0.021  -0.097  14.235  0.4775  0.1837  0.1625
  193DOPC  H15R23876  -0.079  -0.009  14.271  3.4978  2.7592 -0.8271
  193DOPC  H15S23877   0.084  -0.079  14.264  0.0624 -0.8605  2.5549
  193DOPC  C21623878  -0.067  -0.216  14.329 -0.1605  0.4075  0.1092
  193DOPC  H16R23879  -0.166  -0.260  14.305  0.5800  0.0718 -2.7687
  193DOPC  H16S23880  -0.073  -0.176  14.432  0.9226 -0.3200  0.4742
  193DOPC  C21723881   0.038  -0.324  14.337  0.8416 -0.1420 -0.0448
  193DOPC  H17R23882   0.131  -0.277  14.375 -1.0793  5.1737 -1.1452
  193DOPC  H17S23883   0.058  -0.364  14.235  0.5491 -1.6023  0.4448
  193DOPC  C21823884  -0.014  -0.448  14.423  0.2911 -1.0849 -1.0348
  193DOPC  H18R23885  -0.023  -0.418  14.529 -0.3894  0.7223 -1.5658
  193DOPC  H18S23886   0.050  -0.539  14.420  1.2392 -0.4996  0.4004
  193DOPC  H18T23887  -0.117  -0.479  14.395 -0.7558  1.3560 -0.0928
  193DOPC   C3323888  -0.317   0.836  13.536  0.4522  0.5015  0.5313
  193DOPC   H3X23889  -0.227   0.780  13.503 -0.6160  0.4485 -2.5524
  193DOPC   H3Y23890  -0.382   0.816  13.449 -0.8389 -0.6997  1.7183
  193DOPC   C3423891  -0.366   0.764  13.661  0.0753  0.1348 -0.6961
  193DOPC   H4X23892  -0.476   0.757  13.675  0.2089 -0.4245  0.2030
  193DOPC   H4Y23893  -0.340   0.830  13.746  2.8873 -2.5710  0.7421
  193DOPC   C3523894  -0.298   0.629  13.698 -0.1411  0.1595 -0.4788
  193DOPC   H5X23895  -0.189   0.644  13.689  0.2735 -0.7386  2.1026
  193DOPC   H5Y23896  -0.330   0.550  13.627  1.4558 -0.5954 -0.4107
  193DOPC   C3623897  -0.338   0.592  13.845  0.4087 -0.1514  0.8684
  193DOPC   H6X23898  -0.319   0.666  13.926  1.1312 -0.2829  0.8250
  193DOPC   H6Y23899  -0.448   0.578  13.850  0.4101 -0.3752  0.3039
  193DOPC   C3723900  -0.285   0.452  13.886  0.3635  0.0242  0.4478
  193DOPC   H7X23901  -0.331   0.375  13.821  0.2493 -0.1026  0.6738
  193DOPC   H7Y23902  -0.175   0.440  13.884  0.4528 -0.4212  3.2531
  193DOPC   C3823903  -0.305   0.415  14.035  0.1839  0.0366  0.2974
  193DOPC   H8X23904  -0.264   0.500  14.094  2.6393 -1.5324  1.0028
  193DOPC   H8Y23905  -0.242   0.329  14.066  0.7031  0.8743  1.6615
  193DOPC   C3923906  -0.451   0.399  14.073 -0.1288  0.7535 -0.4776
  193DOPC   H9X23907  -0.532   0.454  14.024 -1.1504 -0.5954 -0.3506
  193DOPC  C31023908  -0.488   0.314  14.173 -0.2981 -0.2187  0.0663
  193DOPC  H10X23909  -0.591   0.314  14.210  0.2799  0.0880  1.7818
  193DOPC  C31123910  -0.403   0.228  14.257 -0.0547  0.1149 -0.1343
  193DOPC  H11X23911  -0.295   0.231  14.234 -0.2081 -0.6178 -1.0003
  193DOPC  H11Y23912  -0.439   0.123  14.254  1.1660 -0.6477  4.2841
  193DOPC  C31223913  -0.420   0.271  14.410  0.7024  0.6709 -0.1777
  193DOPC  H12X23914  -0.523   0.244  14.440  0.5350  0.8375 -0.5930
  193DOPC  H12Y23915  -0.399   0.380  14.422  0.3036  0.9154 -1.4945
  193DOPC  C31323916  -0.319   0.193  14.497 -0.0738  0.2929 -0.1622
  193DOPC  H13X23917  -0.219   0.207  14.450  0.6210 -0.8298  0.8801
  193DOPC  H13Y23918  -0.309   0.218  14.605 -0.1111 -0.4893  0.0295
  193DOPC  C31423919  -0.342   0.036  14.497 -0.3281  0.9282 -0.0151
  193DOPC  H14X23920  -0.451   0.018  14.502  0.1867 -2.6395  0.9671
  193DOPC  H14Y23921  -0.306  -0.014  14.405  0.9652 -0.5219  1.2126
  193DOPC  C31523922  -0.279  -0.034  14.618 -0.2993  0.6459 -0.7821
  193DOPC  H15X23923  -0.331   0.011  14.705 -0.1095 -1.5220  0.5226
  193DOPC  H15Y23924  -0.171  -0.007  14.624 -0.3804  1.0680 -1.1965
  193DOPC  C31623925  -0.313  -0.190  14.624 -0.9413 -0.5259  0.2543
  193DOPC  H16X23926  -0.423  -0.186  14.612 -1.1486 -1.0024  1.7732
  193DOPC  H16Y23927  -0.262  -0.244  14.541 -1.4263 -1.6666  0.6776
  193DOPC  C31723928  -0.281  -0.273  14.752 -0.1919  0.8578 -0.4235
  193DOPC  H17X23929  -0.171  -0.269  14.769  0.4549 -3.6915 -2.1186
  193DOPC  H17Y23930  -0.325  -0.237  14.847  1.5301  2.2302 -0.0855
  193DOPC  C31823931  -0.315  -0.424  14.725  0.0597  0.9818 -0.1076
  193DOPC  H18X23932  -0.425  -0.439  14.714  0.3453 -1.0339 -0.5833
  193DOPC  H18Y23933  -0.264  -0.458  14.632 -0.3459 -1.8087  0.6268
  193DOPC  H18Z23934  -0.286  -0.489  14.809  1.4495 -1.7910 -2.5713
  194DOPC     N23935   2.238   0.175  12.408 -0.1666 -0.1970 -0.1393
  194DOPC   C1223936   2.188   0.140  12.545 -0.0072  0.6295 -0.2264
  194DOPC  H12A23937   2.261   0.180  12.614 -1.2874  0.2058  1.4234
  194DOPC  H12B23938   2.199   0.033  12.555  3.0600  0.7881 -0.7011
  194DOPC   C1323939   2.360   0.091  12.378  0.0573  1.1488  0.2964
  194DOPC  H13A23940   2.432   0.106  12.457  0.1309  1.8513  0.1072
  194DOPC  H13B23941   2.338  -0.014  12.382 -1.7113  1.4925  0.6751
  194DOPC  H13C23942   2.405   0.113  12.282 -0.2969 -1.4942 -0.5564
  194DOPC   C1423943   2.266   0.323  12.404  0.0353 -0.1481 -0.2232
  194DOPC  H14A23944   2.170   0.370  12.420 -0.0542  0.0082 -1.1655
  194DOPC  H14B23945   2.333   0.361  12.480 -1.4121  1.9647  0.1010
  194DOPC  H14C23946   2.308   0.340  12.306 -0.1745 -1.3756 -0.5383
  194DOPC   C1523947   2.133   0.150  12.301  0.4544 -0.2686 -0.3153
  194DOPC  H15A23948   2.039   0.201  12.318  0.4375 -0.4509  0.1518
  194DOPC  H15B23949   2.108   0.047  12.283  0.2251  0.1788 -2.9319
  194DOPC  H15C23950   2.173   0.189  12.208  0.2972  0.1582 -0.2084
  194DOPC   C1123951   2.054   0.197  12.597 -0.1949  0.4496  0.6836
  194DOPC  H11A23952   1.975   0.174  12.522  1.4579 -1.4640 -0.5777
  194DOPC  H11B23953   2.036   0.131  12.685  1.9350 -1.5228 -0.2501
  194DOPC     P23954   2.152   0.386  12.744 -0.1998  0.0576 -0.0371
  194DOPC   O1323955   2.067   0.443  12.848 -0.1519  0.0242 -0.3326
  194DOPC   O1423956   2.260   0.468  12.681 -0.2423 -0.2711  0.5921
  194DOPC   O1223957   2.067   0.336  12.625  0.5405  0.7967  0.8744
  194DOPC   O1123958   2.220   0.253  12.797 -0.2711 -0.5178 -0.0215
  194DOPC    C123959   2.160   0.189  12.912  0.1704 -0.6840  0.6508
  194DOPC    HA23960   2.191   0.082  12.919  0.0278 -0.6928  1.1459
  194DOPC    HB23961   2.049   0.184  12.903  0.2417  0.7997 -2.2264
  194DOPC    C223962   2.201   0.253  13.050 -0.0992  0.4095  0.5088
  194DOPC    HS23963   2.173   0.360  13.050  0.7621  0.6633 -1.2921
  194DOPC   O2123964   2.345   0.236  13.067  0.2367 -0.1621  0.0742
  194DOPC   C2123965   2.404   0.331  13.142  0.3352 -0.3718  0.1122
  194DOPC   O2223966   2.358   0.443  13.166  0.5199 -0.1070  0.5549
  194DOPC   C2223967   2.541   0.273  13.196 -0.4345 -0.8793 -0.2289
  194DOPC   H2R23968   2.616   0.328  13.135  0.1936 -0.1471  1.1524
  194DOPC   H2S23969   2.546   0.166  13.169 -0.0666 -1.6518  2.5856
  194DOPC    C323970   2.114   0.195  13.165  0.6013 -0.3493 -0.4374
  194DOPC    HX23971   2.091   0.086  13.164 -0.4844 -0.1185 -0.9925
  194DOPC    HY23972   2.011   0.230  13.146 -0.1505 -2.1672  0.1053
  194DOPC   O3123973   2.162   0.252  13.294 -0.2581 -0.3231  0.0453
  194DOPC   C3123974   2.066   0.243  13.386 -0.3186 -0.6500 -0.2951
  194DOPC   O3223975   1.956   0.194  13.371  0.0846 -0.1407 -0.2950
  194DOPC   C3223976   2.118   0.316  13.512  0.2572  0.3662 -0.1944
  194DOPC   H2X23977   2.229   0.309  13.512  0.4055  2.1410  0.8533
  194DOPC   H2Y23978   2.093   0.424  13.513 -2.9364 -0.2548 -1.0444
  194DOPC   C2323979   2.559   0.299  13.346 -0.5027 -0.8289  0.0847
  194DOPC   H3R23980   2.515   0.397  13.371 -0.3805 -0.6834 -0.2645
  194DOPC   H3S23981   2.669   0.317  13.353 -0.8964  3.0768 -1.5130
  194DOPC   C2423982   2.505   0.180  13.437  0.0574 -0.5134 -0.2471
  194DOPC   H4R23983   2.546   0.080  13.411 -1.0077 -1.6296  2.1013
  194DOPC   H4S23984   2.397   0.177  13.412  0.0012  3.8222 -1.3836
  194DOPC   C2523985   2.550   0.202  13.584 -0.0674 -0.2115  0.1354
  194DOPC   H5R23986   2.511   0.301  13.616 -0.0076  0.2077 -1.0137
  194DOPC   H5S23987   2.661   0.198  13.584  0.1075  2.0108 -1.9382
  194DOPC   C2623988   2.491   0.101  13.686 -0.2401  0.4456  0.4230
  194DOPC   H6R23989   2.510  -0.003  13.653 -1.8245 -0.0816  1.1127
  194DOPC   H6S23990   2.383   0.124  13.700 -1.4112 -1.8206 -3.3679
  194DOPC   C2723991   2.554   0.132  13.818 -0.3500  0.5356 -0.1058
  194DOPC   H7R23992   2.529   0.234  13.853  2.9858  0.9804  1.3214
  194DOPC   H7S23993   2.664   0.138  13.808 -0.5388  2.3126 -1.8036
  194DOPC   C2823994   2.515   0.030  13.929 -0.1010 -0.0801 -0.0760
  194DOPC   H8R23995   2.404   0.022  13.931 -0.0682 -0.9113 -0.9655
  194DOPC   H8S23996   2.551   0.065  14.028 -0.0636 -2.1936  0.7074
  194DOPC   C2923997   2.578  -0.106  13.911  0.3124  0.0258 -0.2353
  194DOPC   H9R23998   2.543  -0.146  13.814 -2.2801  1.7447 -0.1195
  194DOPC  C21023999   2.672  -0.171  13.988  0.3487 -1.1269 -0.1038
  194DOPC  H10R24000   2.707  -0.262  13.938 -0.5025 -1.2705 -0.4648
  194DOPC  C21124001   2.731  -0.131  14.122  0.7187  0.6739 -0.4342
  194DOPC  H11R24002   2.714  -0.023  14.141 -1.3292  0.6084 -1.5293
  194DOPC  H11S24003   2.840  -0.151  14.122  0.8103  0.7153  3.0102
  194DOPC  C21224004   2.671  -0.211  14.241  0.0117  0.7186  0.1529
  194DOPC  H12R24005   2.734  -0.190  14.330 -0.9515 -1.2953  1.3917
  194DOPC  H12S24006   2.690  -0.319  14.227 -1.6266  0.3209  0.7484
  194DOPC  C21324007   2.520  -0.192  14.257  0.0687 -0.2327 -0.6337
  194DOPC  H13R24008   2.472  -0.255  14.179 -2.1008  0.0945  0.3698
  194DOPC  H13S24009   2.490  -0.086  14.246 -0.7606 -0.1897  1.6406
  194DOPC  C21424010   2.469  -0.247  14.390  0.0683 -0.5504 -0.0782
  194DOPC  H14R24011   2.359  -0.240  14.397  0.1770 -0.4705  2.5549
  194DOPC  H14S24012   2.498  -0.185  14.478 -1.1859 -1.8073  1.2691
  194DOPC  C21524013   2.495  -0.396  14.398  0.1116  1.1959  0.1193
  194DOPC  H15R24014   2.606  -0.404  14.407  0.3776  0.4429 -2.8949
  194DOPC  H15S24015   2.456  -0.451  14.310  1.0154 -0.8954  0.9488
  194DOPC  C21624016   2.435  -0.463  14.519 -0.1380 -0.2423  0.2904
  194DOPC  H16R24017   2.328  -0.434  14.519 -0.1131 -0.0172 -1.3894
  194DOPC  H16S24018   2.484  -0.418  14.608  0.4881 -2.0957  0.9197
  194DOPC  C21724019   2.452  -0.614  14.512  0.2574  0.2561 -0.1010
  194DOPC  H17R24020   2.557  -0.649  14.500 -0.3730 -1.0136 -2.4409
  194DOPC  H17S24021   2.387  -0.662  14.436 -0.1081 -0.6645  0.7762
  194DOPC  C21824022   2.386  -0.674  14.645 -0.1678 -0.4583 -0.4913
  194DOPC  H18R24023   2.375  -0.783  14.627  1.4785 -0.6585 -0.4211
  194DOPC  H18S24024   2.285  -0.630  14.664 -0.6254 -1.2645 -0.9947
  194DOPC  H18T24025   2.452  -0.669  14.734  0.1468  1.2500 -0.7803
  194DOPC   C3324026   2.057   0.248  13.640 -0.2761  0.5563 -0.3429
  194DOPC   H3X24027   2.039   0.140  13.618  0.8091  0.2142  0.3878
  194DOPC   H3Y24028   1.952   0.280  13.658 -1.3803 -2.8069 -0.0196
  194DOPC   C3424029   2.125   0.265  13.771  0.4655  0.8236 -0.5848
  194DOPC   H4X24030   2.230   0.300  13.759  0.0063  4.3494  3.2578
  194DOPC   H4Y24031   2.130   0.169  13.827 -1.1853  1.8173  1.3891
  194DOPC   C3524032   2.063   0.366  13.872 -0.0217 -0.2832 -0.0229
  194DOPC   H5X24033   2.045   0.459  13.814  2.5631 -0.9644 -2.1425
  194DOPC   H5Y24034   2.141   0.393  13.947  0.5679  0.9950 -1.0424
  194DOPC   C3624035   1.928   0.323  13.937  0.6747  0.0378 -0.0317
  194DOPC   H6X24036   1.844   0.348  13.868 -0.0197 -1.6890  0.1609
  194DOPC   H6Y24037   1.932   0.214  13.957  1.4198 -0.0757 -0.7342
  194DOPC   C3724038   1.903   0.403  14.069 -0.1210 -0.8476  0.2146
  194DOPC   H7X24039   2.001   0.415  14.119 -0.3790 -0.5701  0.6688
  194DOPC   H7Y24040   1.876   0.511  14.057 -0.7124 -0.7376  2.1567
  194DOPC   C3824041   1.806   0.338  14.166 -0.3426  0.4631  0.3838
  194DOPC   H8X24042   1.845   0.245  14.212 -0.0334  0.0485 -0.7035
  194DOPC   H8Y24043   1.711   0.312  14.115  0.1796  0.4552 -0.6036
  194DOPC   C3924044   1.776   0.428  14.276  0.2700  0.2573 -0.8409
  194DOPC   H9X24045   1.721   0.513  14.232 -1.7692 -0.2232  0.6593
  194DOPC  C31024046   1.819   0.434  14.404 -0.3021  0.4366 -0.2426
  194DOPC  H10X24047   1.781   0.510  14.474  1.9837  0.9888  0.4894
  194DOPC  C31124048   1.897   0.330  14.471  0.0627  0.5467 -0.6260
  194DOPC  H11X24049   1.986   0.383  14.513  0.4541 -0.3919 -0.2287
  194DOPC  H11Y24050   1.936   0.242  14.415 -0.2316 -1.2987  1.8871
  194DOPC  C31224051   1.818   0.267  14.598  0.6803  0.3327 -0.5177
  194DOPC  H12X24052   1.888   0.211  14.664 -0.4298 -1.4078 -0.7753
  194DOPC  H12Y24053   1.738   0.199  14.563  0.4581  0.1889  0.2466
  194DOPC  C31324054   1.757   0.372  14.699  0.2734 -0.2334 -0.3039
  194DOPC  H13X24055   1.823   0.458  14.724 -1.5210  1.7554 -1.9762
  194DOPC  H13Y24056   1.666   0.414  14.651  1.4028  3.1993  0.2501
  194DOPC  C31424057   1.717   0.303  14.831 -0.3146 -0.2065 -0.2214
  194DOPC  H14X24058   1.630   0.234  14.825 -1.5298  0.8073  3.1911
  194DOPC  H14Y24059   1.811   0.256  14.869  0.0302 -1.2001 -2.1720
  194DOPC  C31524060   1.660   0.393  14.946  0.2799  0.1146  0.3894
  194DOPC  H15X24061   1.736   0.467  14.978  1.3979 -0.6530 -0.4049
  194DOPC  H15Y24062   1.635   0.334  15.037 -4.2271 -0.6903 -1.1422
  194DOPC  C31624063   1.536   0.473  14.909  0.1526  0.3133  1.0179
  194DOPC  H16X24064   1.562   0.544  14.827  0.8160  0.4587  1.3424
  194DOPC  H16Y24065   1.454   0.410  14.868  0.6354  0.0803  0.3973
  194DOPC  C31724066   1.474   0.549  15.026  1.0454 -0.2621  0.3756
  194DOPC  H17X24067   1.491   0.485  15.115  0.5506 -1.4242 -0.3394
  194DOPC  H17Y24068   1.537   0.641  15.030 -0.4238  0.7587  1.1602
  194DOPC  C31824069   1.337   0.606  14.998 -0.0055 -0.1754 -0.0808
  194DOPC  H18X24070   1.289   0.659  15.083  1.7305  0.9545  0.2600
  194DOPC  H18Y24071   1.350   0.671  14.909 -0.9511 -0.9553 -0.8193
  194DOPC  H18Z24072   1.270   0.526  14.961  0.8100 -0.5196 -0.8408
  195DOPC     N24073   7.219   5.967  12.557  0.1019  0.1432 -0.8726
  195DOPC   C1224074   7.266   6.061  12.674 -0.0594  0.1927 -0.2038
  195DOPC  H12A24075   7.242   6.162  12.643 -1.7119 -0.5465 -1.4771
  195DOPC  H12B24076   7.373   6.053  12.679  0.0872 -1.2251 -3.4149
  195DOPC   C1324077   7.072   5.966  12.553 -0.6836  0.2578 -0.1973
  195DOPC  H13A24078   7.029   5.914  12.468 -0.3252 -0.9998  0.3772
  195DOPC  H13B24079   7.027   5.920  12.640 -2.7212 -0.5945 -1.6231
  195DOPC  H13C24080   7.037   6.068  12.559 -0.4455  0.5185 -2.3199
  195DOPC   C1424081   7.264   5.825  12.595  0.3609 -0.6580  0.2717
  195DOPC  H14A24082   7.237   5.803  12.697 -1.0388  0.8196  0.2579
  195DOPC  H14B24083   7.244   5.757  12.513  2.9049 -1.3113  0.1248
  195DOPC  H14C24084   7.371   5.813  12.589  0.4590  0.3286 -0.1204
  195DOPC   C1524085   7.267   6.001  12.417  0.0311 -0.2134 -0.1757
  195DOPC  H15A24086   7.220   5.947  12.336  2.0598 -1.2565 -0.7504
  195DOPC  H15B24087   7.375   5.992  12.408  0.3312  1.9556  0.6158
  195DOPC  H15C24088   7.260   6.108  12.401 -0.6636 -0.2185  0.0738
  195DOPC   C1124089   7.219   6.037  12.816 -0.8686 -0.9979  0.1412
  195DOPC  H11A24090   7.256   5.942  12.859  0.6247 -1.2549 -1.5620
  195DOPC  H11B24091   7.267   6.119  12.874 -1.1455 -0.2300 -0.6850
  195DOPC     P24092   6.994   5.974  12.918 -0.0292 -0.1743 -0.4522
  195DOPC   O1324093   7.015   5.826  12.897 -0.4448 -0.1236 -0.2412
  195DOPC   O1424094   6.850   6.026  12.901 -0.6596  0.8462  0.0214
  195DOPC   O1224095   7.077   6.051  12.816  0.1481 -0.1764 -0.1168
  195DOPC   O1124096   7.055   6.019  13.057 -0.3533 -0.2765 -0.0605
  195DOPC    C124097   7.031   6.147  13.126  0.1858  0.4892  0.2789
  195DOPC    HA24098   6.964   6.215  13.069 -0.3073  1.0830  1.5178
  195DOPC    HB24099   7.127   6.201  13.144 -0.7174  1.9952  0.7976
  195DOPC    C224100   6.958   6.127  13.268  0.0742 -0.7479  0.3684
  195DOPC    HS24101   6.956   6.229  13.310 -2.0838  0.2579 -1.9343
  195DOPC   O2124102   7.022   6.021  13.346 -0.1135  0.0157  0.6868
  195DOPC   C2124103   7.133   6.059  13.405 -0.2520  0.3920 -0.3743
  195DOPC   O2224104   7.177   6.173  13.405  0.2508  0.6791 -0.3864
  195DOPC   C2224105   7.202   5.940  13.472  0.0698 -0.0503 -0.9724
  195DOPC   H2R24106   7.313   5.952  13.471  0.7310 -3.9985  1.7403
  195DOPC   H2S24107   7.172   5.857  13.405  1.1585 -1.0796 -0.2304
  195DOPC    C324108   6.808   6.104  13.238  0.6008 -0.6132 -1.0690
  195DOPC    HX24109   6.802   5.993  13.224 -0.8008 -0.5553 -1.0388
  195DOPC    HY24110   6.777   6.154  13.144  2.5724  2.2072 -0.3492
  195DOPC   O3124111   6.733   6.148  13.356 -0.3360 -0.2762 -0.1029
  195DOPC   C3124112   6.605   6.185  13.345 -0.1223 -0.1877  0.0590
  195DOPC   O3224113   6.542   6.199  13.242 -0.4165  0.3288 -0.4875
  195DOPC   C3224114   6.535   6.188  13.484 -0.1631 -0.2642 -0.2151
  195DOPC   H2X24115   6.446   6.124  13.466  1.2028 -1.9984 -1.1388
  195DOPC   H2Y24116   6.593   6.145  13.568 -1.3143 -1.0181  0.2198
  195DOPC   C2324117   7.160   5.911  13.611  0.3611 -0.2153 -0.0736
  195DOPC   H3R24118   7.050   5.904  13.604 -0.0598  4.6318 -1.9213
  195DOPC   H3S24119   7.186   6.004  13.667  2.4222 -0.8235  0.0881
  195DOPC   C2424120   7.234   5.790  13.657  0.2467 -0.1643  0.2771
  195DOPC   H4R24121   7.343   5.809  13.658  0.3548 -0.7645  0.6253
  195DOPC   H4S24122   7.207   5.709  13.586 -1.1516 -0.7160  1.3806
  195DOPC   C2524123   7.196   5.732  13.792  0.5512  0.3297 -0.0389
  195DOPC   H5R24124   7.087   5.715  13.798  0.9346 -2.2822  0.8052
  195DOPC   H5S24125   7.218   5.811  13.868  1.0072  0.7908 -0.6312
  195DOPC   C2624126   7.254   5.599  13.819  0.2307 -0.0629  1.0050
  195DOPC   H6R24127   7.360   5.615  13.847 -0.0541  0.4620  1.8244
  195DOPC   H6S24128   7.253   5.531  13.731  0.8022  0.7824  0.3310
  195DOPC   C2724129   7.186   5.532  13.938  0.3344 -0.1078  0.9375
  195DOPC   H7R24130   7.079   5.546  13.913  1.1333  2.0469 -1.8788
  195DOPC   H7S24131   7.213   5.586  14.032 -1.2954 -0.2088  1.4838
  195DOPC   C2824132   7.219   5.384  13.945 -0.2979  0.2644 -0.4838
  195DOPC   H8R24133   7.209   5.332  13.847 -2.1108  0.8190 -0.6363
  195DOPC   H8S24134   7.129   5.341  13.994 -0.1900 -0.3877 -0.8449
  195DOPC   C2924135   7.345   5.353  14.020  0.5398  0.0348 -0.5583
  195DOPC   H9R24136   7.435   5.372  13.960  0.2612  0.8238 -0.7379
  195DOPC  C21024137   7.368   5.329  14.148 -0.7190 -0.0338  0.3454
  195DOPC  H10R24138   7.472   5.301  14.173 -1.3240 -3.6351 -0.5434
  195DOPC  C21124139   7.261   5.298  14.245 -0.3214 -0.0281 -0.7266
  195DOPC  H11R24140   7.292   5.199  14.285 -0.9627 -0.2475 -0.7756
  195DOPC  H11S24141   7.162   5.281  14.198  0.1012  0.1004 -1.6925
  195DOPC  C21224142   7.259   5.402  14.354  0.7180  0.1800  0.2613
  195DOPC  H12R24143   7.212   5.495  14.315 -1.1024  0.0837  2.0453
  195DOPC  H12S24144   7.355   5.435  14.400  1.2741 -1.1293  0.0775
  195DOPC  C21324145   7.169   5.363  14.472  0.4125  0.1246  0.1331
  195DOPC  H13R24146   7.230   5.292  14.531 -2.1119 -1.8646  0.4975
  195DOPC  H13S24147   7.077   5.314  14.436  0.8047  0.2934 -1.1703
  195DOPC  C21424148   7.140   5.489  14.549  0.9126 -0.2145 -0.6832
  195DOPC  H14R24149   7.076   5.565  14.500 -0.4224 -0.5207  0.5278
  195DOPC  H14S24150   7.238   5.540  14.562  0.6849  0.0666  0.0048
  195DOPC  C21524151   7.090   5.459  14.695  0.4766  0.2075  0.2777
  195DOPC  H15R24152   7.108   5.538  14.771 -0.9218 -0.5274  1.4264
  195DOPC  H15S24153   7.149   5.374  14.733  1.4439  0.1925 -1.1956
  195DOPC  C21624154   6.938   5.437  14.690 -0.3137  1.2611  0.9095
  195DOPC  H16R24155   6.928   5.368  14.777 -0.0027  0.1929  0.1300
  195DOPC  H16S24156   6.914   5.377  14.599 -0.6143  0.2008  1.6595
  195DOPC  C21724157   6.865   5.574  14.708 -0.1683 -0.4946  0.1443
  195DOPC  H17R24158   6.876   5.620  14.607 -0.7346 -1.5178 -0.4017
  195DOPC  H17S24159   6.924   5.627  14.785  0.6342  1.1851 -1.5441
  195DOPC  C21824160   6.721   5.567  14.752  0.0593 -0.1556  0.1414
  195DOPC  H18R24161   6.687   5.671  14.772 -0.3989 -0.1574 -0.6189
  195DOPC  H18S24162   6.715   5.500  14.840  1.3644 -0.6375 -0.1278
  195DOPC  H18T24163   6.669   5.530  14.661 -1.4114  0.8652  0.5266
  195DOPC   C3324164   6.498   6.336  13.519  0.1755 -0.7675 -0.8767
  195DOPC   H3X24165   6.475   6.407  13.437 -1.8749  0.9873  1.0980
  195DOPC   H3Y24166   6.578   6.377  13.584 -1.3969  0.4583  0.3698
  195DOPC   C3424167   6.367   6.342  13.603  0.0773  0.1787  0.4005
  195DOPC   H4X24168   6.287   6.317  13.530 -2.0695 -0.9183  2.9593
  195DOPC   H4Y24169   6.352   6.446  13.638 -1.2904  0.6667 -1.4816
  195DOPC   C3524170   6.365   6.242  13.722  0.6365 -0.7352 -0.8783
  195DOPC   H5X24171   6.377   6.137  13.687 -1.3120 -0.7826 -1.5352
  195DOPC   H5Y24172   6.261   6.236  13.762 -0.0155 -2.7937 -2.7142
  195DOPC   C3624173   6.445   6.300  13.841  0.2969 -0.3296 -0.7991
  195DOPC   H6X24174   6.554   6.302  13.818  0.2606 -0.0628 -0.9570
  195DOPC   H6Y24175   6.409   6.404  13.857 -0.6183 -0.6086 -0.9883
  195DOPC   C3724176   6.426   6.210  13.959 -0.4543  0.4017 -0.2376
  195DOPC   H7X24177   6.330   6.226  14.012 -0.7189  1.7510 -1.0742
  195DOPC   H7Y24178   6.437   6.106  13.923 -0.7087  0.5482 -0.7409
  195DOPC   C3824179   6.537   6.239  14.054  0.0045 -0.0070  0.3281
  195DOPC   H8X24180   6.636   6.232  14.003  0.4463  0.2475  1.1339
  195DOPC   H8Y24181   6.543   6.163  14.135 -0.4409  0.0059  0.3723
  195DOPC   C3924182   6.523   6.368  14.128 -0.1119 -0.0632 -0.1968
  195DOPC   H9X24183   6.457   6.367  14.216 -0.3209  0.6897 -0.3360
  195DOPC  C31024184   6.592   6.482  14.101 -0.1982 -0.0309 -0.5927
  195DOPC  H10X24185   6.584   6.574  14.161  1.1818  0.5093 -1.1910
  195DOPC  C31124186   6.702   6.501  14.001 -0.1421 -0.6354  0.9960
  195DOPC  H11X24187   6.721   6.416  13.932 -0.2934  0.1870 -0.0793
  195DOPC  H11Y24188   6.793   6.501  14.065  0.9707  1.2372 -0.4742
  195DOPC  C31224189   6.688   6.635  13.920  0.2051  0.0718  0.0978
  195DOPC  H12X24190   6.705   6.713  13.998  0.8384 -1.4235  1.5100
  195DOPC  H12Y24191   6.592   6.646  13.865 -0.3501  0.2799  1.0698
  195DOPC  C31324192   6.798   6.664  13.817 -0.5035  0.1811  0.3023
  195DOPC  H13X24193   6.794   6.770  13.785 -0.7550 -0.0831 -0.5860
  195DOPC  H13Y24194   6.894   6.643  13.869 -1.0782  0.2243  1.4058
  195DOPC  C31424195   6.774   6.578  13.691  0.2351 -0.2858  0.1507
  195DOPC  H14X24196   6.811   6.477  13.719  1.7151  0.7343  2.1529
  195DOPC  H14Y24197   6.663   6.570  13.687  0.2042  0.3097 -0.2668
  195DOPC  C31524198   6.821   6.644  13.562  0.4041  0.5743  0.4236
  195DOPC  H15X24199   6.928   6.673  13.568  0.8454 -0.8136 -0.3170
  195DOPC  H15Y24200   6.751   6.729  13.547 -1.3007 -0.2991  2.7809
  195DOPC  C31624201   6.814   6.547  13.442  0.6701 -0.6673 -0.3935
  195DOPC  H16X24202   6.858   6.447  13.459  1.5025 -0.3292 -0.5293
  195DOPC  H16Y24203   6.706   6.521  13.433  1.0054 -2.4608  0.3029
  195DOPC  C31724204   6.873   6.608  13.316  0.3961  0.0585 -0.9919
  195DOPC  H17X24205   6.799   6.679  13.272  2.6018  0.7011 -4.0453
  195DOPC  H17Y24206   6.964   6.662  13.348 -0.9548  0.2398  3.0755
  195DOPC  C31824207   6.908   6.482  13.219  0.3783 -0.1856  0.0490
  195DOPC  H18X24208   6.809   6.433  13.208  0.1497  0.4486 -0.8286
  195DOPC  H18Y24209   6.942   6.522  13.121 -2.5193  0.2442 -0.9050
  195DOPC  H18Z24210   6.989   6.415  13.254 -0.7725 -1.5172  0.2831
  196DOPC     N24211   0.791   6.884  13.306  0.0962  0.8219  0.6481
  196DOPC   C1224212   0.935   6.867  13.343 -0.1377  0.2415 -0.6939
  196DOPC  H12A24213   0.969   6.769  13.313  1.6159  0.2018  1.2113
  196DOPC  H12B24214   0.947   6.870  13.451  0.6896  3.0440 -0.7614
  196DOPC   C1324215   0.741   7.018  13.350 -0.1103 -0.2683 -0.5361
  196DOPC  H13A24216   0.704   7.013  13.451 -0.2619  2.3311 -0.4010
  196DOPC  H13B24217   0.826   7.083  13.333  1.8745 -2.4297  0.5241
  196DOPC  H13C24218   0.658   7.038  13.283  0.2706 -1.1373 -1.2915
  196DOPC   C1424219   0.708   6.777  13.368  0.0184 -0.2085 -0.0004
  196DOPC  H14A24220   0.729   6.678  13.330  0.9423  0.1630 -0.5073
  196DOPC  H14B24221   0.723   6.775  13.475 -1.3319 -1.4548  0.1991
  196DOPC  H14C24222   0.605   6.803  13.351  0.9506  2.3916 -2.5001
  196DOPC   C1524223   0.771   6.869  13.163 -0.2830  0.6327 -0.5278
  196DOPC  H15A24224   0.792   6.770  13.124  2.1021  0.6858  0.4606
  196DOPC  H15B24225   0.843   6.936  13.119 -0.4686  3.3473  2.8548
  196DOPC  H15C24226   0.675   6.894  13.120 -0.4364 -1.9191 -1.8976
  196DOPC   C1124227   1.034   6.975  13.296 -0.0487  0.3298  0.1904
  196DOPC  H11A24228   1.139   6.940  13.298  0.3596  1.5555  1.5950
  196DOPC  H11B24229   1.016   6.982  13.186 -0.2883 -3.0379 -0.0867
  196DOPC     P24230   1.057   7.107  13.522  0.3731  0.3257  0.3625
  196DOPC   O1324231   1.184   7.035  13.540  0.3602 -0.5575  0.5403
  196DOPC   O1424232   0.939   7.062  13.601  0.0322  0.2433 -0.5141
  196DOPC   O1224233   1.015   7.094  13.366  0.4016  0.4194  0.4456
  196DOPC   O1124234   1.082   7.261  13.532 -0.9419  0.2693  0.9021
  196DOPC    C124235   1.074   7.319  13.670  0.3042  0.8369  0.0207
  196DOPC    HA24236   1.154   7.283  13.738  1.0877  0.3046 -1.1535
  196DOPC    HB24237   0.975   7.290  13.712  0.3904  0.2469 -0.1662
  196DOPC    C224238   1.076   7.473  13.669 -0.3592 -0.5579 -0.0391
  196DOPC    HS24239   1.097   7.511  13.771  1.5060  3.3033 -1.6234
  196DOPC   O2124240   0.943   7.515  13.621  0.2615 -0.0749 -0.1116
  196DOPC   C2124241   0.912   7.637  13.664  0.0166  0.3115  0.0687
  196DOPC   O2224242   0.986   7.715  13.725  0.4574  0.4060  0.4896
  196DOPC   C2224243   0.757   7.667  13.636 -0.4720  0.2434  0.3746
  196DOPC   H2R24244   0.694   7.623  13.716 -0.3519  0.6040  0.6758
  196DOPC   H2S24245   0.747   7.610  13.541 -1.0313  2.5766 -1.0435
  196DOPC    C324246   1.190   7.532  13.579 -0.3884  0.1993  0.0464
  196DOPC    HX24247   1.178   7.642  13.585 -0.2305  0.2691 -0.7939
  196DOPC    HY24248   1.178   7.497  13.475  0.5952  1.2745 -0.4464
  196DOPC   O3124249   1.320   7.497  13.644  0.0618  1.1182  0.6183
  196DOPC   C3124250   1.399   7.416  13.571 -1.0990 -0.0541 -0.0531
  196DOPC   O3224251   1.372   7.370  13.459  0.0087 -0.0318  0.2792
  196DOPC   C3224252   1.526   7.390  13.654  0.2611  0.6059  0.6490
  196DOPC   H2X24253   1.608   7.449  13.608 -0.5273  1.3645  0.1750
  196DOPC   H2Y24254   1.508   7.420  13.760  1.4884  0.5731  0.8799
  196DOPC   C2324255   0.729   7.822  13.604  0.4550  0.3035 -0.2085
  196DOPC   H3R24256   0.624   7.827  13.569  0.4908  0.7887 -0.2601
  196DOPC   H3S24257   0.793   7.850  13.517 -0.8619  2.6368 -0.4934
  196DOPC   C2424258   0.751   7.906  13.731 -0.1104  0.5376  0.5824
  196DOPC   H4R24259   0.857   7.926  13.757  0.9063 -2.2793 -0.9678
  196DOPC   H4S24260   0.697   7.849  13.810  0.2554 -0.7337 -0.0522
  196DOPC   C2524261   0.677   8.033  13.730 -0.4160  0.0349 -0.1752
  196DOPC   H5R24262   0.695   8.102  13.644 -1.1692  0.4986  0.0291
  196DOPC   H5S24263   0.706   8.087  13.823 -0.9068 -0.7981  0.4783
  196DOPC   C2624264   0.531   8.004  13.733  0.1764 -0.3120 -0.2892
  196DOPC   H6R24265   0.511   7.927  13.811  3.0950 -0.6117  0.2767
  196DOPC   H6S24266   0.496   7.963  13.636 -0.1711 -0.9677  0.1034
  196DOPC   C2724267   0.456   8.133  13.762 -0.3409 -0.1135  0.0679
  196DOPC   H7R24268   0.487   8.207  13.685  1.3816 -1.8381 -0.9976
  196DOPC   H7S24269   0.479   8.159  13.867 -0.8557 -1.8886  0.6479
  196DOPC   C2824270   0.300   8.126  13.745 -0.0632 -0.1852 -0.2454
  196DOPC   H8R24271   0.276   8.027  13.790 -0.8718 -0.7623 -1.8535
  196DOPC   H8S24272   0.270   8.134  13.638 -1.6868  0.1342  0.1943
  196DOPC   C2924273   0.239   8.242  13.819 -0.5663  0.3587  0.1729
  196DOPC   H9R24274   0.251   8.338  13.768 -1.3669 -1.0007 -2.8068
  196DOPC  C21024275   0.179   8.229  13.940 -0.0009 -0.0496  0.7403
  196DOPC  H10R24276   0.146   8.327  13.977 -0.7730 -0.0906  0.1653
  196DOPC  C21124277   0.168   8.109  14.024 -0.0357 -1.0123  0.2991
  196DOPC  H11R24278   0.267   8.058  14.017 -0.3398 -1.4646 -0.9510
  196DOPC  H11S24279   0.088   8.041  13.988 -1.3962 -0.1246  1.5369
  196DOPC  C21224280   0.145   8.134  14.179 -0.1278  0.7739  0.6426
  196DOPC  H12R24281   0.127   8.240  14.209  0.3829  1.2470 -0.6443
  196DOPC  H12S24282   0.241   8.114  14.232 -0.0395 -0.1037  0.1733
  196DOPC  C21324283   0.039   8.044  14.236  0.0323  0.2001  0.1885
  196DOPC  H13R24284   0.035   7.944  14.186  0.3645 -1.5830  3.4641
  196DOPC  H13S24285  -0.058   8.092  14.209  1.6958  2.8076 -1.6093
  196DOPC  C21424286   0.050   8.021  14.390  1.0267 -0.2870  0.0712
  196DOPC  H14R24287  -0.046   8.043  14.440  2.1553  2.8124  1.1176
  196DOPC  H14S24288   0.129   8.084  14.437  0.5263 -0.7505  1.5732
  196DOPC  C21524289   0.093   7.880  14.421 -0.3211 -0.0619  0.1531
  196DOPC  H15R24290   0.177   7.844  14.358 -0.9155 -1.6924  0.2558
  196DOPC  H15S24291   0.005   7.818  14.396 -0.5624  0.2246  0.2879
  196DOPC  C21624292   0.134   7.860  14.568  0.0877 -0.7024 -0.2794
  196DOPC  H16R24293   0.144   7.752  14.591 -0.6669 -0.6150  0.5162
  196DOPC  H16S24294   0.047   7.899  14.625 -0.0323 -1.2584 -0.0759
  196DOPC  C21724295   0.261   7.928  14.611  0.3328 -0.3837  0.4785
  196DOPC  H17R24296   0.255   8.039  14.599 -0.1002 -0.4192  0.3527
  196DOPC  H17S24297   0.351   7.893  14.556  1.9077  1.3922  1.7978
  196DOPC  C21824298   0.297   7.921  14.761  0.3036  0.4012 -0.1092
  196DOPC  H18R24299   0.239   8.000  14.813  0.1168  1.8905 -2.4175
  196DOPC  H18S24300   0.401   7.957  14.774 -0.2318  1.0681  3.4996
  196DOPC  H18T24301   0.283   7.820  14.805  0.1851  0.7350  0.6286
  196DOPC   C3324302   1.570   7.244  13.648 -0.9429  0.0023 -0.0963
  196DOPC   H3X24303   1.664   7.237  13.706 -1.7138 -1.4068  1.0644
  196DOPC   H3Y24304   1.588   7.220  13.542 -0.8124  1.0020 -0.3084
  196DOPC   C3424305   1.469   7.142  13.712  0.1244  0.1983 -0.0069
  196DOPC   H4X24306   1.509   7.039  13.710  0.3718  0.2932  0.0369
  196DOPC   H4Y24307   1.376   7.142  13.651 -0.1796  1.3070  0.4284
  196DOPC   C3524308   1.430   7.190  13.851 -0.4765 -0.4686  0.1963
  196DOPC   H5X24309   1.385   7.291  13.852 -1.5272 -0.9277  1.2455
  196DOPC   H5Y24310   1.521   7.190  13.914 -0.2553 -0.7884 -0.1191
  196DOPC   C3624311   1.330   7.096  13.901  0.7104 -0.6092  0.1433
  196DOPC   H6X24312   1.241   7.094  13.834 -0.4585  2.6573  1.4018
  196DOPC   H6Y24313   1.357   6.988  13.895  0.8479 -0.5397 -0.6261
  196DOPC   C3724314   1.264   7.133  14.039 -1.0101  0.0179  0.0598
  196DOPC   H7X24315   1.342   7.127  14.119 -1.3034  0.5341  0.3865
  196DOPC   H7Y24316   1.246   7.242  14.043 -1.1959  0.0998 -2.1514
  196DOPC   C3824317   1.146   7.053  14.084 -0.1352  0.0767  0.2287
  196DOPC   H8X24318   1.110   7.081  14.186  1.3961  3.4091 -0.0314
  196DOPC   H8Y24319   1.176   6.946  14.085  0.2646  0.1918  0.9571
  196DOPC   C3924320   1.028   7.059  13.986  0.2485  0.3982  0.1565
  196DOPC   H9X24321   1.047   7.005  13.892 -1.3400 -0.8447  0.5035
  196DOPC  C31024322   0.911   7.123  14.008 -0.1908 -0.5043  0.2731
  196DOPC  H10X24323   0.827   7.116  13.937 -0.9874 -0.4986  1.1864
  196DOPC  C31124324   0.876   7.197  14.133  0.1451 -0.3467 -0.1057
  196DOPC  H11X24325   0.963   7.229  14.194  0.1219 -0.2451 -0.1251
  196DOPC  H11Y24326   0.825   7.129  14.204  1.3916 -0.6325  0.5576
  196DOPC  C31224327   0.797   7.324  14.104  0.0797 -0.1685 -0.5757
  196DOPC  H12X24328   0.765   7.373  14.199 -1.4203  0.6775 -1.4746
  196DOPC  H12Y24329   0.704   7.292  14.053  0.2945  1.0588 -1.7870
  196DOPC  C31324330   0.861   7.429  14.018  0.1813  0.0380  0.1717
  196DOPC  H13X24331   0.968   7.449  14.043  0.2022  1.5048 -0.9780
  196DOPC  H13Y24332   0.867   7.393  13.913  2.1346 -1.0499  0.5938
  196DOPC  C31424333   0.787   7.563  14.033  0.3066  0.0429  0.8988
  196DOPC  H14X24334   0.805   7.593  14.139 -0.9916 -1.0429  1.4549
  196DOPC  H14Y24335   0.839   7.635  13.967  0.2557 -0.2518  0.5300
  196DOPC  C31524336   0.637   7.553  14.011 -0.3945  0.3441  0.5326
  196DOPC  H15X24337   0.598   7.490  14.093 -1.1843 -1.0742 -0.8657
  196DOPC  H15Y24338   0.608   7.503  13.916 -1.1803  2.5232 -0.4315
  196DOPC  C31624339   0.567   7.690  14.032 -0.7607  0.1187 -0.0674
  196DOPC  H16X24340   0.598   7.733  14.129  2.0279 -0.0602 -0.7926
  196DOPC  H16Y24341   0.619   7.761  13.963  2.3054 -1.8645  0.0063
  196DOPC  C31724342   0.414   7.690  14.016  0.5025 -0.1691  0.5611
  196DOPC  H17X24343   0.391   7.671  13.909 -0.0014 -1.2799  0.8564
  196DOPC  H17Y24344   0.377   7.604  14.074  0.9309 -1.1404 -0.5623
  196DOPC  C31824345   0.353   7.825  14.061 -0.7941 -0.0420 -0.1358
  196DOPC  H18X24346   0.380   7.849  14.166 -0.0052  0.6256 -0.4774
  196DOPC  H18Y24347   0.389   7.902  13.989 -0.4668  0.0423  0.1162
  196DOPC  H18Z24348   0.243   7.818  14.047 -0.5376 -0.8865 -2.1556
  197DOPC     N24349   1.427   7.166  13.177  0.6885  0.7193  0.6342
  197DOPC   C1224350   1.506   7.117  13.304  0.2900  0.2123  0.3433
  197DOPC  H12A24351   1.457   7.027  13.340 -3.0751  1.0391 -1.6600
  197DOPC  H12B24352   1.492   7.195  13.376  0.3534 -1.4010  2.1805
  197DOPC   C1324353   1.411   7.051  13.079 -0.1130 -0.5440 -0.1087
  197DOPC  H13A24354   1.367   6.961  13.120 -0.2649 -0.7994 -0.8137
  197DOPC  H13B24355   1.373   7.089  12.986 -0.6017  1.2881  0.8028
  197DOPC  H13C24356   1.514   7.028  13.056  0.1798  0.7915 -0.2237
  197DOPC   C1424357   1.482   7.281  13.097  0.3108 -0.3470 -0.1747
  197DOPC  H14A24358   1.506   7.376  13.141  0.4134  0.3918 -1.7425
  197DOPC  H14B24359   1.579   7.255  13.056  0.4792 -0.0632  0.0372
  197DOPC  H14C24360   1.416   7.297  13.013 -0.9392 -1.4355  0.5695
  197DOPC   C1524361   1.285   7.197  13.228  0.1558 -0.5108  0.1803
  197DOPC  H15A24362   1.309   7.261  13.312 -0.7970  1.9238 -1.3085
  197DOPC  H15B24363   1.236   7.106  13.258 -0.3291 -0.7691 -1.3279
  197DOPC  H15C24364   1.240   7.257  13.151  1.1562  0.7586  0.5523
  197DOPC   C1124365   1.655   7.081  13.291 -0.5367  0.1614  0.2097
  197DOPC  H11A24366   1.714   7.174  13.270  2.0073 -1.2732  0.5458
  197DOPC  H11B24367   1.687   7.058  13.395  0.6376 -0.7774 -0.3295
  197DOPC     P24368   1.678   6.831  13.237  0.0276  0.3679  0.4277
  197DOPC   O1324369   1.689   6.767  13.105  0.2553  0.7191  1.0775
  197DOPC   O1424370   1.556   6.796  13.313 -0.4344  0.3773  0.1758
  197DOPC   O1224371   1.686   6.983  13.197 -0.0461  0.1604  0.1138
  197DOPC   O1124372   1.804   6.802  13.321 -0.5840 -0.0198 -0.0621
  197DOPC    C124373   1.932   6.843  13.276 -0.3017 -0.4726  0.4681
  197DOPC    HA24374   1.942   6.951  13.255  0.6052 -0.3151  1.6090
  197DOPC    HB24375   1.982   6.772  13.207  0.7501 -3.9181  4.3326
  197DOPC    C224376   2.042   6.849  13.393 -0.1444  0.2524 -0.6037
  197DOPC    HS24377   2.073   6.744  13.411 -0.0848  0.7481  2.8965
  197DOPC   O2124378   1.986   6.913  13.506 -0.3595 -0.1031 -0.3840
  197DOPC   C2124379   1.975   6.842  13.618  0.1260 -0.8824 -0.1026
  197DOPC   O2224380   2.026   6.730  13.639  0.1428 -0.2146 -0.0560
  197DOPC   C2224381   1.893   6.937  13.715 -0.1159  0.5256 -0.4468
  197DOPC   H2R24382   1.840   7.013  13.654  0.7885  1.2187 -0.4010
  197DOPC   H2S24383   1.965   6.993  13.779  0.6134 -1.1438  0.2491
  197DOPC    C324384   2.157   6.935  13.340 -0.2535 -0.4122  0.2722
  197DOPC    HX24385   2.113   7.034  13.314 -1.2871 -1.2533 -1.3274
  197DOPC    HY24386   2.200   6.898  13.245 -1.4195  1.6032 -1.1353
  197DOPC   O3124387   2.260   6.962  13.445  0.0628 -0.3846 -0.1966
  197DOPC   C3124388   2.340   6.853  13.456  1.9315  0.3996 -0.1330
  197DOPC   O3224389   2.321   6.747  13.402 -0.1563  1.0204 -0.1126
  197DOPC   C3224390   2.461   6.871  13.551  0.2889  0.1752 -0.3535
  197DOPC   H2X24391   2.550   6.884  13.485 -0.2482  0.3018 -1.0680
  197DOPC   H2Y24392   2.435   6.953  13.621  0.6262 -0.4034  0.4711
  197DOPC   C2324393   1.788   6.859  13.804  0.4310 -0.1863  0.3842
  197DOPC   H3R24394   1.824   6.769  13.858 -1.9166 -1.2628  0.2688
  197DOPC   H3S24395   1.704   6.846  13.733  0.3341  1.2335  0.2205
  197DOPC   C2424396   1.728   6.951  13.922  0.0551  1.2330  0.6696
  197DOPC   H4R24397   1.641   6.897  13.964 -0.6274  3.3249  2.1072
  197DOPC   H4S24398   1.699   7.052  13.884  1.7338  1.0881 -1.1267
  197DOPC   C2524399   1.828   6.968  14.036 -0.4122  0.5487 -0.9259
  197DOPC   H5R24400   1.928   7.002  14.001  0.1917  0.2744  0.4682
  197DOPC   H5S24401   1.849   6.865  14.071  1.6138  1.9003  2.2731
  197DOPC   C2624402   1.774   7.058  14.153 -0.4114 -0.2508 -0.0427
  197DOPC   H6R24403   1.854   7.062  14.230  0.0841 -2.4434 -0.3810
  197DOPC   H6S24404   1.685   7.009  14.198 -2.6541  1.2554 -2.5614
  197DOPC   C2724405   1.732   7.207  14.124 -0.6107 -0.0317  0.1647
  197DOPC   H7R24406   1.706   7.216  14.016 -0.5663 -0.7335  0.0935
  197DOPC   H7S24407   1.819   7.273  14.142 -0.1644 -0.6743  0.3739
  197DOPC   C2824408   1.613   7.252  14.209  0.5807 -0.2542 -0.5274
  197DOPC   H8R24409   1.634   7.237  14.317  0.9866 -1.6233 -0.7858
  197DOPC   H8S24410   1.528   7.186  14.181 -0.6407  0.0809  2.0938
  197DOPC   C2924411   1.584   7.397  14.186 -0.1624  0.1316  1.3904
  197DOPC   H9R24412   1.553   7.433  14.087  0.9015  0.0987  1.0324
  197DOPC  C21024413   1.614   7.498  14.269 -0.8772  0.1054 -0.9417
  197DOPC  H10R24414   1.609   7.602  14.234  1.1857 -0.4855 -3.3538
  197DOPC  C21124415   1.687   7.502  14.403 -0.1704  0.0141 -0.1061
  197DOPC  H11R24416   1.791   7.524  14.371 -0.4500  1.8905  0.1571
  197DOPC  H11S24417   1.693   7.403  14.453 -0.1489  0.2331  0.3218
  197DOPC  C21224418   1.633   7.599  14.504  0.3777 -0.5415 -0.7761
  197DOPC  H12R24419   1.652   7.705  14.474 -0.1239 -0.5174 -1.0251
  197DOPC  H12S24420   1.689   7.582  14.599  3.4040 -5.0320 -3.0268
  197DOPC  C21324421   1.483   7.580  14.545 -0.8784 -0.3045 -0.2919
  197DOPC  H13R24422   1.429   7.601  14.450  0.8412  1.2325 -0.9932
  197DOPC  H13S24423   1.459   7.657  14.621 -0.6876  0.8650 -1.3933
  197DOPC  C21424424   1.456   7.438  14.601  0.4957 -0.7753  0.3095
  197DOPC  H14R24425   1.505   7.356  14.544 -0.5952 -0.2062 -1.5332
  197DOPC  H14S24426   1.346   7.438  14.591  0.5070  0.7006 -0.0422
  197DOPC  C21524427   1.496   7.417  14.747  0.0065  0.1268 -0.3003
  197DOPC  H15R24428   1.441   7.492  14.809 -1.7823 -0.3244 -1.2689
  197DOPC  H15S24429   1.606   7.431  14.750 -0.0255  1.3053 -2.5720
  197DOPC  C21624430   1.462   7.272  14.794 -0.2275 -0.3228  0.7241
  197DOPC  H16R24431   1.489   7.257  14.901 -0.1768  2.1311  1.1146
  197DOPC  H16S24432   1.513   7.195  14.733 -0.5532 -0.2685  0.3807
  197DOPC  C21724433   1.315   7.239  14.783  0.2433  0.3743  0.5250
  197DOPC  H17R24434   1.277   7.255  14.680  1.0670 -0.6928  0.0282
  197DOPC  H17S24435   1.258   7.300  14.856 -0.7127  0.3566 -0.1976
  197DOPC  C21824436   1.276   7.089  14.801 -0.0701 -0.6287  0.6861
  197DOPC  H18R24437   1.307   7.014  14.725  1.6313  0.3325  0.3676
  197DOPC  H18S24438   1.167   7.087  14.821 -0.5591 -3.2100 -1.6526
  197DOPC  H18T24439   1.327   7.057  14.894 -2.5937  2.8412  3.5520
  197DOPC   C3324440   2.489   6.738  13.621 -0.0128  0.0137 -0.3264
  197DOPC   H3X24441   2.524   6.666  13.545 -1.2089 -0.2272 -0.6784
  197DOPC   H3Y24442   2.394   6.701  13.666  0.0481  0.8674  0.5452
  197DOPC   C3424443   2.576   6.756  13.744 -0.9424  1.0287 -0.4595
  197DOPC   H4X24444   2.516   6.823  13.809 -1.2316  0.4775 -0.1483
  197DOPC   H4Y24445   2.671   6.810  13.722  0.0054 -0.7043 -0.8502
  197DOPC   C3524446   2.614   6.626  13.819  0.5042  0.3189 -0.3626
  197DOPC   H5X24447   2.676   6.567  13.749 -1.3213  0.3794 -2.1111
  197DOPC   H5Y24448   2.523   6.565  13.843  1.6612 -1.1305  0.5450
  197DOPC   C3624449   2.691   6.650  13.948 -0.1275 -0.1428  0.0593
  197DOPC   H6X24450   2.697   6.548  13.993  1.7052 -0.1936 -0.2226
  197DOPC   H6Y24451   2.792   6.696  13.944 -0.4198  0.5240  0.2348
  197DOPC   C3724452   2.610   6.748  14.043 -0.1032  0.4902  0.1354
  197DOPC   H7X24453   2.628   6.857  14.030  0.5397  0.4743  0.7776
  197DOPC   H7Y24454   2.505   6.728  14.016  0.1548  1.4743 -1.7366
  197DOPC   C3824455   2.629   6.711  14.189 -0.0380 -0.3200  0.1038
  197DOPC   H8X24456   2.733   6.731  14.222  0.0153 -1.5110  0.7265
  197DOPC   H8Y24457   2.616   6.600  14.186  0.6130 -0.3871 -0.7715
  197DOPC   C3924458   2.534   6.781  14.285 -0.3575  0.5718 -0.5322
  197DOPC   H9X24459   2.549   6.889  14.272 -1.2785  0.6921 -0.6407
  197DOPC  C31024460   2.426   6.736  14.352 -0.2793  0.2220  0.0189
  197DOPC  H10X24461   2.363   6.808  14.407 -0.2027 -0.8811  1.6161
  197DOPC  C31124462   2.388   6.587  14.354 -0.1400 -0.3947  0.9489
  197DOPC  H11X24463   2.473   6.525  14.319 -1.2654 -1.1769 -0.5126
  197DOPC  H11Y24464   2.301   6.574  14.286  0.9186  0.3927 -0.5921
  197DOPC  C31224465   2.380   6.532  14.499 -0.2145  0.4837  0.2591
  197DOPC  H12X24466   2.330   6.606  14.565 -1.3722 -2.3517  2.7771
  197DOPC  H12Y24467   2.484   6.538  14.539 -0.4204  2.1417  0.6419
  197DOPC  C31324468   2.320   6.394  14.513 -0.0066  0.4741 -0.6594
  197DOPC  H13X24469   2.214   6.407  14.482 -1.0036  0.5184  2.4571
  197DOPC  H13Y24470   2.376   6.328  14.443  1.1079  0.2579  0.3986
  197DOPC  C31424471   2.340   6.335  14.651  0.3054 -0.3200  0.7174
  197DOPC  H14X24472   2.441   6.352  14.692  0.8931 -0.6672 -0.5259
  197DOPC  H14Y24473   2.288   6.403  14.721  2.2131  0.7329  1.1745
  197DOPC  C31524474   2.293   6.192  14.667 -0.0627  0.1820 -0.0525
  197DOPC  H15X24475   2.358   6.125  14.607 -0.3309  0.6573 -0.8812
  197DOPC  H15Y24476   2.193   6.192  14.619 -0.3725 -0.9550  0.5466
  197DOPC  C31624477   2.286   6.143  14.809  0.2838  0.0204 -0.1802
  197DOPC  H16X24478   2.383   6.163  14.859  1.5735 -1.7158 -1.8147
  197DOPC  H16Y24479   2.208   6.186  14.875  1.8072 -0.0359  1.7323
  197DOPC  C31724480   2.269   5.989  14.802 -0.0322 -0.7751 -1.0716
  197DOPC  H17X24481   2.331   5.944  14.722  0.1525 -0.3283 -1.1816
  197DOPC  H17Y24482   2.294   5.945  14.901 -2.5599  1.0197  0.4966
  197DOPC  C31824483   2.121   5.958  14.765  0.0893 -0.4934 -0.5693
  197DOPC  H18X24484   2.110   5.850  14.790 -1.2131 -0.1593  0.4687
  197DOPC  H18Y24485   2.056   6.025  14.827 -0.3920 -0.7658 -0.7786
  197DOPC  H18Z24486   2.101   5.974  14.657 -1.7228 -2.2108 -0.5572
  198DOPC     N24487   0.546   5.116  13.081 -0.5253 -0.1360 -0.6113
  198DOPC   C1224488   0.405   5.166  13.098 -0.8182  0.1602 -0.4653
  198DOPC  H12A24489   0.398   5.221  13.190  1.6542 -2.3059  1.3331
  198DOPC  H12B24490   0.340   5.080  13.108 -2.0893  1.2392  1.1538
  198DOPC   C1324491   0.582   5.076  12.941 -0.0499  0.4179  0.0935
  198DOPC  H13A24492   0.678   5.026  12.932 -0.5722 -0.4263 -1.1881
  198DOPC  H13B24493   0.505   5.022  12.887 -0.7449  1.9313 -0.4771
  198DOPC  H13C24494   0.586   5.162  12.875  1.7504  0.4300  0.1631
  198DOPC   C1424495   0.570   4.999  13.165  0.1045 -0.7485 -0.6657
  198DOPC  H14A24496   0.544   5.021  13.268  2.1515  3.0381 -0.7708
  198DOPC  H14B24497   0.509   4.918  13.128 -2.5319  2.1581 -3.1848
  198DOPC  H14C24498   0.674   4.967  13.167  0.3960  0.1927  0.9281
  198DOPC   C1524499   0.649   5.216  13.128 -0.2426  0.2803 -0.4780
  198DOPC  H15A24500   0.641   5.303  13.064 -3.4405  2.0097  1.9830
  198DOPC  H15B24501   0.750   5.182  13.109 -0.6675  0.3765 -3.2789
  198DOPC  H15C24502   0.628   5.244  13.230 -0.0457  1.0352 -0.6319
  198DOPC   C1124503   0.346   5.259  12.990 -0.4740  0.2198 -0.3413
  198DOPC  H11A24504   0.354   5.213  12.889  1.5723 -1.1516  0.3755
  198DOPC  H11B24505   0.236   5.272  12.999 -0.2484  2.7268 -0.5484
  198DOPC     P24506   0.385   5.492  13.095  0.2716 -0.1402  0.2587
  198DOPC   O1324507   0.247   5.546  13.084  0.1570  0.5217 -0.4896
  198DOPC   O1424508   0.494   5.592  13.081  0.4757  0.5278  0.3464
  198DOPC   O1224509   0.415   5.381  12.983 -0.5565 -0.2743  0.0114
  198DOPC   O1124510   0.416   5.419  13.232  0.3141  0.0762  0.5932
  198DOPC    C124511   0.431   5.489  13.350 -0.1043  0.2150 -0.2242
  198DOPC    HA24512   0.344   5.559  13.355 -0.3453 -0.1486  2.0375
  198DOPC    HB24513   0.525   5.547  13.352  0.1435  0.0760 -3.1498
  198DOPC    C224514   0.421   5.402  13.476 -0.2278 -0.2514 -0.1267
  198DOPC    HS24515   0.452   5.470  13.559 -0.6522 -1.3692  0.9801
  198DOPC   O2124516   0.498   5.284  13.462 -0.1491 -0.7472 -0.6898
  198DOPC   C2124517   0.550   5.236  13.578  0.3505  0.1176 -0.2703
  198DOPC   O2224518   0.543   5.290  13.688 -0.0892  0.0691 -0.0839
  198DOPC   C2224519   0.589   5.095  13.556 -0.3001 -0.4002  0.0827
  198DOPC   H2R24520   0.642   5.087  13.459  0.6602  0.4316  0.5267
  198DOPC   H2S24521   0.495   5.036  13.547 -1.5842  1.6691 -0.5957
  198DOPC    C324522   0.271   5.365  13.503 -0.2077  0.0144 -0.3860
  198DOPC    HX24523   0.229   5.301  13.422 -1.4302 -3.0618  2.4567
  198DOPC    HY24524   0.217   5.462  13.506 -0.7431 -0.3088  1.5068
  198DOPC   O3124525   0.234   5.288  13.627  0.0003  0.0180  0.3604
  198DOPC   C3124526   0.156   5.338  13.715  0.8440  0.1444  0.0965
  198DOPC   O3224527   0.097   5.446  13.715 -0.5118 -0.9151 -0.4366
  198DOPC   C3224528   0.160   5.246  13.828  0.2358  0.3311 -0.4421
  198DOPC   H2X24529   0.102   5.155  13.799 -3.4778  2.6628 -0.9994
  198DOPC   H2Y24530   0.267   5.225  13.847  0.4721 -0.1113 -2.0904
  198DOPC   C2324531   0.673   5.042  13.676  0.8404  0.1983 -0.1385
  198DOPC   H3R24532   0.686   4.933  13.664  2.1612  0.2864  0.3427
  198DOPC   H3S24533   0.620   5.049  13.773  0.0811 -0.1905 -0.5148
  198DOPC   C2424534   0.815   5.094  13.678  0.1265  0.8341 -0.2123
  198DOPC   H4R24535   0.823   5.204  13.692 -1.9364  0.9082  0.7579
  198DOPC   H4S24536   0.866   5.055  13.588 -0.4383  1.0869 -0.6442
  198DOPC   C2524537   0.918   5.025  13.778 -0.3661  0.6634 -0.7371
  198DOPC   H5R24538   1.013   5.083  13.780 -0.6175  1.2804 -3.3582
  198DOPC   H5S24539   0.935   4.918  13.752 -1.0675  0.3342  0.1248
  198DOPC   C2624540   0.876   5.022  13.926 -0.3403 -0.2126 -0.5513
  198DOPC   H6R24541   0.794   4.948  13.939 -0.2763 -0.1225  0.4761
  198DOPC   H6S24542   0.835   5.123  13.950  1.2603  0.5521 -0.9339
  198DOPC   C2724543   0.998   4.999  14.020 -0.1600  0.1423  0.6437
  198DOPC   H7R24544   1.084   5.054  13.975  2.8991 -2.7066  2.5541
  198DOPC   H7S24545   1.007   4.888  14.012 -0.8781  0.1683 -1.2774
  198DOPC   C2824546   0.985   5.033  14.175  0.1446  0.2839  0.5678
  198DOPC   H8R24547   0.932   5.131  14.168  0.9782  0.7033 -0.2620
  198DOPC   H8S24548   1.079   5.048  14.231 -0.0303 -0.2371  0.9999
  198DOPC   C2924549   0.886   4.939  14.234 -0.2099  0.0474 -0.2049
  198DOPC   H9R24550   0.905   4.835  14.206  1.4985  0.4534 -0.6807
  198DOPC  C21024551   0.804   4.953  14.335 -0.0111  0.0361 -0.3205
  198DOPC  H10R24552   0.734   4.873  14.365  0.3298  0.6115  2.2532
  198DOPC  C21124553   0.792   5.076  14.424  0.0528  0.4496  0.1777
  198DOPC  H11R24554   0.881   5.141  14.412  0.7895 -0.6417 -0.4195
  198DOPC  H11S24555   0.786   5.036  14.527 -1.0416 -0.0131 -0.0477
  198DOPC  C21224556   0.677   5.172  14.399  0.3714  0.8405 -0.0357
  198DOPC  H12R24557   0.688   5.260  14.466  0.5958  0.4383  0.4602
  198DOPC  H12S24558   0.578   5.123  14.411  0.9676  0.1489  2.7919
  198DOPC  C21324559   0.676   5.234  14.254  0.1674 -0.4660  0.2196
  198DOPC  H13R24560   0.661   5.138  14.198  0.5643  0.1170 -0.9338
  198DOPC  H13S24561   0.777   5.277  14.236 -0.0904  0.2102  0.3813
  198DOPC  C21424562   0.565   5.335  14.229  0.2772 -0.1012  0.2732
  198DOPC  H14R24563   0.574   5.427  14.290  1.0078 -0.8247  1.2985
  198DOPC  H14S24564   0.470   5.284  14.255  0.8003 -0.4705  1.5586
  198DOPC  C21524565   0.563   5.373  14.081  0.6226  0.1928 -0.7927
  198DOPC  H15R24566   0.513   5.290  14.026  2.2389 -1.9158  0.7505
  198DOPC  H15S24567   0.664   5.387  14.037  0.2109  5.8652 -0.6449
  198DOPC  C21624568   0.488   5.502  14.057  0.4860  0.2986  0.3554
  198DOPC  H16R24569   0.552   5.584  14.094 -1.3470  1.3075  1.4725
  198DOPC  H16S24570   0.395   5.505  14.118 -0.8348 -0.4730 -1.5249
  198DOPC  C21724571   0.449   5.538  13.914 -0.1128 -0.0529 -0.1989
  198DOPC  H17R24572   0.398   5.637  13.921  2.2886  1.2593 -0.2381
  198DOPC  H17S24573   0.372   5.468  13.874 -1.2803  0.4304  1.0673
  198DOPC  C21824574   0.572   5.559  13.827  0.3435 -0.8151 -0.1087
  198DOPC  H18R24575   0.630   5.465  13.813  0.2757 -1.0930  1.4035
  198DOPC  H18S24576   0.640   5.643  13.852 -1.4586  0.8992 -0.7643
  198DOPC  H18T24577   0.530   5.591  13.729  1.8761  1.5131 -0.0978
  198DOPC   C3324578   0.113   5.320  13.958  0.1216  0.2559  0.0684
  198DOPC   H3X24579   0.003   5.317  13.972  0.3818 -2.5553  2.6077
  198DOPC   H3Y24580   0.163   5.420  13.962  1.1710 -0.2676  0.6098
  198DOPC   C3424581   0.166   5.248  14.090 -0.6163  0.1298  0.1413
  198DOPC   H4X24582   0.274   5.225  14.084 -0.1410  2.4261 -3.5732
  198DOPC   H4Y24583   0.122   5.146  14.098  1.4383 -1.1180 -2.7131
  198DOPC   C3524584   0.145   5.331  14.211 -0.4405 -0.5998  0.2554
  198DOPC   H5X24585   0.043   5.373  14.204  0.3058  1.3311  0.5166
  198DOPC   H5Y24586   0.220   5.412  14.213 -0.2878 -0.6987 -0.8380
  198DOPC   C3624587   0.162   5.260  14.348  0.2525 -0.3243  0.8724
  198DOPC   H6X24588   0.107   5.163  14.345  3.0791 -2.0354 -1.8665
  198DOPC   H6Y24589   0.266   5.231  14.375  0.4397  0.5488  1.1194
  198DOPC   C3724590   0.105   5.339  14.463 -0.1666 -0.1377  0.6445
  198DOPC   H7X24591   0.139   5.292  14.557  0.1863  0.3391  0.7624
  198DOPC   H7Y24592   0.157   5.437  14.459 -1.5505  0.5889 -1.0160
  198DOPC   C3824593  -0.050   5.360  14.470 -0.3500 -0.0843  0.0365
  198DOPC   H8X24594  -0.090   5.420  14.385 -0.5931 -0.8722 -0.4131
  198DOPC   H8Y24595  -0.065   5.426  14.558 -3.1997 -1.9074  1.0409
  198DOPC   C3924596  -0.121   5.230  14.494  0.7414  0.0568  0.8262
  198DOPC   H9X24597  -0.127   5.171  14.402 -0.6288  0.4479  0.6483
  198DOPC  C31024598  -0.183   5.180  14.602 -0.0648 -0.4395  0.1395
  198DOPC  H10X24599  -0.231   5.081  14.598 -1.2826  0.1641 -1.7937
  198DOPC  C31124600  -0.203   5.264  14.735  0.1314  0.4291 -0.1596
  198DOPC  H11X24601  -0.228   5.372  14.725  1.5863  0.7830 -0.2615
  198DOPC  H11Y24602  -0.110   5.268  14.796  0.9125  0.6881 -1.3248
  198DOPC  C31224603  -0.301   5.180  14.811  0.6996  0.3505 -0.8511
  198DOPC  H12X24604  -0.259   5.078  14.825 -0.5340 -0.0114  0.5014
  198DOPC  H12Y24605  -0.396   5.161  14.758 -0.4032 -0.7156  1.3365
  198DOPC  C31324606  -0.339   5.249  14.950  0.1170 -0.0242  0.2478
  198DOPC  H13X24607  -0.251   5.255  15.017  0.2029 -2.0496  0.3709
  198DOPC  H13Y24608  -0.380   5.351  14.936 -1.4612 -0.7030 -0.4042
  198DOPC  C31424609  -0.440   5.174  15.031  0.2766 -0.2591 -0.6353
  198DOPC  H14X24610  -0.537   5.189  14.979 -0.3513 -0.8139  0.3247
  198DOPC  H14Y24611  -0.411   5.067  15.039  2.2988  0.3366  0.8873
  198DOPC  C31524612  -0.453   5.221  15.181  0.1002  0.5709  0.4155
  198DOPC  H15X24613  -0.478   5.329  15.185 -0.7811  0.3822  0.2635
  198DOPC  H15Y24614  -0.361   5.185  15.232 -0.9528 -3.5457 -0.2311
  198DOPC  C31624615  -0.575   5.144  15.240 -0.4517 -0.1272  0.3863
  198DOPC  H16X24616  -0.661   5.151  15.170 -0.4703 -2.3329  0.1209
  198DOPC  H16Y24617  -0.542   5.039  15.258  1.3889 -0.0819 -2.1004
  198DOPC  C31724618  -0.620   5.186  15.378  0.3196  0.3339 -0.3316
  198DOPC  H17X24619  -0.660   5.290  15.378  0.4757  0.3931  0.3060
  198DOPC  H17Y24620  -0.707   5.122  15.405 -0.1388  1.0643 -0.0463
  198DOPC  C31824621  -0.516   5.172  15.486 -1.0086 -0.5297 -0.2745
  198DOPC  H18X24622  -0.503   5.062  15.495 -0.9401 -0.5998 -1.1589
  198DOPC  H18Y24623  -0.421   5.216  15.448 -1.3848  0.3514 -0.2013
  198DOPC  H18Z24624  -0.544   5.218  15.583  1.9405  0.4662  0.2167
  199DOPC     N24625   7.296   7.037  12.850  0.2595 -0.1660 -0.0326
  199DOPC   C1224626   7.278   7.024  13.002 -0.3373  0.0972  0.1941
  199DOPC  H12A24627   7.175   7.001  13.025 -0.9882  0.2000 -2.2877
  199DOPC  H12B24628   7.287   7.122  13.047 -0.2243  0.9923 -1.6696
  199DOPC   C1324629   7.264   6.912  12.783  0.8479  0.0984  0.0070
  199DOPC  H13A24630   7.291   6.825  12.841 -2.8697 -0.4641  1.1848
  199DOPC  H13B24631   7.157   6.900  12.776  0.4377  1.1572  2.9813
  199DOPC  H13C24632   7.300   6.913  12.681 -1.1393 -0.3218 -0.7497
  199DOPC   C1424633   7.436   7.065  12.808  0.0403  0.1390 -0.0590
  199DOPC  H14A24634   7.472   7.164  12.835 -1.2597 -0.3100  4.0876
  199DOPC  H14B24635   7.515   7.004  12.849  2.0400  2.1789 -0.6854
  199DOPC  H14C24636   7.443   7.047  12.702 -0.2278  1.9474 -0.4258
  199DOPC   C1524637   7.204   7.143  12.789  0.0368 -0.0412 -0.6191
  199DOPC  H15A24638   7.102   7.114  12.809 -0.0316  0.3193 -0.4322
  199DOPC  H15B24639   7.224   7.164  12.685 -1.4661 -0.2828 -0.9808
  199DOPC  H15C24640   7.220   7.236  12.841  1.7730 -0.8177  0.3379
  199DOPC   C1124641   7.368   6.917  13.068 -0.4485 -0.8211 -0.3344
  199DOPC  H11A24642   7.472   6.949  13.046 -0.7037  0.8194  0.6819
  199DOPC  H11B24643   7.350   6.935  13.176  2.1301  0.6273 -0.0762
  199DOPC     P24644   7.428   6.667  13.058 -0.2572  0.0037  0.0353
  199DOPC   O1324645   7.566   6.718  13.032 -0.0099 -0.1121 -0.0285
  199DOPC   O1424646   7.385   6.557  12.972  0.1549 -0.2633 -0.4712
  199DOPC   O1224647   7.332   6.787  13.029 -0.1908  0.5233  0.5160
  199DOPC   O1124648   7.414   6.638  13.205 -0.5300 -0.0027 -0.1945
  199DOPC    C124649   7.292   6.661  13.274 -0.0991 -0.0556  0.2646
  199DOPC    HA24650   7.209   6.619  13.214  1.2601 -1.9555 -0.3915
  199DOPC    HB24651   7.263   6.768  13.283  0.4024  0.4369 -2.8253
  199DOPC    C224652   7.303   6.591  13.409 -0.6526 -0.1589 -0.8164
  199DOPC    HS24653   7.203   6.550  13.434 -0.3682  0.5397  1.8308
  199DOPC   O2124654   7.363   6.677  13.517 -0.2487 -0.5226  0.5577
  199DOPC   C2124655   7.268   6.748  13.565  0.9578 -0.1179  0.4873
  199DOPC   O2224656   7.155   6.764  13.525 -0.0511  0.4297  0.1863
  199DOPC   C2224657   7.330   6.817  13.693  0.1118  0.1663 -0.0596
  199DOPC   H2R24658   7.377   6.908  13.651 -0.8951 -0.3453 -2.4805
  199DOPC   H2S24659   7.399   6.743  13.739  2.3289  1.2641 -1.4714
  199DOPC    C324660   7.385   6.458  13.402 -0.4161 -0.0011  0.2262
  199DOPC    HX24661   7.491   6.489  13.389 -0.4080 -0.6799 -1.6184
  199DOPC    HY24662   7.354   6.397  13.314 -1.9927 -0.3976  1.0178
  199DOPC   O3124663   7.363   6.392  13.533 -0.3108 -0.6874  0.2454
  199DOPC   C3124664   7.450   6.304  13.557  0.0981  0.5549 -0.3639
  199DOPC   O3224665   7.528   6.258  13.476  0.0083  0.1328  0.0156
  199DOPC   C3224666   7.444   6.260  13.705 -0.3298 -0.9670 -0.0933
  199DOPC   H2X24667   7.503   6.343  13.749  0.8283 -1.8942  0.1851
  199DOPC   H2Y24668   7.343   6.269  13.750 -0.8213 -1.2487 -1.1072
  199DOPC   C2324669   7.217   6.851  13.797  0.1571  0.0875  0.3087
  199DOPC   H3R24670   7.121   6.861  13.742  0.8075 -0.2166 -0.9094
  199DOPC   H3S24671   7.246   6.944  13.850  1.3100  0.2313 -0.5334
  199DOPC   C2424672   7.228   6.740  13.900 -0.2896 -0.2295  0.3156
  199DOPC   H4R24673   7.331   6.727  13.939 -0.7052  0.9950  1.9379
  199DOPC   H4S24674   7.207   6.647  13.843  1.2508  0.0037 -0.6765
  199DOPC   C2524675   7.129   6.765  14.012 -0.1373  0.1769  0.1818
  199DOPC   H5R24676   7.027   6.789  13.977 -0.6362 -1.9218  0.0337
  199DOPC   H5S24677   7.158   6.846  14.083 -0.5680  0.4830  0.0088
  199DOPC   C2624678   7.106   6.633  14.093  0.1167 -0.3337 -0.4826
  199DOPC   H6R24679   7.196   6.569  14.084 -0.5843 -1.6304  1.1864
  199DOPC   H6S24680   7.031   6.567  14.043  0.2084 -1.9694  1.3936
  199DOPC   C2724681   7.066   6.634  14.238  0.9458 -0.3708 -0.1081
  199DOPC   H7R24682   6.961   6.601  14.250  0.7598  0.6637  1.5313
  199DOPC   H7S24683   7.054   6.740  14.271  0.8212 -0.1221 -0.9482
  199DOPC   C2824684   7.160   6.562  14.332 -0.0893 -1.0399  0.1552
  199DOPC   H8R24685   7.262   6.583  14.295  0.1518 -2.6787 -0.2228
  199DOPC   H8S24686   7.146   6.455  14.305 -2.5203 -0.3046 -1.8658
  199DOPC   C2924687   7.141   6.608  14.470  1.3507  0.1020 -0.5221
  199DOPC   H9R24688   7.181   6.710  14.483  0.9882  0.0723  0.9806
  199DOPC  C21024689   7.076   6.541  14.567 -0.6347 -0.7464  0.4043
  199DOPC  H10R24690   7.063   6.591  14.664 -0.2771 -0.6365  0.3969
  199DOPC  C21124691   7.031   6.396  14.560  0.5073 -0.5687 -0.1098
  199DOPC  H11R24692   7.029   6.360  14.665  0.9975 -0.3475 -0.0220
  199DOPC  H11S24693   7.092   6.327  14.498 -1.3379 -2.0439 -0.3502
  199DOPC  C21224694   6.885   6.366  14.514 -0.0276  0.0114  0.2524
  199DOPC  H12R24695   6.873   6.391  14.406 -0.2263 -2.5541 -0.3906
  199DOPC  H12S24696   6.826   6.440  14.572 -1.7343 -2.3630  1.7043
  199DOPC  C21324697   6.840   6.224  14.541  0.7289 -0.0382  0.0073
  199DOPC  H13R24698   6.843   6.211  14.651  2.6677  1.9619  0.2733
  199DOPC  H13S24699   6.910   6.156  14.488  0.0890 -0.2952 -0.5200
  199DOPC  C21424700   6.695   6.188  14.491 -1.1503  0.5653  0.4113
  199DOPC  H14R24701   6.667   6.227  14.391 -2.0376  0.5064  0.6317
  199DOPC  H14S24702   6.622   6.236  14.560 -0.9578  0.4037  0.7305
  199DOPC  C21524703   6.670   6.037  14.481 -0.0157  0.4124  0.7003
  199DOPC  H15R24704   6.703   5.981  14.571 -3.7052 -1.1749  1.2529
  199DOPC  H15S24705   6.714   5.994  14.389  1.1933 -1.7788  2.2148
  199DOPC  C21624706   6.515   6.009  14.459  0.0837  0.6479 -0.0510
  199DOPC  H16R24707   6.485   6.078  14.377 -0.3943  0.4381 -0.0548
  199DOPC  H16S24708   6.445   6.050  14.534  0.6092  1.0844  0.2099
  199DOPC  C21724709   6.475   5.857  14.446  0.1587 -0.7721  0.6966
  199DOPC  H17R24710   6.516   5.797  14.531 -1.0178 -0.1711  1.7264
  199DOPC  H17S24711   6.517   5.819  14.350  1.5003  2.3770 -0.0681
  199DOPC  C21824712   6.321   5.848  14.433  0.8613 -0.4439  0.7117
  199DOPC  H18R24713   6.276   5.931  14.490 -0.7066  1.4867 -2.9997
  199DOPC  H18S24714   6.265   5.756  14.461 -2.7994  0.4130 -2.8304
  199DOPC  H18T24715   6.282   5.882  14.334  0.8784 -2.3100  0.0135
  199DOPC   C3324716   7.500   6.123  13.736  0.3803 -0.2943  0.1603
  199DOPC   H3X24717   7.609   6.124  13.712  0.5339 -0.7887  0.7859
  199DOPC   H3Y24718   7.454   6.041  13.678 -3.0301  0.5132  1.5123
  199DOPC   C3424719   7.497   6.090  13.891 -0.6825  0.7052 -0.1110
  199DOPC   H4X24720   7.405   6.128  13.939  0.1041 -0.0651  2.1408
  199DOPC   H4Y24721   7.589   6.128  13.940  0.6845 -1.6606 -0.6227
  199DOPC   C3524722   7.503   5.937  13.924 -0.1296 -0.2039 -0.4313
  199DOPC   H5X24723   7.596   5.909  13.870 -1.6493 -1.5820 -2.5278
  199DOPC   H5Y24724   7.421   5.893  13.863  1.0832  0.1245 -2.4043
  199DOPC   C3624725   7.493   5.910  14.062  0.3388 -0.0753 -0.4541
  199DOPC   H6X24726   7.575   5.955  14.123 -1.0034  2.9752 -0.7032
  199DOPC   H6Y24727   7.397   5.935  14.112  1.3913 -1.9542  2.7789
  199DOPC   C3724728   7.494   5.761  14.091  0.9421 -0.7612  0.2828
  199DOPC   H7X24729   7.392   5.724  14.067  1.1334 -0.8060 -0.5096
  199DOPC   H7Y24730   7.567   5.717  14.020  0.2417 -0.1096 -0.8719
  199DOPC   C3824731   7.504   5.721  14.240  0.0666 -0.2803 -0.3690
  199DOPC   H8X24732   7.494   5.611  14.252  0.3420 -0.0820  2.5135
  199DOPC   H8Y24733   7.428   5.776  14.300  0.1199  0.0772 -0.6277
  199DOPC   C3924734   7.637   5.761  14.299  0.2269 -0.0508  0.7925
  199DOPC   H9X24735   7.719   5.756  14.227  0.6474  0.1855  1.2523
  199DOPC  C31024736   7.665   5.804  14.420 -0.1526 -0.3599  0.6992
  199DOPC  H10X24737   7.772   5.817  14.443  0.2362 -1.8458 -0.1579
  199DOPC  C31124738   7.572   5.811  14.538 -0.2680 -0.3862  0.1586
  199DOPC  H11X24739   7.476   5.759  14.514  0.1785 -0.9022 -0.5661
  199DOPC  H11Y24740   7.543   5.914  14.566 -0.2385 -0.9819  2.5869
  199DOPC  C31224741   7.631   5.756  14.660 -0.5524  0.6828  0.7758
  199DOPC  H12X24742   7.716   5.815  14.699 -0.4075 -0.0696  1.6506
  199DOPC  H12Y24743   7.660   5.653  14.629 -1.2403  1.1880 -1.7055
  199DOPC  C31324744   7.529   5.748  14.768 -0.8044 -0.3334 -0.1316
  199DOPC  H13X24745   7.503   5.853  14.793  1.6917  0.7811 -1.8301
  199DOPC  H13Y24746   7.432   5.703  14.737  0.5239 -1.7192 -2.5602
  199DOPC  C31424747   7.583   5.677  14.893 -0.4190 -0.5227  0.4038
  199DOPC  H14X24748   7.664   5.607  14.864  0.1310 -1.3173  3.4517
  199DOPC  H14Y24749   7.634   5.748  14.962  1.5390 -1.9958  0.5418
  199DOPC  C31524750   7.477   5.604  14.977  0.1974 -0.0952 -0.0197
  199DOPC  H15X24751   7.510   5.515  15.036  0.0573 -1.2151 -1.5734
  199DOPC  H15Y24752   7.401   5.549  14.917 -2.8402 -0.5382  3.8034
  199DOPC  C31624753   7.371   5.695  15.044 -1.2866 -0.1106 -0.3575
  199DOPC  H16X24754   7.416   5.754  15.126  1.7635 -1.3069 -1.0290
  199DOPC  H16Y24755   7.335   5.762  14.963 -0.4122  1.5415  0.5818
  199DOPC  C31724756   7.244   5.619  15.096  0.4213 -0.1379 -0.1515
  199DOPC  H17X24757   7.200   5.557  15.015 -0.3371  0.5093 -0.2424
  199DOPC  H17Y24758   7.277   5.561  15.185 -1.5277  0.3546  0.9465
  199DOPC  C31824759   7.132   5.717  15.135 -0.0504 -0.0128  0.2370
  199DOPC  H18X24760   7.162   5.776  15.225 -1.3277 -0.3111  0.8815
  199DOPC  H18Y24761   7.113   5.777  15.043 -1.4993 -0.5004  0.1812
  199DOPC  H18Z24762   7.039   5.667  15.171 -0.7759  1.3371  0.2997
  200DOPC     N24763   1.015   0.024  12.684 -0.4340 -1.0121  0.2404
  200DOPC   C1224764   1.135  -0.069  12.695 -0.1607 -0.5935  0.3028
  200DOPC  H12A24765   1.156  -0.100  12.594  0.0475  0.8404 -0.1179
  200DOPC  H12B24766   1.100  -0.155  12.749 -1.5314 -0.5823 -0.5247
  200DOPC   C1324767   0.923  -0.051  12.601 -0.1635  0.3780  0.3126
  200DOPC  H13A24768   0.923  -0.152  12.637  0.0248  0.0770 -0.4957
  200DOPC  H13B24769   0.829  -0.002  12.580 -0.4679  0.1395  1.0949
  200DOPC  H13C24770   0.958  -0.069  12.500 -0.1488 -1.1410  0.5632
  200DOPC   C1424771   1.051   0.160  12.627 -0.0176  0.0243 -0.0716
  200DOPC  H14A24772   1.135   0.213  12.672 -0.1368  0.2959 -0.1647
  200DOPC  H14B24773   1.076   0.139  12.524 -0.2451  0.0037 -0.1218
  200DOPC  H14C24774   0.967   0.226  12.641 -0.6461 -0.8302  0.2510
  200DOPC   C1524775   0.946   0.058  12.816 -0.3152 -0.3726 -0.6032
  200DOPC  H15A24776   1.013   0.101  12.889  0.7875  1.1496 -2.4320
  200DOPC  H15B24777   0.902  -0.034  12.853  1.7582 -0.4321  1.9736
  200DOPC  H15C24778   0.872   0.132  12.791  0.4531  0.4824 -0.4119
  200DOPC   C1124779   1.262  -0.009  12.762 -0.7036  0.4144 -0.1888
  200DOPC  H11A24780   1.355  -0.070  12.747  0.0871  1.7133 -0.7138
  200DOPC  H11B24781   1.294   0.083  12.709  1.9332 -0.9847 -1.2318
  200DOPC     P24782   1.226  -0.082  13.012  0.0024  0.2739 -0.0232
  200DOPC   O1324783   1.160  -0.199  12.957  0.3542  0.2977 -0.2799
  200DOPC   O1424784   1.165  -0.026  13.134 -0.3897  0.3388 -0.5252
  200DOPC   O1224785   1.246   0.027  12.898 -0.0746 -0.7047  0.2954
  200DOPC   O1124786   1.380  -0.122  13.042  0.2380  0.2572 -0.2884
  200DOPC    C124787   1.487  -0.024  13.046  0.6321  0.2313  0.9747
  200DOPC    HA24788   1.453   0.081  13.029  2.2744  0.5958 -0.2679
  200DOPC    HB24789   1.560  -0.046  12.966  2.0709  3.4166  1.2623
  200DOPC    C224790   1.559  -0.026  13.184  0.2513 -0.4222 -0.0635
  200DOPC    HS24791   1.624   0.064  13.193 -0.3319  0.2066 -1.8220
  200DOPC   O2124792   1.637  -0.146  13.189 -0.2013  0.8576 -0.5953
  200DOPC   C2124793   1.754  -0.134  13.133 -0.3611  0.9089 -0.2647
  200DOPC   O2224794   1.793  -0.047  13.060  0.0481 -0.6298  0.1905
  200DOPC   C2224795   1.847  -0.246  13.188  0.1028 -0.0615 -0.5069
  200DOPC   H2R24796   1.951  -0.220  13.158  1.1352 -0.9308  2.0954
  200DOPC   H2S24797   1.817  -0.345  13.146  2.7248 -1.4715  0.6728
  200DOPC    C324798   1.463  -0.037  13.306 -0.4298 -0.5157 -0.5104
  200DOPC    HX24799   1.411  -0.134  13.300  0.0711 -0.8511  0.3428
  200DOPC    HY24800   1.383   0.040  13.316  0.3286 -0.0145  3.2348
  200DOPC   O3124801   1.539  -0.038  13.433 -0.0470 -0.5865  0.1781
  200DOPC   C3124802   1.602   0.081  13.458 -0.6672 -0.1821 -0.1073
  200DOPC   O3224803   1.604   0.182  13.393 -0.1324  0.6243  0.2224
  200DOPC   C3224804   1.671   0.067  13.595  0.7484 -0.3567 -0.0798
  200DOPC   H2X24805   1.728  -0.028  13.595  0.5429 -0.4780 -0.2144
  200DOPC   H2Y24806   1.750   0.145  13.604 -1.1818  1.4741  2.7482
  200DOPC   C2324807   1.844  -0.259  13.346  0.2162 -0.0340  0.7427
  200DOPC   H3R24808   1.739  -0.277  13.375 -1.2481  0.7586 -3.3497
  200DOPC   H3S24809   1.876  -0.161  13.386  0.0532  2.0582 -3.6098
  200DOPC   C2424810   1.937  -0.374  13.384 -0.0054  0.2542 -0.6194
  200DOPC   H4R24811   2.042  -0.349  13.361  0.6398 -0.9464  0.8398
  200DOPC   H4S24812   1.893  -0.457  13.325 -1.1041  0.4163 -0.0582
  200DOPC   C2524813   1.925  -0.414  13.534  0.6779 -0.1950  0.4298
  200DOPC   H5R24814   1.992  -0.501  13.553 -0.6917 -1.4500 -0.2654
  200DOPC   H5S24815   1.824  -0.457  13.547 -0.0734  1.1929 -0.6065
  200DOPC   C2624816   1.964  -0.304  13.633 -0.1639 -0.3572  0.3253
  200DOPC   H6R24817   1.912  -0.211  13.598 -1.4275 -0.5182  1.6997
  200DOPC   H6S24818   2.074  -0.292  13.629 -0.1758  2.0876  3.5604
  200DOPC   C2724819   1.941  -0.333  13.786  0.1092  0.2590  0.3814
  200DOPC   H7R24820   2.013  -0.412  13.818 -0.6689 -0.4915  0.3179
  200DOPC   H7S24821   1.835  -0.359  13.804 -0.4779  3.1539  1.5331
  200DOPC   C2824822   1.963  -0.201  13.868 -0.1801  0.9704  0.0462
  200DOPC   H8R24823   1.895  -0.197  13.956  0.3952  2.3491  0.4521
  200DOPC   H8S24824   1.939  -0.116  13.801  0.2182  0.4465 -0.7820
  200DOPC   C2924825   2.110  -0.184  13.896 -0.1041  0.0932 -0.9490
  200DOPC   H9R24826   2.177  -0.169  13.811  2.9637 -1.3116  1.0557
  200DOPC  C21024827   2.163  -0.173  14.019 -0.0348 -0.1538 -0.8889
  200DOPC  H10R24828   2.272  -0.160  14.024  0.1521 -1.7697  0.0486
  200DOPC  C21124829   2.080  -0.167  14.146 -1.0386 -0.7246 -0.0369
  200DOPC  H11R24830   2.129  -0.198  14.242 -4.0400 -0.6305  1.6503
  200DOPC  H11S24831   1.983  -0.221  14.145 -0.3163 -2.0566 -0.1496
  200DOPC  C21224832   2.027  -0.018  14.166  0.3586 -0.1368  0.1080
  200DOPC  H12R24833   1.983  -0.015  14.268 -0.4124  0.9813 -0.2418
  200DOPC  H12S24834   1.947  -0.002  14.092  2.2725  0.0027 -2.0536
  200DOPC  C21324835   2.130   0.093  14.160 -0.5104 -0.3906  0.3568
  200DOPC  H13R24836   2.072   0.187  14.167  1.5544  0.9051  0.8861
  200DOPC  H13S24837   2.191   0.085  14.067 -0.8091  0.2234  0.1052
  200DOPC  C21424838   2.214   0.087  14.288  0.0672 -0.7601  0.0388
  200DOPC  H14R24839   2.277  -0.004  14.293 -0.9054 -1.4288  0.2314
  200DOPC  H14S24840   2.137   0.082  14.368 -0.8353  1.1325 -0.6468
  200DOPC  C21524841   2.296   0.216  14.313 -0.4333 -0.6346 -0.3766
  200DOPC  H15R24842   2.315   0.221  14.423 -1.0891 -1.7112 -0.1952
  200DOPC  H15S24843   2.240   0.310  14.295 -2.8170 -1.7760  0.5955
  200DOPC  C21624844   2.427   0.221  14.236 -0.7940 -0.9756  0.0659
  200DOPC  H16R24845   2.409   0.243  14.128 -4.0616  0.7147  0.8189
  200DOPC  H16S24846   2.479   0.123  14.232  0.0641 -0.5608  0.8676
  200DOPC  C21724847   2.539   0.314  14.288 -0.6103  0.6015 -0.0458
  200DOPC  H17R24848   2.636   0.299  14.237 -0.5146 -0.7075  0.4810
  200DOPC  H17S24849   2.570   0.294  14.393  0.1251 -0.1745 -0.4001
  200DOPC  C21824850   2.507   0.464  14.276 -0.1088 -0.2750 -0.0196
  200DOPC  H18R24851   2.411   0.489  14.326 -0.5458  0.4207 -1.1724
  200DOPC  H18S24852   2.506   0.489  14.168  0.6693 -0.4123 -0.0594
  200DOPC  H18T24853   2.591   0.520  14.321  0.7414 -1.2187 -0.3946
  200DOPC   C3324854   1.577   0.073  13.717  0.3199 -0.2817 -0.1915
  200DOPC   H3X24855   1.487   0.010  13.701  0.4209 -1.0999  2.0692
  200DOPC   H3Y24856   1.539   0.177  13.723 -1.2220 -0.7765 -0.7960
  200DOPC   C3424857   1.637   0.042  13.854 -0.6659  0.1794 -0.1192
  200DOPC   H4X24858   1.743   0.071  13.871 -0.9091  0.7588  0.4721
  200DOPC   H4Y24859   1.635  -0.068  13.871 -0.5271 -0.0031 -1.2203
  200DOPC   C3524860   1.565   0.118  13.965  0.2619  0.5397  0.6775
  200DOPC   H5X24861   1.560   0.226  13.942 -3.7000  0.0187 -1.9756
  200DOPC   H5Y24862   1.626   0.094  14.054  0.1703  1.5702  1.0209
  200DOPC   C3624863   1.425   0.057  13.988 -0.3831  0.1164 -0.4515
  200DOPC   H6X24864   1.348   0.080  13.911 -1.1320 -0.4654  0.1079
  200DOPC   H6Y24865   1.449  -0.051  14.001  1.9199  0.6315 -0.0485
  200DOPC   C3724866   1.364   0.093  14.121  0.0852  0.3871  0.8046
  200DOPC   H7X24867   1.428   0.053  14.203 -1.3032 -2.7074  0.5173
  200DOPC   H7Y24868   1.356   0.204  14.130  0.7305  0.5864 -0.7434
  200DOPC   C3824869   1.226   0.025  14.119  0.2998 -0.4383 -0.2326
  200DOPC   H8X24870   1.183   0.046  14.018  0.0004 -0.4089 -0.0987
  200DOPC   H8Y24871   1.158   0.078  14.188  0.9043 -0.8495  0.6952
  200DOPC   C3924872   1.230  -0.129  14.132  0.6387 -0.7585 -0.9865
  200DOPC   H9X24873   1.287  -0.176  14.051  0.0314 -3.1703 -0.1031
  200DOPC  C31024874   1.194  -0.207  14.233 -0.2974  0.6997 -0.5427
  200DOPC  H10X24875   1.222  -0.314  14.229  2.5616  1.3668 -0.2315
  200DOPC  C31124876   1.140  -0.164  14.363  0.3039 -0.4079  0.3645
  200DOPC  H11X24877   1.152  -0.055  14.381 -0.0631 -0.5883  1.8795
  200DOPC  H11Y24878   1.214  -0.203  14.436  0.2257  1.4985  1.5287
  200DOPC  C31224879   0.993  -0.203  14.382 -0.8943 -0.5296  0.3548
  200DOPC  H12X24880   0.995  -0.314  14.378 -1.1237 -0.6361  2.3425
  200DOPC  H12Y24881   0.931  -0.149  14.307 -2.4000  0.9414  2.5261
  200DOPC  C31324882   0.946  -0.165  14.525 -0.3948  0.4862  0.3247
  200DOPC  H13X24883   1.028  -0.190  14.596 -0.3586  0.8722  0.4177
  200DOPC  H13Y24884   0.934  -0.055  14.531 -1.4339  0.4788 -1.1704
  200DOPC  C31424885   0.819  -0.239  14.563  0.4135  0.4311 -0.2015
  200DOPC  H14X24886   0.844  -0.345  14.540 -1.4042  0.3125 -1.8313
  200DOPC  H14Y24887   0.799  -0.242  14.672 -0.6666  0.3615 -0.3924
  200DOPC  C31524888   0.703  -0.199  14.478  0.4525  0.0116 -0.3049
  200DOPC  H15X24889   0.705  -0.240  14.375 -1.6339 -0.0401 -0.3823
  200DOPC  H15Y24890   0.725  -0.092  14.461  1.1344 -0.1656 -0.5695
  200DOPC  C31624891   0.565  -0.239  14.537  0.0786 -0.0078 -0.1380
  200DOPC  H16X24892   0.533  -0.325  14.474  0.9182 -0.9808  0.7198
  200DOPC  H16Y24893   0.585  -0.264  14.644  1.0369 -0.2828 -0.3688
  200DOPC  C31724894   0.460  -0.130  14.533  0.4091 -0.4784  0.2993
  200DOPC  H17X24895   0.370  -0.156  14.592  1.0534 -1.0247  1.0671
  200DOPC  H17Y24896   0.521  -0.049  14.579 -0.0853 -0.9500  1.8495
  200DOPC  C31824897   0.411  -0.086  14.390 -0.9062 -1.0063  0.3401
  200DOPC  H18X24898   0.353   0.008  14.396 -0.6105 -0.6672 -1.4987
  200DOPC  H18Y24899   0.502  -0.065  14.329 -1.1512  0.6803  0.5061
  200DOPC  H18Z24900   0.349  -0.166  14.344 -0.5937 -0.7596 -0.5119
  201SOD    SOD24901   5.575   2.009  17.036  0.3773  0.3645 -0.3063
  202SOD    SOD24902   7.632   1.015  11.984  0.3617  0.3065  0.3314
  203SOD    SOD24903   6.271   0.372  16.797  0.3602  0.5098  0.2227
  204SOD    SOD24904   4.905   5.402  11.949 -0.0409  0.6424  0.2087
  205SOD    SOD24905   1.111   4.791  18.276 -0.3531 -0.0315 -0.8047
  206SOD    SOD24906   7.295   6.883  11.495 -0.0516 -0.1083  0.1543
  207SOD    SOD24907   5.327   0.965  10.924 -0.2717  0.2640 -0.5412
  208SOD    SOD24908   6.998   2.498  19.077  0.2992 -0.0264 -0.3675
  209SOD    SOD24909   7.435   2.212  11.145 -0.1744  0.0213 -0.1457
  210SOD    SOD24910   7.388   1.254  17.089 -0.0742  0.1893  0.4187
  211SOD    SOD24911   6.022   1.466  18.688  0.2604  0.4404 -0.0823
  212SOD    SOD24912   5.215   0.769  18.093  0.1061  0.2152 -0.1381
  213SOD    SOD24913   2.014   3.403  12.345  0.2204  0.1665  0.0396
  214SOD    SOD24914   5.050   2.612  18.815 -0.1668  0.2703 -0.2156
  215SOD    SOD24915   1.674   0.990  16.493  0.3406  0.0216 -0.3918
  216SOD    SOD24916   6.942   1.346  17.374  0.2298 -0.0851  0.1043
  217SOD    SOD24917   0.840   0.617  11.525 -0.2784  0.1236  0.1873
  218SOD    SOD24918   5.281   3.389  18.366  0.6838  0.5982 -0.1864
  219SOD    SOD24919   7.385   5.871  16.728 -0.5742 -0.2279  0.1411
  220SOD    SOD24920   3.820   2.717  11.484 -0.0993 -0.0464 -0.0994
  221SOD    SOD24921   6.776   1.906  11.150 -0.2589  0.2923 -0.5971
  222SOD    SOD24922   0.797   6.709  16.975  0.0606 -0.1363  0.0326
  223SOD    SOD24923   3.793   1.101  12.604 -0.3138 -0.1944 -0.0088
  224SOD    SOD24924   4.850   0.011  12.672  0.2972  0.4854  0.4398
  225SOD    SOD24925   4.438   0.219  11.343  0.2459 -0.6426 -0.3905
  226SOD    SOD24926   2.791   3.875  17.753 -0.2033  0.0238 -0.7129
  227CLA    CLA24927   6.584   2.776  12.195  0.0085  0.4328 -0.0620
  228CLA    CLA24928   5.852   0.491  10.940 -0.7068  0.1196 -0.3762
  229CLA    CLA24929   6.995   1.949  11.304 -0.1719  0.4209 -0.1910
  230CLA    CLA24930   4.539   2.693  18.706  0.2035 -0.4531 -0.4353
  231CLA    CLA24931   5.884   1.162  18.361 -0.2636  0.2298  0.1782
  232CLA    CLA24932   6.682   2.058  18.721 -0.1614 -0.1677 -0.0242
  233CLA    CLA24933   2.298   4.605  17.260  0.4860 -0.1550 -0.6382
  234CLA    CLA24934   7.464   4.232  17.829  0.1299 -0.2952 -0.2452
  235CLA    CLA24935   5.320   7.290  11.643 -0.0103 -0.7732 -0.1326
  236CLA    CLA24936   5.728   5.968  17.347 -0.0318 -0.2045 -0.2404
  237CLA    CLA24937   6.911   7.187  17.604  0.3970 -0.2415  0.1676
  238CLA    CLA24938   0.200   0.804  11.646 -0.0303  0.1432 -0.0625
  239CLA    CLA24939   3.422   0.410  11.510 -0.3282 -0.1019 -0.2378
  240CLA    CLA24940   6.522   0.621  17.409  0.5964  0.0505 -0.1942
  241CLA    CLA24941   6.756   3.565  11.719  0.3352  0.3803  0.4098
  242CLA    CLA24942   5.779   3.771  18.472  0.2886  0.3915 -0.0504
  243CLA    CLA24943   2.476   0.516  12.204  0.7539  0.3933 -0.1341
  244CLA    CLA24944   5.174   6.767  12.170 -0.0870  0.0317 -0.0954
  245CLA    CLA24945   5.118   2.497  11.849  0.2679  0.2961  0.0315
  246CLA    CLA24946   6.969   0.525  17.685 -0.1041 -0.1095 -0.1479
  247CLA    CLA24947   3.589   0.652  12.467  0.1429 -0.3265 -0.2973
  248CLA    CLA24948   3.404   4.252  11.911  0.4864 -0.2936  0.3734
  249CLA    CLA24949   3.538   1.805  12.029 -0.0582  0.0243 -0.4509
  250CLA    CLA24950   5.711   3.161  18.054 -0.2221 -0.3434 -0.2358
  251CLA    CLA24951   5.749   1.958  18.950 -0.1301 -0.1346 -0.0871
  252CLA    CLA24952   3.731   2.321  11.670  0.0157  0.2491  0.2959
  253TIP3   OH224953   2.917   3.462  19.525  0.5522 -0.1051  0.2146
  253TIP3    H124954   2.936   3.509  19.607 -0.1477 -0.2499  0.4743
  253TIP3    H224955   2.836   3.502  19.494  1.4494  0.7798 -1.0631
  254TIP3   OH224956   6.210   6.101  16.783  0.0419 -0.1863  0.4656
  254TIP3    H124957   6.208   6.035  16.714  2.9618  0.0917 -0.0196
  254TIP3    H224958   6.168   6.178  16.745  0.5421 -0.4231 -0.5969
  255TIP3   OH224959   5.138   7.270  19.242  0.3975 -0.3399  0.0226
  255TIP3    H124960   5.194   7.232  19.175 -1.0248 -2.1418 -0.2241
  255TIP3    H224961   5.131   7.362  19.217 -0.2567 -0.9866 -2.4804
  256TIP3   OH224962   7.053   4.999  17.645  0.1016  0.0173 -1.0177
  256TIP3    H124963   7.120   5.056  17.609  0.3516  0.1101 -0.4225
  256TIP3    H224964   7.091   4.965  17.726 -0.8601  0.6782 -0.2604
  257TIP3   OH224965   5.959   7.384  17.927  0.5163 -0.5118  0.2442
  257TIP3    H124966   5.928   7.386  17.836  0.4613 -0.7416  0.2575
  257TIP3    H224967   5.918   7.461  17.968  0.1097 -0.7119  0.2159
  258TIP3   OH224968   7.014   5.749  17.160  0.3390 -0.2324 -0.2383
  258TIP3    H124969   7.001   5.782  17.248  1.7003 -0.0536 -0.0820
  258TIP3    H224970   7.041   5.826  17.109  0.6055 -0.5295 -0.5534
  259TIP3   OH224971   1.795   1.572  18.023 -0.0720 -0.2537  0.1655
  259TIP3    H124972   1.720   1.607  17.976  0.4208  0.4411 -0.1044
  259TIP3    H224973   1.775   1.587  18.116 -0.3299 -0.2181  0.1043
  260TIP3   OH224974   1.727   0.354  18.622 -0.2679  0.4058  0.5015
  260TIP3    H124975   1.708   0.315  18.707 -0.5809  2.1550  1.2948
  260TIP3    H224976   1.721   0.449  18.637  0.7569  0.7996 -1.2230
  261TIP3   OH224977   3.270   0.394  17.502  0.1132  0.1532 -0.2766
  261TIP3    H124978   3.341   0.360  17.447  0.0546  0.3885 -0.4994
  261TIP3    H224979   3.258   0.484  17.471 -1.6232 -0.4812 -1.5770
  262TIP3   OH224980   5.331   7.112  18.777  0.2768  0.1406  0.0376
  262TIP3    H124981   5.275   7.035  18.786 -0.0592  0.3531 -0.2205
  262TIP3    H224982   5.269   7.186  18.773  0.6193  0.5103  1.2272
  263TIP3   OH224983   5.787   4.013  18.912 -0.2698  0.2223  0.0842
  263TIP3    H124984   5.808   3.925  18.880  1.0105  0.2663  0.7310
  263TIP3    H224985   5.870   4.061  18.907  0.0940  0.1978  3.5359
  264TIP3   OH224986   4.594   3.717  18.873 -0.0830 -0.2953 -0.2932
  264TIP3    H124987   4.666   3.653  18.875  0.2226  0.0664  0.5326
  264TIP3    H224988   4.635   3.797  18.839  0.0255  0.0404  0.5972
  265TIP3   OH224989   3.038   1.141  17.681  0.0004  0.4873 -0.0906
  265TIP3    H124990   2.995   1.181  17.757 -2.0717  1.0646 -1.4905
  265TIP3    H224991   3.095   1.210  17.647 -0.3899  0.8203 -0.0692
  266TIP3   OH224992   7.158   2.207  17.895 -0.4986 -0.2074 -0.2487
  266TIP3    H124993   7.067   2.207  17.867 -0.3918  0.2512 -0.6033
  266TIP3    H224994   7.205   2.166  17.822 -0.2422  0.8356 -0.6860
  267TIP3   OH224995   2.794   1.808  18.211 -0.8204  0.3170  0.1800
  267TIP3    H124996   2.878   1.826  18.168 -0.1670 -0.3362  1.1145
  267TIP3    H224997   2.748   1.750  18.151 -1.0481  1.4869 -0.8029
  268TIP3   OH224998   2.409   6.743  18.627 -0.1065 -0.1698 -0.0572
  268TIP3    H124999   2.499   6.710  18.624 -0.0171  0.0912 -0.2734
  268TIP3    H225000   2.417   6.831  18.665 -0.2556 -0.1023 -0.1808
  269TIP3   OH225001   0.328   3.831  18.989 -0.3346  0.3153  0.4534
  269TIP3    H125002   0.289   3.771  18.925  0.3878 -0.8432  1.0471
  269TIP3    H225003   0.415   3.794  19.005  1.3577  3.1981 -1.3584
  270TIP3   OH225004   7.157   4.226  17.692 -0.0091  0.1198 -0.1993
  270TIP3    H125005   7.095   4.240  17.764  0.0293 -0.4856 -0.0484
  270TIP3    H225006   7.242   4.221  17.734 -0.1460 -1.9264 -0.0776
  271TIP3   OH225007   4.868   4.615  18.850 -0.1196 -0.2272  0.2229
  271TIP3    H125008   4.933   4.577  18.910 -0.5715 -0.3342  0.6465
  271TIP3    H225009   4.807   4.544  18.832  0.1129 -0.2478 -0.5203
  272TIP3   OH225010   7.072   0.290  18.359 -0.1026 -0.0181  0.4517
  272TIP3    H125011   7.108   0.224  18.418  0.9647  1.2660  1.3053
  272TIP3    H225012   7.149   0.330  18.318 -0.8153 -1.0866 -2.1359
  273TIP3   OH225013   5.720   0.689  16.625  0.5462  0.7342 -0.5577
  273TIP3    H125014   5.697   0.704  16.716 -1.1894  0.0335 -0.8472
  273TIP3    H225015   5.736   0.595  16.620 -0.2306  0.6247 -1.1380
  274TIP3   OH225016   6.830   1.695  19.102 -0.4684  0.6166 -0.3281
  274TIP3    H125017   6.758   1.650  19.057 -0.6211  0.2826  0.2463
  274TIP3    H225018   6.794   1.720  19.187  0.8568 -2.0599  1.1680
  275TIP3   OH225019   1.750   0.876  18.921 -0.1264  0.2186  0.1335
  275TIP3    H125020   1.812   0.916  18.983  0.1600  1.6574 -1.0078
  275TIP3    H225021   1.743   0.941  18.851 -0.8720 -1.1187 -1.0624
  276TIP3   OH225022   0.049   2.987  19.440  0.5718 -0.2475  0.1780
  276TIP3    H125023   0.116   3.053  19.458  0.7911 -0.5192  0.3602
  276TIP3    H225024   0.032   2.996  19.346 -0.8656  1.4412  0.5547
  277TIP3   OH225025   2.577   5.571  19.353 -0.5522  0.1749  0.2412
  277TIP3    H125026   2.664   5.550  19.387 -0.7231 -0.0602  0.5333
  277TIP3    H225027   2.593   5.642  19.291 -0.0693 -0.2507 -0.1462
  278TIP3   OH225028   2.710   2.825  18.711 -0.0816 -0.3256 -0.1205
  278TIP3    H125029   2.698   2.901  18.653 -1.2256  1.2638  2.0447
  278TIP3    H225030   2.760   2.762  18.659  0.0116  1.4970 -2.3703
  279TIP3   OH225031   2.240   3.242  18.165 -0.7685 -0.0025 -0.1202
  279TIP3    H125032   2.281   3.200  18.089 -0.2609 -0.6718  0.5228
  279TIP3    H225033   2.313   3.279  18.214 -1.0417 -0.1541  0.4007
  280TIP3   OH225034   6.387   3.610  19.257 -0.1532  0.0521 -0.4826
  280TIP3    H125035   6.316   3.673  19.243  0.8363  1.2165 -0.4920
  280TIP3    H225036   6.390   3.598  19.352 -0.6660 -0.3853 -0.5159
  281TIP3   OH225037   6.755   5.687  17.524  0.0453  0.1346 -0.1859
  281TIP3    H125038   6.700   5.665  17.599  0.1886 -0.6040 -0.2839
  281TIP3    H225039   6.692   5.703  17.453 -0.0579 -0.6756 -0.2900
  282TIP3   OH225040   6.934   4.768  17.506 -0.6895 -0.0993 -0.1236
  282TIP3    H125041   6.975   4.848  17.536  0.1421 -0.4918 -0.1716
  282TIP3    H225042   7.007   4.714  17.474 -1.4218 -0.0696 -1.9748
  283TIP3   OH225043   6.096   2.832  17.850  0.3789 -0.7253  0.5285
  283TIP3    H125044   6.163   2.803  17.912  1.2101 -1.2152 -0.5609
  283TIP3    H225045   6.089   2.761  17.787  0.0476  0.0443 -0.3304
  284TIP3   OH225046   7.435   3.164  10.895 -0.2510 -0.3801 -0.4269
  284TIP3    H125047   7.347   3.146  10.926  0.0266  1.4805  1.6833
  284TIP3    H225048   7.447   3.258  10.907  1.6535 -0.3824 -1.7061
  285TIP3   OH225049   6.757   4.368  12.139 -0.7511  0.3357 -0.3878
  285TIP3    H125050   6.719   4.389  12.224  0.7889 -0.2492  0.4852
  285TIP3    H225051   6.771   4.453  12.097  3.3941  1.1969  2.1879
  286TIP3   OH225052   7.228   7.078  11.919 -0.2383 -1.1740 -0.3063
  286TIP3    H125053   7.307   7.053  11.966  1.0268  0.3530 -1.5067
  286TIP3    H225054   7.255   7.151  11.863 -2.3938 -0.9010 -1.1025
  287TIP3   OH225055   2.713   6.583  12.166 -0.3418 -0.7886  1.2049
  287TIP3    H125056   2.791   6.546  12.206 -1.3059 -0.6034  3.4488
  287TIP3    H225057   2.685   6.651  12.228 -1.3258  0.3395 -0.3945
  288TIP3   OH225058   6.946   0.915  12.258 -0.1627 -0.3711  0.2207
  288TIP3    H125059   6.996   0.836  12.279 -0.7691 -0.5033  1.2193
  288TIP3    H225060   6.886   0.887  12.189 -0.6782 -0.9253  0.8661
  289TIP3   OH225061   3.350   3.356  11.100 -0.5050 -0.0583  0.0784
  289TIP3    H125062   3.373   3.283  11.157 -1.1023 -0.4222 -0.1411
  289TIP3    H225063   3.255   3.352  11.092 -0.6402  1.2300  0.7192
  290TIP3   OH225064   0.901   6.076  10.619 -0.2130  0.0406  0.0826
  290TIP3    H125065   0.833   6.067  10.686 -2.0419  3.2576 -1.1057
  290TIP3    H225066   0.960   6.143  10.654  0.7776 -0.6906 -0.1382
  291TIP3   OH225067   3.017   6.175  11.380 -0.0765  0.3956  0.1165
  291TIP3    H125068   2.930   6.215  11.380 -0.6318 -0.7760  0.3078
  291TIP3    H225069   3.038   6.164  11.287  0.8624  2.7011 -0.0101
  292TIP3   OH225070   4.630   4.356  12.087 -0.3046 -1.0401  0.1896
  292TIP3    H125071   4.573   4.286  12.119 -2.0415 -0.3214 -1.1650
  292TIP3    H225072   4.657   4.326  12.000 -0.4396 -0.3881 -0.0799
  293TIP3   OH225073   6.388   6.245  10.694  0.0952 -0.2315 -0.7020
  293TIP3    H125074   6.457   6.245  10.760  0.1551  1.0827 -0.7352
  293TIP3    H225075   6.397   6.161  10.650  1.1573 -0.4103 -0.1705
  294TIP3   OH225076   7.073   4.277  12.471  0.2137  0.7435  0.0294
  294TIP3    H125077   7.028   4.342  12.417 -0.2299 -0.0441 -0.5645
  294TIP3    H225078   7.018   4.267  12.548 -0.8240 -0.4284 -0.8231
  295TIP3   OH225079   7.173   1.814  11.956 -0.0992  0.4313 -0.3288
  295TIP3    H125080   7.233   1.888  11.959  0.5792 -0.0668 -1.1836
  295TIP3    H225081   7.097   1.842  12.008  0.6480  1.2605  0.3405
  296TIP3   OH225082   5.600   7.504  11.292  0.2660  0.0462 -0.1140
  296TIP3    H125083   5.676   7.543  11.249 -0.1088 -0.2909 -1.0999
  296TIP3    H225084   5.561   7.577  11.341  1.3659  0.1567  0.6307
  297TIP3   OH225085   6.102   7.129  11.892  0.3674  0.4971  0.4388
  297TIP3    H125086   6.156   7.152  11.817 -1.4066 -0.1488 -1.1124
  297TIP3    H225087   6.020   7.176  11.879 -1.0132 -1.7324  0.4323
  298TIP3   OH225088   6.543   7.391  12.221  0.4043  0.2883  0.4687
  298TIP3    H125089   6.549   7.440  12.303  1.0277 -0.7514  1.0726
  298TIP3    H225090   6.456   7.350  12.225  1.0689 -1.1144  1.4405
  299TIP3   OH225091   6.094   2.972  12.619 -0.4675  0.6519  0.2772
  299TIP3    H125092   6.004   2.946  12.639 -0.3037 -0.4107 -0.3354
  299TIP3    H225093   6.133   2.990  12.705 -1.1875  0.9132  0.5642
  300TIP3   OH225094   1.576   0.104  10.988  0.3444 -0.6042 -0.6307
  300TIP3    H125095   1.530   0.040  10.934 -0.0176 -0.7727 -0.1295
  300TIP3    H225096   1.661   0.115  10.945 -0.5755  0.6150 -2.2341
  301TIP3   OH225097   5.368   4.900  13.195 -0.0938  0.1326 -0.0619
  301TIP3    H125098   5.353   4.824  13.251 -0.3324  0.8770  0.9160
  301TIP3    H225099   5.422   4.867  13.124  2.8643 -0.2437  2.1771
  302TIP3   OH225100   4.037   4.483  13.213 -0.1394 -0.6337 -0.0170
  302TIP3    H125101   4.083   4.567  13.210 -1.4854  0.1798  1.0773
  302TIP3    H225102   3.945   4.507  13.224 -0.5436 -2.2652  0.3186
  303TIP3   OH225103   3.191   0.235  11.514  0.4245  0.3447 -0.2847
  303TIP3    H125104   3.280   0.252  11.544  0.9836  1.6761 -2.5103
  303TIP3    H225105   3.174   0.301  11.447 -1.5808 -0.9942 -1.2142
  304TIP3   OH225106   6.747   5.540  12.971  0.4261  0.0865 -0.3590
  304TIP3    H125107   6.691   5.466  12.996  0.9677 -0.1657  0.1444
  304TIP3    H225108   6.835   5.502  12.963  0.5667  0.5154 -0.9336
  305TIP3   OH225109   2.499   6.022  12.166 -0.1261 -0.3208  0.5749
  305TIP3    H125110   2.523   5.932  12.187  1.4788  0.0926  0.6300
  305TIP3    H225111   2.508   6.069  12.250  1.5786  0.3755  0.0480
  306TIP3   OH225112   2.404   1.292  12.908  0.2142 -0.4387  0.0401
  306TIP3    H125113   2.488   1.258  12.940 -0.3838 -1.1998  0.8718
  306TIP3    H225114   2.386   1.368  12.963  1.5720  1.3391 -1.8485
  307TIP3   OH225115   1.076   1.150  13.371 -0.0397 -0.4392  0.1253
  307TIP3    H125116   1.000   1.204  13.348 -0.5369 -1.2895 -0.2983
  307TIP3    H225117   1.040   1.062  13.380  0.9378 -0.8950 -0.3262
  308TIP3   OH225118   4.639   2.047  11.298 -0.3335 -0.2862  0.0355
  308TIP3    H125119   4.587   2.099  11.360  0.0465 -0.4564  0.5046
  308TIP3    H225120   4.661   2.109  11.229  0.0006  0.1508  0.5197
  309TIP3   OH225121   6.165   2.132  12.582  0.0561  0.2134  0.1605
  309TIP3    H125122   6.255   2.108  12.558 -0.3819 -0.0336 -1.3244
  309TIP3    H225123   6.175   2.212  12.633  1.1827 -0.3583  0.8918
  310TIP3   OH225124   5.970   2.189  10.535  0.5509  0.0753  0.2477
  310TIP3    H125125   5.938   2.221  10.619 -0.9032  1.7932 -0.8955
  310TIP3    H225126   6.039   2.251  10.511  0.4309  0.0392 -0.1903
  311TIP3   OH225127   3.072   7.162  12.066 -0.6884 -0.2727  0.0275
  311TIP3    H125128   3.121   7.201  11.993 -0.3098 -1.4643 -0.3702
  311TIP3    H225129   3.125   7.088  12.094 -1.8227 -1.0453  0.1779
  312TIP3   OH225130   2.623   3.290  11.634  0.1375 -0.1310  0.3004
  312TIP3    H125131   2.628   3.197  11.655 -1.7697 -0.5907 -1.0364
  312TIP3    H225132   2.626   3.335  11.719  0.8973 -1.4055  0.9648
  313TIP3   OH225133   6.076   0.463  10.568  0.3433  0.5083 -0.5246
  313TIP3    H125134   6.142   0.452  10.500  0.7938  1.0006 -0.1790
  313TIP3    H225135   6.027   0.381  10.567 -1.3140  1.4061 -3.1508
  314TIP3   OH225136   1.129   3.180  11.823 -0.0355 -0.1726 -0.4246
  314TIP3    H125137   1.193   3.209  11.888  0.2000 -0.5324 -0.4935
  314TIP3    H225138   1.055   3.240  11.834 -0.6758 -1.1851  1.2790
  315TIP3   OH225139   3.513   3.050  12.027 -0.2875 -0.1682  0.1265
  315TIP3    H125140   3.583   2.999  12.066 -0.9501 -1.8704 -0.8260
  315TIP3    H225141   3.439   2.990  12.023 -0.5245  0.1816 -2.8553
  316TIP3   OH225142   3.728   5.827  12.736  0.3492 -0.2969  0.8677
  316TIP3    H125143   3.665   5.898  12.738 -0.1868 -0.6661 -1.0209
  316TIP3    H225144   3.682   5.756  12.691  2.1858 -0.4650 -0.8786
  317TIP3   OH225145   5.112   3.654  11.298 -0.0287  0.2992 -0.3229
  317TIP3    H125146   5.058   3.668  11.221  0.7235 -0.0417 -0.9281
  317TIP3    H225147   5.145   3.741  11.320  0.7091  0.2398 -1.1198
  318TIP3   OH225148   0.767   3.695  10.888  0.6042 -0.5426 -0.3028
  318TIP3    H125149   0.730   3.610  10.913  0.7232 -0.2789  0.8426
  318TIP3    H225150   0.702   3.733  10.830  0.2851 -1.1786 -0.3760
  319TIP3   OH225151   7.483   6.539  11.628 -0.1129 -0.3526  0.5035
  319TIP3    H125152   7.440   6.573  11.706 -0.0022  0.4407  0.2271
  319TIP3    H225153   7.569   6.581  11.628 -0.2891  0.0361 -0.2919
  320TIP3   OH225154   4.339   6.718  11.303  0.3488  0.3908 -0.6262
  320TIP3    H125155   4.359   6.628  11.280  0.5890  0.3523 -0.2804
  320TIP3    H225156   4.332   6.717  11.399  1.7312  1.0076 -0.4941
  321TIP3   OH225157   0.500   2.081  10.565  0.1691  0.3540  0.0761
  321TIP3    H125158   0.497   2.032  10.484 -2.7837  0.8715 -0.2586
  321TIP3    H225159   0.419   2.133  10.565 -0.3329 -0.1415  3.6316
  322TIP3   OH225160   3.266   3.638  11.004  0.2349  0.0701 -0.6200
  322TIP3    H125161   3.268   3.644  10.909  0.7581 -0.2110 -0.6331
  322TIP3    H225162   3.248   3.545  11.022 -0.4908  0.2396 -0.4444
  323TIP3   OH225163   6.474   4.140  18.793  0.3789  0.3823  0.0510
  323TIP3    H125164   6.452   4.220  18.745 -2.2241 -0.1143  0.2811
  323TIP3    H225165   6.434   4.152  18.879  0.0460 -1.1016  0.1284
  324TIP3   OH225166   5.121   7.214  17.958  0.0966 -0.4802 -0.5045
  324TIP3    H125167   5.118   7.296  17.909 -0.5181 -0.6143 -0.7089
  324TIP3    H225168   5.093   7.238  18.047  2.2035 -0.0507  0.0846
  325TIP3   OH225169   4.870   1.078  18.164  0.0250  0.1651  0.4086
  325TIP3    H125170   4.865   1.169  18.133 -0.6237 -0.2245 -0.6910
  325TIP3    H225171   4.830   1.080  18.251 -0.6660  0.8112  0.0876
  326TIP3   OH225172   5.860   2.350  17.044 -0.2852  0.0734  0.1286
  326TIP3    H125173   5.905   2.296  16.979  2.0361  0.9625  0.9095
  326TIP3    H225174   5.768   2.323  17.037  0.2660 -1.6024 -1.7695
  327TIP3   OH225175   2.111   0.208  18.556  0.1603 -0.4726  0.0155
  327TIP3    H125176   2.196   0.172  18.532  0.6501  0.1977  0.7050
  327TIP3    H225177   2.125   0.251  18.640 -0.2597  1.6674 -0.9164
  328TIP3   OH225178   4.341   2.962  19.301  0.0396  0.1033 -0.0358
  328TIP3    H125179   4.379   3.042  19.336 -1.9752  1.3235 -0.4640
  328TIP3    H225180   4.399   2.936  19.230  0.2559  1.6851 -0.4628
  329TIP3   OH225181   0.768   2.714  17.462 -0.3992  0.4815  0.6729
  329TIP3    H125182   0.838   2.650  17.477 -0.0454  0.6517 -0.1680
  329TIP3    H225183   0.706   2.699  17.533 -1.8509 -2.8802 -1.0280
  330TIP3   OH225184   6.237   5.661  17.689  0.4929  0.4223  0.1943
  330TIP3    H125185   6.258   5.753  17.670  0.0057  0.6941  0.9265
  330TIP3    H225186   6.244   5.617  17.604 -1.8257  1.6424 -0.7295
  331TIP3   OH225187   5.420   4.311  16.751 -0.2388  0.9369 -0.1571
  331TIP3    H125188   5.349   4.334  16.810  0.4649  0.7047  0.8172
  331TIP3    H225189   5.487   4.377  16.767 -0.8028  2.0486 -2.1668
  332TIP3   OH225190   0.224   3.143  17.955 -0.1723  0.0017 -0.2707
  332TIP3    H125191   0.197   3.149  18.047 -0.0707 -0.2035 -0.2280
  332TIP3    H225192   0.159   3.194  17.907  0.7937  1.6904  0.1177
  333TIP3   OH225193   2.413   5.950  17.192 -0.3622  0.2478 -0.1358
  333TIP3    H125194   2.355   6.022  17.165 -1.5298 -0.3079  0.8403
  333TIP3    H225195   2.371   5.872  17.157 -0.8897 -0.2882  1.6033
  334TIP3   OH225196   3.282   4.711  18.201 -0.4329 -0.6592  0.1449
  334TIP3    H125197   3.351   4.645  18.203 -0.0026 -0.2176 -0.0504
  334TIP3    H225198   3.286   4.753  18.287  1.0294  0.8738 -0.6259
  335TIP3   OH225199   1.351   3.253  17.578 -0.0646  0.3211  0.2462
  335TIP3    H125200   1.299   3.182  17.539  0.7830 -0.5411  0.6601
  335TIP3    H225201   1.361   3.316  17.507  1.4271 -1.2017 -1.0035
  336TIP3   OH225202   3.531   0.042  18.495 -0.1309 -0.3783 -0.7476
  336TIP3    H125203   3.467   0.108  18.520  0.6151 -0.3385  1.1968
  336TIP3    H225204   3.594   0.040  18.567  0.7127 -2.1325 -1.4599
  337TIP3   OH225205   5.143   1.549  17.777 -0.1139 -0.0017  0.7458
  337TIP3    H125206   5.195   1.628  17.758 -0.0085  0.2030  1.8307
  337TIP3    H225207   5.116   1.517  17.691  1.3061  0.2242  0.1904
  338TIP3   OH225208   3.308   4.036  19.343  0.5866  0.6715  0.0986
  338TIP3    H125209   3.303   3.992  19.429  0.4028  2.2875  0.9519
  338TIP3    H225210   3.258   4.117  19.355 -1.1533  0.0342 -2.1471
  339TIP3   OH225211   2.508   3.652  19.205 -0.0679 -0.5570 -0.0016
  339TIP3    H125212   2.420   3.681  19.231  0.8354  2.7623 -0.1890
  339TIP3    H225213   2.516   3.677  19.113  1.4441  0.3657  0.3388
  340TIP3   OH225214   4.967   4.856  17.448 -0.4147 -0.3384 -0.2499
  340TIP3    H125215   4.989   4.829  17.359  0.6015  0.0189 -0.1155
  340TIP3    H225216   5.039   4.823  17.502  1.6344  3.5707 -0.2277
  341TIP3   OH225217   1.560   6.162  17.595  0.0532  0.2839  0.3135
  341TIP3    H125218   1.630   6.155  17.660 -1.0582 -0.4280  1.4589
  341TIP3    H225219   1.484   6.192  17.643  0.0904  3.5196 -1.3441
  342TIP3   OH225220   4.855   7.214  18.773 -0.1372  0.6662  0.3894
  342TIP3    H125221   4.804   7.205  18.693 -1.5378 -2.4565  1.4410
  342TIP3    H225222   4.797   7.259  18.834 -0.9888 -1.0708  0.9538
  343TIP3   OH225223   2.050   1.785  18.935  0.1786 -0.4325 -0.6485
  343TIP3    H125224   2.096   1.702  18.929 -0.6311 -1.0558  1.1481
  343TIP3    H225225   2.077   1.821  19.019 -0.8443  0.2839 -0.6122
  344TIP3   OH225226   0.547   2.643  18.497  0.1193  0.1743  0.6544
  344TIP3    H125227   0.455   2.623  18.480  0.3624  0.4025 -1.1458
  344TIP3    H225228   0.561   2.729  18.458  0.9901  0.3646  1.3463
  345TIP3   OH225229   1.189   1.271  18.446  0.7378  0.1499  0.5554
  345TIP3    H125230   1.150   1.190  18.413  0.8614 -0.0309  0.8464
  345TIP3    H225231   1.275   1.276  18.405  0.7950  0.0488  0.6605
  346TIP3   OH225232   1.358   3.480  19.214 -0.0486 -0.7394  0.0880
  346TIP3    H125233   1.424   3.431  19.262  0.1107  0.3805  1.0566
  346TIP3    H225234   1.364   3.569  19.249  0.2034  0.1771 -2.1270
  347TIP3   OH225235   7.674   3.186  17.809 -0.1868 -0.2844 -0.1377
  347TIP3    H125236   7.689   3.094  17.789  3.2188 -0.4191  2.1847
  347TIP3    H225237   7.724   3.234  17.742 -1.2664 -0.1160 -0.8423
  348TIP3   OH225238   5.890   3.362  19.487 -0.1707  0.0052 -0.0098
  348TIP3    H125239   5.882   3.301  19.560 -0.6131  0.7867  0.6093
  348TIP3    H225240   5.980   3.351  19.456  0.7399  1.1973  2.0487
  349TIP3   OH225241   1.798   4.579  17.321  0.0318 -0.6472 -0.6201
  349TIP3    H125242   1.816   4.673  17.322  2.6035 -1.0536 -0.9452
  349TIP3    H225243   1.809   4.554  17.229 -2.8873 -0.9664 -0.9632
  350TIP3   OH225244   7.537   3.543  18.685 -0.1146 -0.2628  0.0089
  350TIP3    H125245   7.532   3.585  18.599  0.5681 -0.6069 -0.2066
  350TIP3    H225246   7.451   3.502  18.696 -0.5920  0.6864 -0.0268
  351TIP3   OH225247   6.016   1.260  18.610  0.3949 -0.0147 -0.4673
  351TIP3    H125248   5.982   1.212  18.535 -1.0844  0.1651  0.0630
  351TIP3    H225249   5.999   1.203  18.686  0.9526  0.2476 -0.1322
  352TIP3   OH225250   2.867   1.848  19.391  0.0117 -0.2632 -0.1611
  352TIP3    H125251   2.827   1.810  19.469  1.6702 -0.8270  0.4614
  352TIP3    H225252   2.875   1.774  19.330  1.9920 -0.6826  0.5359
  353TIP3   OH225253   0.644   4.790  17.217 -0.0180 -0.7852  0.1257
  353TIP3    H125254   0.674   4.859  17.158 -2.0587  1.1946  1.2485
  353TIP3    H225255   0.597   4.728  17.161  2.0370 -1.4877 -0.9343
  354TIP3   OH225256   5.992   2.416  18.188  0.0333 -0.1854 -0.3959
  354TIP3    H125257   5.915   2.432  18.133 -1.2086 -0.3273  1.2375
  354TIP3    H225258   5.970   2.339  18.239  0.2203  1.1412  1.8315
  355TIP3   OH225259   4.137   6.581  18.559 -0.0032 -0.3340 -0.4628
  355TIP3    H125260   4.144   6.609  18.651  1.8880 -0.1283 -0.6225
  355TIP3    H225261   4.156   6.660  18.509 -1.6919 -0.2822 -1.0798
  356TIP3   OH225262   4.755   6.962  17.547  0.8133 -0.6930 -0.5594
  356TIP3    H125263   4.665   6.976  17.575  0.9706  0.6924 -0.6656
  356TIP3    H225264   4.788   6.893  17.604  0.2840  0.1799  0.8632
  357TIP3   OH225265   4.966   5.863  17.690 -0.1112  0.1180 -0.1789
  357TIP3    H125266   4.916   5.803  17.745  1.8463 -0.1948  1.3775
  357TIP3    H225267   5.041   5.812  17.661 -0.1583  0.8419 -1.6474
  358TIP3   OH225268   0.938   3.034  18.643  0.1369 -0.0543  0.0381
  358TIP3    H125269   0.858   3.081  18.667 -0.2487 -1.4175  1.5875
  358TIP3    H225270   0.929   3.020  18.548 -1.2802  0.1572  0.1132
  359TIP3   OH225271   7.595   6.579  18.425  0.2172  0.0657  0.3164
  359TIP3    H125272   7.568   6.551  18.338 -1.8195  1.0305  0.5610
  359TIP3    H225273   7.608   6.674  18.417 -0.9102  0.3233  1.2209
  360TIP3   OH225274   4.766   6.347  16.580 -0.2635  0.4435 -0.2207
  360TIP3    H125275   4.802   6.318  16.497 -0.0885  1.2457 -0.4418
  360TIP3    H225276   4.671   6.341  16.569 -0.2355  0.3153 -0.3876
  361TIP3   OH225277   2.085   5.503  18.320  0.3549  0.1595 -0.0038
  361TIP3    H125278   2.100   5.589  18.361 -0.8368  0.5552 -0.3587
  361TIP3    H225279   2.074   5.443  18.394  0.7946  0.3797  0.2470
  362TIP3   OH225280   0.768   1.354  17.152 -0.2990 -0.3456  0.5679
  362TIP3    H125281   0.706   1.304  17.098  0.2669 -0.4317 -0.0165
  362TIP3    H225282   0.776   1.438  17.107 -1.4432  0.3879  1.6885
  363TIP3   OH225283   3.479   5.040  17.566 -0.1934  0.1794 -0.7228
  363TIP3    H125284   3.495   5.018  17.474 -0.7431  0.8257 -0.9767
  363TIP3    H225285   3.432   5.123  17.564 -0.5542  0.0108  0.1286
  364TIP3   OH225286   4.054   7.229  18.521 -0.3079 -0.0077 -0.0395
  364TIP3    H125287   4.066   7.241  18.616 -1.3776 -1.1967  0.2753
  364TIP3    H225288   4.024   7.315  18.490  1.3542  0.7904  0.4284
  365TIP3   OH225289   3.144   6.240  18.805 -1.0052  0.2297 -0.5218
  365TIP3    H125290   3.166   6.292  18.728 -0.8458 -1.8115 -1.9557
  365TIP3    H225291   3.058   6.271  18.831  0.2118  3.1239  0.4906
  366TIP3   OH225292   5.139   6.064  17.657  0.2680  0.4180 -0.5191
  366TIP3    H125293   5.085   5.986  17.667 -1.9992  1.7204 -1.8825
  366TIP3    H225294   5.091   6.132  17.703  0.9298  1.5516 -1.4748
  367TIP3   OH225295   1.315   3.740  18.900 -0.0498 -0.0278  0.4011
  367TIP3    H125296   1.305   3.798  18.975 -0.1052  1.4278 -0.6776
  367TIP3    H225297   1.261   3.780  18.832 -0.8087 -1.8600 -0.1258
  368TIP3   OH225298   6.415   7.160  18.783  0.2854 -0.2334  0.4209
  368TIP3    H125299   6.411   7.121  18.695  0.5345 -0.2030  0.3944
  368TIP3    H225300   6.324   7.164  18.812  0.2100 -0.3183  0.1946
  369TIP3   OH225301   5.140   5.741  17.278  0.2089  0.1857  0.5894
  369TIP3    H125302   5.116   5.830  17.306 -0.9920  0.0129  0.1552
  369TIP3    H225303   5.187   5.755  17.196  0.0907  0.4300  0.5595
  370TIP3   OH225304   4.184   3.392  18.987  0.4806  0.1238  0.3542
  370TIP3    H125305   4.155   3.454  19.055 -0.6563  0.9738 -0.8579
  370TIP3    H225306   4.247   3.441  18.935  3.4190 -1.3506  2.2676
  371TIP3   OH225307   2.048   3.308  18.329  0.6273 -0.3922 -0.6371
  371TIP3    H125308   2.104   3.276  18.258 -0.2890  1.5798 -2.3265
  371TIP3    H225309   2.045   3.235  18.391  1.6280 -2.1317 -2.5119
  372TIP3   OH225310   4.965   6.432  17.575  0.8275 -0.0476 -0.6136
  372TIP3    H125311   4.972   6.393  17.662 -0.1981  1.0198 -0.0332
  372TIP3    H225312   5.055   6.431  17.542  1.5560  1.1370  1.1718
  373TIP3   OH225313   6.710   0.632  18.151 -0.8246  0.0148 -0.1714
  373TIP3    H125314   6.803   0.619  18.137 -1.0057  0.6665 -2.3526
  373TIP3    H225315   6.676   0.544  18.172  0.0361 -0.5526 -1.0551
  374TIP3   OH225316   0.938   5.893  17.449 -0.2331  0.1381 -1.5073
  374TIP3    H125317   0.926   5.960  17.382 -1.7432  0.5089 -0.9110
  374TIP3    H225318   0.854   5.891  17.496  0.2363 -1.2413 -0.6663
  375TIP3   OH225319   2.756   3.146  17.985 -0.1683 -0.1048  0.1807
  375TIP3    H125320   2.786   3.089  18.056  0.1952 -0.2102 -0.0507
  375TIP3    H225321   2.728   3.086  17.916 -1.0018 -0.0035  0.4258
  376TIP3   OH225322   7.599   5.341  19.511 -0.2906  0.1791  0.2693
  376TIP3    H125323   7.661   5.368  19.444 -0.9745 -1.0958 -0.9325
  376TIP3    H225324   7.634   5.259  19.546  0.0663  0.8318  1.5175
  377TIP3   OH225325   6.952   2.816  17.394 -0.3290  0.0997  0.3619
  377TIP3    H125326   6.948   2.807  17.489  0.7935  0.4420  0.4655
  377TIP3    H225327   6.990   2.903  17.381  0.3979 -0.3213 -0.3760
  378TIP3   OH225328   1.881   6.098  18.062 -0.8098  0.2913  0.3284
  378TIP3    H125329   1.850   6.008  18.049  1.9768 -0.5941 -1.2232
  378TIP3    H225330   1.849   6.123  18.149 -0.5204 -2.7440  1.4243
  379TIP3   OH225331   5.785   5.264  18.550 -0.1252 -0.1303  1.0755
  379TIP3    H125332   5.727   5.238  18.623 -2.5041 -0.2951 -0.7527
  379TIP3    H225333   5.744   5.226  18.473  2.2872  0.1100 -0.4016
  380TIP3   OH225334   6.781   2.667  18.590  0.0791  0.1832 -0.3059
  380TIP3    H125335   6.823   2.628  18.513  0.8928  1.0652 -0.3218
  380TIP3    H225336   6.689   2.642  18.582  0.4904 -1.3247 -0.5572
  381TIP3   OH225337   0.070   7.144  16.937 -0.0581  0.2324 -0.1258
  381TIP3    H125338   0.058   7.123  16.844  0.2752  0.0761 -0.1368
  381TIP3    H225339  -0.006   7.105  16.980  0.3765 -0.7243 -0.1927
  382TIP3   OH225340   1.964   0.166  17.254 -0.2947 -0.6449  0.3759
  382TIP3    H125341   1.984   0.258  17.235 -0.0785 -0.3544  1.8645
  382TIP3    H225342   1.969   0.122  17.169 -0.0250  0.6459 -0.3033
  383TIP3   OH225343   0.514   0.393  18.873  0.0328  0.3465  0.0818
  383TIP3    H125344   0.526   0.488  18.874  0.4027  0.2981  1.1976
  383TIP3    H225345   0.474   0.373  18.958 -3.3359 -0.0966 -1.4202
  384TIP3   OH225346   2.382   5.478  19.506 -0.1903 -0.2800 -0.2888
  384TIP3    H125347   2.453   5.517  19.457 -0.4444 -0.5441 -0.8755
  384TIP3    H225348   2.340   5.551  19.551 -0.9377  0.2165 -1.7282
  385TIP3   OH225349   3.449   0.627  19.249 -0.3648  0.1438  0.0377
  385TIP3    H125350   3.370   0.575  19.232 -0.5937 -0.0810  1.6292
  385TIP3    H225351   3.519   0.563  19.258 -0.3266  0.2235  0.3179
  386TIP3   OH225352   4.280   0.985  17.522  0.1808  0.3549  0.3178
  386TIP3    H125353   4.209   0.950  17.575  0.1909  0.4049  0.3641
  386TIP3    H225354   4.358   0.939  17.553  0.3169  0.9713  0.9116
  387TIP3   OH225355   2.867   1.607  18.426 -0.1356 -0.4961 -0.5334
  387TIP3    H125356   2.852   1.679  18.365  0.5904 -0.6484 -0.8925
  387TIP3    H225357   2.961   1.605  18.439 -0.4011  1.0788  2.4520
  388TIP3   OH225358   7.245   5.596  17.617 -0.2691 -0.0048 -0.1833
  388TIP3    H125359   7.235   5.625  17.526 -0.0073  1.5252  0.2513
  388TIP3    H225360   7.208   5.666  17.669 -0.4872 -0.9013  0.9119
  389TIP3   OH225361   5.887   0.451  18.098  0.3879  0.2532  0.1838
  389TIP3    H125362   5.926   0.394  18.165  1.7810  0.2432 -0.5898
  389TIP3    H225363   5.957   0.512  18.075 -0.4476  1.0074 -0.4393
  390TIP3   OH225364   6.993   5.144  18.509 -0.3988 -0.3900 -0.1843
  390TIP3    H125365   7.076   5.175  18.473 -1.5296 -1.6138 -4.4639
  390TIP3    H225366   7.009   5.052  18.531 -0.4536 -0.4637 -0.4482
  391TIP3   OH225367   7.082   5.059  16.893  0.0521  0.2539 -0.2480
  391TIP3    H125368   7.159   5.014  16.927 -1.3760 -1.3378  1.0628
  391TIP3    H225369   7.033   4.992  16.846 -0.5108  1.2550 -1.1511
  392TIP3   OH225370   6.633   3.049  18.782 -0.1659 -0.1092 -0.2018
  392TIP3    H125371   6.665   3.095  18.704  1.8602  1.4540  1.4473
  392TIP3    H225372   6.543   3.080  18.793  0.2383  1.3590 -0.7288
  393TIP3   OH225373   1.758   0.831  16.693  0.2586 -1.0957  0.3292
  393TIP3    H125374   1.803   0.867  16.769  0.2707 -1.6037  0.5644
  393TIP3    H225375   1.723   0.747  16.723 -0.3258 -0.9824 -0.0259
  394TIP3   OH225376   5.131   4.001  18.129  0.7304 -0.1135 -0.0190
  394TIP3    H125377   5.199   4.030  18.068  0.9639 -0.4375  0.0883
  394TIP3    H225378   5.174   4.001  18.215  1.0826 -1.8898 -0.1620
  395TIP3   OH225379   1.133   1.008  17.391 -0.0235 -0.0851  0.2880
  395TIP3    H125380   1.136   1.062  17.312  1.0238  1.1900  1.1490
  395TIP3    H225381   1.047   1.026  17.429 -0.5332 -0.7071 -0.5391
  396TIP3   OH225382   3.490   2.022  17.698  0.6832  0.2208  0.3297
  396TIP3    H125383   3.406   2.022  17.651  0.6263  0.1410  0.4297
  396TIP3    H225384   3.544   1.958  17.651  0.0539 -1.1504  1.3691
  397TIP3   OH225385   4.340   6.682  18.249 -0.3058  0.1198 -0.0851
  397TIP3    H125386   4.331   6.739  18.324  1.4700  2.1909 -1.3363
  397TIP3    H225387   4.431   6.694  18.220 -0.7895 -0.9453 -2.2611
  398TIP3   OH225388   4.763   3.064  18.675  0.2225  0.2613  0.2993
  398TIP3    H125389   4.769   3.049  18.580  0.1456 -0.7832  0.4461
  398TIP3    H225390   4.852   3.088  18.700  0.5449 -0.6815  0.1382
  399TIP3   OH225391   1.063   7.130  19.193 -0.1125  0.0779 -0.2813
  399TIP3    H125392   0.989   7.136  19.253 -0.2654 -0.0811 -0.4508
  399TIP3    H225393   1.029   7.162  19.109  0.3152  1.0397 -0.1013
  400TIP3   OH225394   6.480   3.595  18.871 -0.2453  0.3103 -0.4006
  400TIP3    H125395   6.481   3.626  18.781  1.2026  0.4839 -0.3391
  400TIP3    H225396   6.548   3.528  18.876 -0.6017 -0.0117  0.4607
  401TIP3   OH225397   3.215   2.730  18.349 -0.6363 -0.1983 -0.2609
  401TIP3    H125398   3.154   2.677  18.298 -0.3481 -1.3402  0.5166
  401TIP3    H225399   3.287   2.669  18.370  1.2120  1.2922 -1.8459
  402TIP3   OH225400   5.919   2.229  18.393  0.3801 -0.2890 -0.0058
  402TIP3    H125401   5.903   2.189  18.478 -1.4480  0.1963 -0.0791
  402TIP3    H225402   5.832   2.243  18.356  1.0068  2.0929 -0.7514
  403TIP3   OH225403   4.158   2.741  16.920  0.8087 -0.1694 -0.1038
  403TIP3    H125404   4.083   2.770  16.868  0.6737 -1.2867 -0.5521
  403TIP3    H225405   4.223   2.811  16.908 -0.5595  1.4174  1.2627
  404TIP3   OH225406   0.955   2.384  18.315 -0.3403  0.4624 -0.0367
  404TIP3    H125407   0.895   2.391  18.390  0.7924 -1.0066  1.0782
  404TIP3    H225408   0.918   2.442  18.249 -1.4483  1.7514  1.6267
  405TIP3   OH225409   6.929   3.287  18.049 -0.0829 -0.2170  0.0918
  405TIP3    H125410   7.000   3.261  18.106 -0.0269  0.6379  0.4359
  405TIP3    H225411   6.923   3.382  18.060  0.3557  0.0683 -1.8132
  406TIP3   OH225412   2.886   2.294  18.719 -0.1742 -0.1887  0.0682
  406TIP3    H125413   2.863   2.338  18.801 -0.3853 -0.5086  0.1839
  406TIP3    H225414   2.942   2.221  18.747 -0.1681 -0.2409 -0.0811
  407TIP3   OH225415   5.549   4.126  18.942 -0.2472 -0.2562 -0.4371
  407TIP3    H125416   5.641   4.098  18.937 -0.3995 -0.9299  0.2408
  407TIP3    H225417   5.500   4.045  18.956 -0.8392  0.2070  0.2766
  408TIP3   OH225418   2.781   0.397  18.019 -0.5249  0.4083  0.0399
  408TIP3    H125419   2.805   0.354  17.936  0.3651  1.3879 -0.2207
  408TIP3    H225420   2.686   0.385  18.025 -0.3733 -1.1624 -0.2656
  409TIP3   OH225421   4.225   4.989  17.125 -0.2349 -0.1411 -0.2301
  409TIP3    H125422   4.203   5.051  17.195 -3.6838 -1.2601 -0.0889
  409TIP3    H225423   4.269   4.917  17.170  0.7114  0.6641  0.1685
  410TIP3   OH225424   1.455   7.484  18.432  0.0392 -0.4317  0.0703
  410TIP3    H125425   1.436   7.571  18.396  2.4237  0.9304  1.8003
  410TIP3    H225426   1.414   7.486  18.519 -0.2000 -1.1832 -0.0248
  411TIP3   OH225427   7.600   2.418  17.890  0.2618  0.2387  0.3435
  411TIP3    H125428   7.505   2.406  17.895  0.3274  0.2912  2.3222
  411TIP3    H225429   7.611   2.507  17.856 -0.4228  0.6364  1.1309
  412TIP3   OH225430   5.987   6.850  18.820 -0.3758  0.2837 -0.3327
  412TIP3    H125431   5.944   6.812  18.896 -0.6177  1.2047  0.0089
  412TIP3    H225432   5.960   6.795  18.746  1.2965 -1.7214  0.4685
  413TIP3   OH225433   3.429   4.701  17.405 -0.0705 -0.3893  0.3161
  413TIP3    H125434   3.435   4.635  17.335 -0.2008 -0.3826  0.2986
  413TIP3    H225435   3.455   4.654  17.484  1.9098  0.0690 -0.0186
  414TIP3   OH225436   0.260   5.689  19.140 -0.4210 -0.1489 -0.6975
  414TIP3    H125437   0.300   5.726  19.218  0.1644 -1.2002 -0.4903
  414TIP3    H225438   0.169   5.672  19.165  0.1168 -1.8553  0.2601
  415TIP3   OH225439   2.182   2.130  17.758 -0.3033 -0.6185 -0.0957
  415TIP3    H125440   2.207   2.107  17.847 -0.1562  2.1657  0.6971
  415TIP3    H225441   2.104   2.077  17.740 -1.0095 -0.4425  2.1403
  416TIP3   OH225442   5.557   7.096  18.915  0.3699 -0.1707 -0.0917
  416TIP3    H125443   5.477   7.114  18.866  0.5686  1.1867  0.0510
  416TIP3    H225444   5.628   7.115  18.855  0.6006 -0.4277  0.0935
  417TIP3   OH225445   1.021   1.214  16.501  0.1768  0.8580 -0.1018
  417TIP3    H125446   0.993   1.123  16.496  1.9463  0.2882 -0.6407
  417TIP3    H225447   0.943   1.265  16.480 -0.8260 -0.5295  0.1396
  418TIP3   OH225448   4.188   5.817  17.840  0.2675 -0.1966  0.2594
  418TIP3    H125449   4.239   5.854  17.912 -0.2674 -1.8402  1.5298
  418TIP3    H225450   4.249   5.816  17.766  0.5537  2.3838  0.3631
  419TIP3   OH225451   1.755   1.984  17.415 -0.1966 -0.0102  0.1863
  419TIP3    H125452   1.767   1.892  17.441 -1.9457 -0.4506 -0.3984
  419TIP3    H225453   1.771   2.034  17.495  0.9564 -0.7999  0.4710
  420TIP3   OH225454   4.564   2.313  18.445 -0.1770  0.3448 -0.3899
  420TIP3    H125455   4.481   2.344  18.408  0.7245  1.1541 -1.8183
  420TIP3    H225456   4.593   2.245  18.384  0.5736  0.5874 -0.3021
  421TIP3   OH225457   4.674   5.312  17.610 -0.2873  0.1824  0.4026
  421TIP3    H125458   4.588   5.284  17.641 -1.0893  1.2316 -0.7385
  421TIP3    H225459   4.699   5.245  17.546  0.8547 -1.3737  2.3697
  422TIP3   OH225460   1.482   1.848  17.755 -0.1299 -0.2365  0.2543
  422TIP3    H125461   1.444   1.842  17.842  0.7775 -1.1233  0.5939
  422TIP3    H225462   1.539   1.772  17.747 -0.2082 -0.1800 -1.1201
  423TIP3   OH225463   5.381   5.838  16.817 -0.0603 -0.6172 -0.1755
  423TIP3    H125464   5.453   5.784  16.784  1.1082  1.7468 -1.8385
  423TIP3    H225465   5.407   5.928  16.796 -2.4280  0.5411  1.3573
  424TIP3   OH225466   3.494   3.604  17.897 -0.4464  0.1325  0.0434
  424TIP3    H125467   3.447   3.558  17.828  0.5431 -2.6768  1.0796
  424TIP3    H225468   3.426   3.648  17.948 -1.4795 -0.1704 -1.0340
  425TIP3   OH225469   0.608   4.748  18.246  0.2952 -0.5026 -0.1409
  425TIP3    H125470   0.540   4.693  18.286  0.0967  0.5779  1.0728
  425TIP3    H225471   0.608   4.722  18.154  0.3920 -2.7000  0.4207
  426TIP3   OH225472   1.439   0.977  18.763  0.0517 -0.0391 -0.1190
  426TIP3    H125473   1.366   0.925  18.795  1.3136 -0.6037  2.0701
  426TIP3    H225474   1.475   0.926  18.690  0.3849 -1.5756  1.0634
  427TIP3   OH225475   5.348   0.132  18.558 -0.2618 -0.3321 -0.2794
  427TIP3    H125476   5.295   0.182  18.496  1.7031  1.8349 -0.3490
  427TIP3    H225477   5.424   0.188  18.576  0.9799 -2.3855  1.4032
  428TIP3   OH225478   6.919   1.128  18.697 -0.2354 -0.6346 -0.0054
  428TIP3    H125479   6.900   1.041  18.732  1.2547 -0.9850  0.0062
  428TIP3    H225480   6.921   1.116  18.602 -1.0897 -0.3702 -0.0642
  429TIP3   OH225481   6.157   7.225  17.503  0.3214 -0.0287  0.2553
  429TIP3    H125482   6.235   7.185  17.465 -0.6934 -1.4571 -0.3989
  429TIP3    H225483   6.103   7.249  17.427  0.8969  2.7237  0.6061
  430TIP3   OH225484   0.019   4.355  19.097 -0.0320  0.0927  0.5527
  430TIP3    H125485   0.050   4.301  19.169  0.7480  2.5614  2.2211
  430TIP3    H225486  -0.042   4.416  19.137 -3.1282 -1.2257 -1.7546
  431TIP3   OH225487   4.274   4.505  17.519  0.3587  0.1685 -0.0895
  431TIP3    H125488   4.252   4.598  17.510  0.3172  0.0082 -2.1627
  431TIP3    H225489   4.226   4.477  17.596 -1.2036  1.4467 -0.5341
  432TIP3   OH225490   0.853   0.437  19.505 -0.0757  0.2645  0.0911
  432TIP3    H125491   0.801   0.386  19.442  0.5099 -0.2863  0.0467
  432TIP3    H225492   0.825   0.404  19.591 -0.1053  0.2715  0.0848
  433TIP3   OH225493   7.550   1.961  18.662 -0.2268  0.1494 -0.2016
  433TIP3    H125494   7.633   1.997  18.693 -0.4293 -1.0824  1.8864
  433TIP3    H225495   7.492   2.037  18.654 -0.0899  0.5805  2.3232
  434TIP3   OH225496   7.354   0.195  17.943 -0.1192  0.2312  0.2926
  434TIP3    H125497   7.319   0.209  17.855  1.0436 -0.5845 -0.3317
  434TIP3    H225498   7.360   0.100  17.951 -1.1078  0.2689  1.6368
  435TIP3   OH225499   7.228   0.789  18.887  1.3532  0.0196  0.3446
  435TIP3    H125500   7.242   0.695  18.901 -0.1081 -0.3868 -0.7151
  435TIP3    H225501   7.133   0.800  18.892  1.2921  1.0042 -1.9511
  436TIP3   OH225502   6.804   4.367  19.081  1.0385 -0.4422 -0.2170
  436TIP3    H125503   6.788   4.304  19.011 -2.9047  1.6456 -1.5027
  436TIP3    H225504   6.841   4.443  19.037  0.2374  0.2277  0.2472
  437TIP3   OH225505   0.018   0.078  17.801  0.7092  0.1085 -0.0378
  437TIP3    H125506   0.002  -0.007  17.843 -2.8619  1.1622  1.1144
  437TIP3    H225507   0.065   0.057  17.720  1.2564 -2.7590  0.9058
  438TIP3   OH225508   5.878   6.744  19.054  0.2743 -0.1420  0.0150
  438TIP3    H125509   5.850   6.658  19.085  2.1140 -0.3945  1.1533
  438TIP3    H225510   5.800   6.798  19.058 -0.4400 -1.2201  1.3389
  439TIP3   OH225511   6.272   3.747  17.076 -0.2313 -0.2330  0.2536
  439TIP3    H125512   6.255   3.771  16.985 -2.1491 -1.8436  0.1204
  439TIP3    H225513   6.246   3.825  17.126  0.4784  0.5293 -0.5327
  440TIP3   OH225514   0.011   3.307  18.499  0.1755 -0.5032  0.0496
  440TIP3    H125515  -0.044   3.301  18.421  0.0777  2.0818 -0.1625
  440TIP3    H225516  -0.043   3.268  18.569 -0.8207 -0.4125 -0.6561
  441TIP3   OH225517   4.932   4.691  18.182  0.4672  0.1260 -0.3130
  441TIP3    H125518   4.876   4.769  18.177  0.2209 -0.0260  0.0223
  441TIP3    H225519   5.016   4.720  18.145  0.3768  0.5495 -0.1992
  442TIP3   OH225520   5.677   1.943  17.544  0.1251 -0.5885 -0.2761
  442TIP3    H125521   5.755   1.982  17.583  0.4933  0.2405 -1.7613
  442TIP3    H225522   5.604   1.986  17.589  0.5333  0.3445 -0.4866
  443TIP3   OH225523   6.480   3.087  19.093  0.0785 -0.0942  0.5802
  443TIP3    H125524   6.403   3.040  19.124 -1.5629  3.1131  1.7351
  443TIP3    H225525   6.449   3.137  19.017  1.8047 -0.8942 -0.7263
  444TIP3   OH225526   1.589   5.370  17.767  0.0202  0.1061 -0.3092
  444TIP3    H125527   1.520   5.332  17.821  0.1063 -0.2206 -0.4230
  444TIP3    H225528   1.654   5.401  17.829 -0.6686  1.3072 -0.1579
  445TIP3   OH225529   5.104   3.557  17.595  0.1628 -0.4605  0.2436
  445TIP3    H125530   5.173   3.602  17.547 -0.9301  0.9998 -0.0376
  445TIP3    H225531   5.130   3.563  17.687  1.1527 -1.3049  0.0410
  446TIP3   OH225532   7.463   5.361  18.673 -0.2740  0.4591  0.3033
  446TIP3    H125533   7.452   5.362  18.578  0.0986  0.0327  0.2535
  446TIP3    H225534   7.554   5.390  18.687  1.0557 -3.1408  0.3022
  447TIP3   OH225535   7.617   4.372  18.840 -0.8256 -0.3205  0.2498
  447TIP3    H125536   7.653   4.358  18.927 -0.4681  0.7993  0.3094
  447TIP3    H225537   7.525   4.393  18.855 -0.6511  0.3555  0.4100
  448TIP3   OH225538   6.422   7.490  18.564 -0.0156  0.0127  0.2203
  448TIP3    H125539   6.512   7.458  18.561  0.5889  1.6488 -0.5112
  448TIP3    H225540   6.430   7.579  18.598 -1.3949  0.0974  0.3615
  449TIP3   OH225541   5.114   4.721  19.172 -0.6728  0.7705 -0.1020
  449TIP3    H125542   5.125   4.714  19.267  0.6108  2.5220 -0.0675
  449TIP3    H225543   5.167   4.649  19.136  1.0531  1.6930  0.4719
  450TIP3   OH225544   6.560   0.725  17.932  0.1259  0.2284 -0.0697
  450TIP3    H125545   6.613   0.723  18.012  0.3192 -2.2997 -0.2093
  450TIP3    H225546   6.624   0.740  17.862  0.4811 -1.2977 -0.0911
  451TIP3   OH225547   1.172   2.533  18.582 -0.6148  0.0214  0.5689
  451TIP3    H125548   1.236   2.466  18.558 -0.8138  0.0466 -0.0411
  451TIP3    H225549   1.221   2.615  18.578 -0.5527 -0.0119  0.6266
  452TIP3   OH225550   5.673   6.166  19.167  0.2186  0.4907  0.2532
  452TIP3    H125551   5.594   6.179  19.115  0.4344  1.4216  0.1331
  452TIP3    H225552   5.744   6.171  19.103  0.5565  2.5847  0.7015
  453TIP3   OH225553   6.383   0.539  18.049 -0.8151  0.3793 -0.1561
  453TIP3    H125554   6.437   0.608  18.010 -2.2775  0.5097 -2.1100
  453TIP3    H225555   6.446   0.476  18.083  0.5449  1.9061  0.2690
  454TIP3   OH225556   3.842   6.680  18.517  0.0719  0.0555  0.2855
  454TIP3    H125557   3.768   6.722  18.562 -0.1889 -2.5839  2.6610
  454TIP3    H225558   3.913   6.744  18.521 -1.2263  1.5353  0.6309
  455TIP3   OH225559   1.691   2.508  17.748  0.0554  0.2292  0.2599
  455TIP3    H125560   1.613   2.487  17.799 -0.7166 -0.0226 -0.9952
  455TIP3    H225561   1.762   2.462  17.793 -0.3454  1.1637  1.9156
  456TIP3   OH225562   4.838   1.990  18.458  0.5071  0.4486  0.0081
  456TIP3    H125563   4.797   2.059  18.509  1.0271  0.2923  0.6594
  456TIP3    H225564   4.894   2.036  18.396 -2.1510  0.7649 -2.3414
  457TIP3   OH225565   3.864   4.149  17.766 -0.6875  0.1066  0.1561
  457TIP3    H125566   3.930   4.205  17.725 -0.8114  1.1133  1.2539
  457TIP3    H225567   3.910   4.068  17.787  0.0738  0.5975  0.4276
  458TIP3   OH225568   1.565   1.047  19.172  0.1633  0.6351  0.1791
  458TIP3    H125569   1.545   0.971  19.226 -1.9828  1.1501  0.1948
  458TIP3    H225570   1.587   1.010  19.086 -0.8732 -0.0117  0.1805
  459TIP3   OH225571   2.845   2.591  17.058  0.1064 -0.0578 -0.2277
  459TIP3    H125572   2.844   2.661  16.993  2.5455  1.8998  1.6294
  459TIP3    H225573   2.753   2.573  17.075 -0.6702  2.8649 -0.7010
  460TIP3   OH225574   2.825   5.781  18.627 -1.0437 -0.4631  0.0718
  460TIP3    H125575   2.735   5.752  18.643 -0.9327 -0.5807  0.5064
  460TIP3    H225576   2.853   5.819  18.710 -1.9347  2.9525 -1.0467
  461TIP3   OH225577   7.043   6.658  17.091 -0.5961  0.7469  0.4798
  461TIP3    H125578   7.040   6.631  17.183 -3.2769 -0.4612  0.1194
  461TIP3    H225579   6.968   6.717  17.081 -0.4256  0.7438 -0.9596
  462TIP3   OH225580   5.536   5.135  18.987  0.1184 -0.2959 -0.2931
  462TIP3    H125581   5.549   5.054  19.035  0.3307 -0.0156  0.1277
  462TIP3    H225582   5.448   5.128  18.950  0.0302 -0.5954 -0.0249
  463TIP3   OH225583   2.355   0.627  18.528  0.7011  0.1375 -0.4688
  463TIP3    H125584   2.361   0.540  18.487  0.9820 -0.5327  0.9464
  463TIP3    H225585   2.262   0.639  18.545  0.3843  1.0533 -2.5529
  464TIP3   OH225586   7.267   1.845  18.704  0.0287  0.3834  0.1358
  464TIP3    H125587   7.263   1.940  18.718 -1.9852  0.2333  0.8897
  464TIP3    H225588   7.321   1.835  18.626 -1.0299  2.2681 -0.9099
  465TIP3   OH225589   1.207   4.551  17.339  0.5827  0.3868  0.6899
  465TIP3    H125590   1.180   4.622  17.281 -0.8683 -0.5336  0.1772
  465TIP3    H225591   1.125   4.521  17.379  1.0274 -1.5353  0.2458
  466TIP3   OH225592   0.946   6.131  17.306 -0.0293 -0.1757  0.7973
  466TIP3    H125593   0.902   6.171  17.381 -0.6240 -0.1076  0.4170
  466TIP3    H225594   0.914   6.180  17.230  0.9308  0.0716  0.5317
  467TIP3   OH225595   6.188   6.931  16.914  0.0436 -0.5464  0.2679
  467TIP3    H125596   6.196   6.881  16.995 -0.3033  0.1939  0.7768
  467TIP3    H225597   6.165   7.020  16.943 -0.9613 -0.4730 -0.6811
  468TIP3   OH225598   4.685   4.913  19.060  0.2070 -0.2272  0.0695
  468TIP3    H125599   4.745   4.869  19.122  0.5511 -0.1154 -0.1830
  468TIP3    H225600   4.736   4.986  19.025  0.4756 -1.0494 -1.3250
  469TIP3   OH225601   5.645   2.236  18.866  0.7703 -0.5467 -0.1080
  469TIP3    H125602   5.708   2.291  18.913  0.4805 -0.5788  0.3288
  469TIP3    H225603   5.666   2.146  18.894 -0.5965 -0.4404  1.4840
  470TIP3   OH225604   6.849   1.066  19.228  0.5726  0.2598 -0.3789
  470TIP3    H125605   6.770   1.016  19.205  0.1131  1.1154 -0.7328
  470TIP3    H225606   6.907   1.055  19.152 -0.0683  1.3262 -1.0470
  471TIP3   OH225607   0.251   4.919  17.154  0.0569  0.4365  0.0449
  471TIP3    H125608   0.290   4.833  17.136  2.7328  1.8365 -1.5051
  471TIP3    H225609   0.303   4.953  17.227 -1.2746  0.6137  0.9422
  472TIP3   OH225610   0.497   0.954  17.343  0.0225  0.0830 -0.1134
  472TIP3    H125611   0.470   0.903  17.419  0.3437  0.1703  0.0641
  472TIP3    H225612   0.581   0.916  17.317  0.2936  0.5447  0.0538
  473TIP3   OH225613   2.595   6.279  18.644 -0.0394 -0.6616 -0.8668
  473TIP3    H125614   2.657   6.220  18.686  0.3477  0.3648  0.0431
  473TIP3    H225615   2.509   6.244  18.667  0.1240  0.4582  1.7615
  474TIP3   OH225616   2.006   2.380  18.470  0.5002  0.5500 -0.3564
  474TIP3    H125617   1.972   2.338  18.390  0.5054  0.6552 -0.4137
  474TIP3    H225618   2.011   2.310  18.534  1.1469  0.3264 -0.6497
  475TIP3   OH225619   6.397   1.565  18.563 -0.0562  0.2919 -0.0305
  475TIP3    H125620   6.441   1.640  18.603 -1.0393  1.0044 -0.2357
  475TIP3    H225621   6.412   1.493  18.624  0.9773  0.6283  0.1259
  476TIP3   OH225622   6.300   3.561  17.809 -0.3432 -0.3597 -0.0765
  476TIP3    H125623   6.238   3.552  17.881  0.2338 -1.1496  0.3327
  476TIP3    H225624   6.251   3.606  17.740 -0.7442  0.9084  0.9898
  477TIP3   OH225625   5.938   6.977  19.292  0.1985  0.2410  0.0218
  477TIP3    H125626   5.890   6.983  19.210  0.8965 -1.2042 -0.5133
  477TIP3    H225627   5.892   6.910  19.342  1.2030 -0.6336 -0.1975
  478TIP3   OH225628   0.934   0.337  17.838  0.3176  0.5232  0.0779
  478TIP3    H125629   0.867   0.324  17.905 -0.5289  1.9866 -0.4406
  478TIP3    H225630   0.886   0.370  17.762  1.4662  0.3824 -0.7275
  479TIP3   OH225631   6.377   7.282  16.376 -0.3752  0.5189  0.2081
  479TIP3    H125632   6.443   7.234  16.427 -0.9368  1.5975  2.0566
  479TIP3    H225633   6.417   7.367  16.359 -1.2311  1.1931  1.3646
  480TIP3   OH225634   4.650   4.574  18.449  0.2688  0.1418  0.7332
  480TIP3    H125635   4.624   4.484  18.469 -1.1391  0.3583  0.0009
  480TIP3    H225636   4.575   4.627  18.478 -0.0409  0.8356 -1.1780
  481TIP3   OH225637   3.066   5.632  19.303 -0.0232  0.0047 -0.5262
  481TIP3    H125638   3.132   5.568  19.274  0.2244 -0.3325  0.7383
  481TIP3    H225639   3.115   5.714  19.312  0.7613 -0.6896  2.4261
  482TIP3   OH225640   7.312   5.562  18.486  0.3582  0.1344 -0.2991
  482TIP3    H125641   7.394   5.561  18.535 -0.5756  1.2514  1.3854
  482TIP3    H225642   7.317   5.640  18.432  0.5806 -0.0321 -0.5189
  483TIP3   OH225643   2.950   3.585  17.146 -0.1324 -0.1847 -0.3174
  483TIP3    H125644   3.023   3.538  17.187  0.6894  0.7812 -0.6341
  483TIP3    H225645   2.946   3.550  17.057  0.7091  0.5731 -0.6670
  484TIP3   OH225646   5.670   1.901  19.245 -0.2245 -0.2614 -0.3914
  484TIP3    H125647   5.602   1.962  19.275  0.5702  0.8890 -0.8280
  484TIP3    H225648   5.658   1.898  19.150  0.8503  0.6346 -0.5740
  485TIP3   OH225649   7.271   5.914  17.234 -0.8983 -0.2001 -0.0823
  485TIP3    H125650   7.188   5.960  17.246 -0.9049 -0.3055  0.2816
  485TIP3    H225651   7.336   5.971  17.275 -0.6765  0.2634 -1.0628
  486TIP3   OH225652   5.511   1.410  19.107  0.0854 -0.1092 -0.0878
  486TIP3    H125653   5.508   1.374  19.019 -1.0714 -1.7396  0.5763
  486TIP3    H225654   5.602   1.401  19.134  0.0596 -1.4499 -0.3948
  487TIP3   OH225655   7.394   4.253  19.271  0.3839 -0.0320  0.1225
  487TIP3    H125656   7.341   4.190  19.222 -0.5127  0.1274  0.8668
  487TIP3    H225657   7.484   4.225  19.255  0.0901 -0.3660 -1.0812
  488TIP3   OH225658   5.515   5.762  18.125 -0.2137 -0.2109 -0.3236
  488TIP3    H125659   5.561   5.693  18.172 -1.6918 -0.6263  0.5775
  488TIP3    H225660   5.524   5.738  18.032 -0.4082 -1.4332 -0.0372
  489TIP3   OH225661   5.217   3.560  18.512 -0.1181 -0.1350  0.9638
  489TIP3    H125662   5.141   3.552  18.570 -1.0816  0.4364 -0.1774
  489TIP3    H225663   5.193   3.629  18.451  0.4577 -1.3577 -0.7242
  490TIP3   OH225664   2.647   7.147  18.763  0.0869  0.1220  0.2194
  490TIP3    H125665   2.678   7.233  18.733 -0.6998 -0.0711 -1.2351
  490TIP3    H225666   2.721   7.111  18.813  1.1690  0.8163 -0.8270
  491TIP3   OH225667   0.957   6.404  17.917 -0.1699 -0.0746 -0.3127
  491TIP3    H125668   0.951   6.314  17.884 -1.8713 -0.0778 -0.0940
  491TIP3    H225669   1.051   6.421  17.923  0.3124 -2.6867  1.8439
  492TIP3   OH225670   3.211   6.682  18.176 -0.7926 -0.8124  0.0866
  492TIP3    H125671   3.287   6.629  18.201  0.1990 -0.5389 -2.0695
  492TIP3    H225672   3.138   6.620  18.173  0.2973 -2.1311 -2.1672
  493TIP3   OH225673   1.372   5.981  17.788 -0.5944  0.2800 -0.0021
  493TIP3    H125674   1.337   6.068  17.767 -0.3647  0.6253  0.9898
  493TIP3    H225675   1.447   5.999  17.844 -0.5207 -0.5624  0.1763
  494TIP3   OH225676   6.057   6.302  17.132  0.0738  0.2120 -0.5162
  494TIP3    H125677   6.119   6.249  17.082 -0.7147 -1.2458 -0.0253
  494TIP3    H225678   6.024   6.366  17.069  2.5168  1.4894 -0.6271
  495TIP3   OH225679   1.696   1.846  16.951  0.5331 -0.2758 -0.2924
  495TIP3    H125680   1.784   1.817  16.976  0.1016 -0.6446  0.8801
  495TIP3    H225681   1.670   1.904  17.023  0.3621  0.9702 -1.3254
  496TIP3   OH225682   2.061   3.256  17.766 -0.1824 -0.0067  0.3907
  496TIP3    H125683   1.969   3.259  17.795  0.2717 -0.1756  1.9665
  496TIP3    H225684   2.082   3.348  17.747 -1.0120 -0.1128 -1.2055
  497TIP3   OH225685   1.120   5.358  17.677  0.3402 -0.0826 -0.2470
  497TIP3    H125686   1.121   5.371  17.772  0.7504 -0.0615 -0.2483
  497TIP3    H225687   1.146   5.443  17.641  0.1084 -0.0674 -0.3815
  498TIP3   OH225688   5.231   6.405  18.446  0.2768  0.5270  0.0464
  498TIP3    H125689   5.211   6.498  18.463 -0.1869 -0.0356  3.2425
  498TIP3    H225690   5.318   6.392  18.484  0.2837 -0.3640 -0.2623
  499TIP3   OH225691   1.890   2.701  17.512  0.7294  0.2432  0.3374
  499TIP3    H125692   1.945   2.720  17.588  0.0833 -0.5949  1.0330
  499TIP3    H225693   1.801   2.709  17.545  0.4406 -0.8306 -0.1455
  500TIP3   OH225694   4.342   0.377  18.844  0.0635 -0.4129 -0.2035
  500TIP3    H125695   4.434   0.350  18.850  0.3823  0.7068  0.1906
  500TIP3    H225696   4.341   0.465  18.881 -1.1782 -0.4194 -0.2002
  501TIP3   OH225697   5.754   2.493  18.348  0.5682 -0.8838 -0.1798
  501TIP3    H125698   5.774   2.587  18.350 -0.2329 -0.6568 -1.6470
  501TIP3    H225699   5.692   2.483  18.276 -0.8317 -2.2707  1.1429
  502TIP3   OH225700   0.472   0.659  18.836 -0.0272 -0.6871  0.1040
  502TIP3    H125701   0.513   0.714  18.902 -1.9928 -1.1790  1.8646
  502TIP3    H225702   0.442   0.720  18.769  1.2827 -0.0847  0.0330
  503TIP3   OH225703   6.303   0.223  19.163 -0.1297  0.1767  0.9620
  503TIP3    H125704   6.230   0.250  19.219 -0.8287  0.3540 -0.0280
  503TIP3    H225705   6.289   0.129  19.150 -1.2669  0.5613 -0.7773
  504TIP3   OH225706   5.626   2.220  16.659  0.2530  0.1706  0.5128
  504TIP3    H125707   5.590   2.287  16.601  1.1582  2.1066  2.0825
  504TIP3    H225708   5.700   2.183  16.610  2.2144  3.0888  0.9930
  505TIP3   OH225709   3.302   1.912  18.053  0.2388 -0.3453 -0.6692
  505TIP3    H125710   3.337   2.001  18.054  0.1254 -0.2845 -1.3914
  505TIP3    H225711   3.356   1.866  17.988 -0.9783 -0.2540 -1.8023
  506TIP3   OH225712   0.242   1.973  19.322  0.2478 -0.3744 -0.2323
  506TIP3    H125713   0.312   1.910  19.306  0.7200  0.4033 -1.3727
  506TIP3    H225714   0.165   1.920  19.341  0.8694 -1.2660 -0.1562
  507TIP3   OH225715   6.958   0.515  18.187 -0.6257  0.2498  0.6779
  507TIP3    H125716   7.003   0.596  18.212 -0.9664  0.0076  2.1738
  507TIP3    H225717   7.021   0.468  18.133 -0.4056  1.4834 -0.1772
  508TIP3   OH225718   1.405   2.162  17.186  0.0909 -0.0186 -0.3677
  508TIP3    H125719   1.400   2.089  17.248  2.6949 -0.8380 -0.9998
  508TIP3    H225720   1.341   2.139  17.118 -0.4407 -0.7574  0.3581
  509TIP3   OH225721   6.300   1.048  17.133  0.0177 -0.4287 -0.2904
  509TIP3    H125722   6.259   1.033  17.219 -0.7890 -1.0918 -0.7759
  509TIP3    H225723   6.252   1.122  17.097 -0.0077 -0.4974 -0.3971
  510TIP3   OH225724   5.362   1.493  18.055 -0.0806 -0.1720 -0.2262
  510TIP3    H125725   5.336   1.584  18.067  0.7990  0.2060 -1.1087
  510TIP3    H225726   5.456   1.492  18.076  0.4104 -0.4308 -2.2408
  511TIP3   OH225727   6.938   2.226  17.546 -0.0295 -0.7427  0.6820
  511TIP3    H125728   6.936   2.294  17.614 -1.6145  0.6073 -0.6234
  511TIP3    H225729   7.028   2.193  17.548  0.9238  1.6453  1.1667
  512TIP3   OH225730   5.100   5.985  18.436  0.6503  0.3597 -0.9855
  512TIP3    H125731   5.156   6.049  18.479  0.8282  0.5681 -1.5096
  512TIP3    H225732   5.160   5.932  18.383  0.5045 -0.2442 -0.5617
  513TIP3   OH225733   4.408   5.453  17.657  0.4343  0.3756 -0.5129
  513TIP3    H125734   4.471   5.500  17.602 -1.0884  1.6026 -1.2652
  513TIP3    H225735   4.323   5.479  17.624 -0.5198 -2.4070 -0.5157
  514TIP3   OH225736   6.282   1.985  17.237 -0.0195  0.3980 -0.1813
  514TIP3    H125737   6.208   1.946  17.283  1.9977 -1.6820  1.5508
  514TIP3    H225738   6.296   1.928  17.161 -0.4512  1.0690 -0.7785
  515TIP3   OH225739   1.352   6.639  17.120 -0.3508 -0.0044  0.0827
  515TIP3    H125740   1.287   6.614  17.054 -1.0850  1.5962  0.1250
  515TIP3    H225741   1.430   6.590  17.098 -1.6601 -2.2692  0.2233
  516TIP3   OH225742   1.301   5.744  17.885 -0.9458 -0.1741 -0.3682
  516TIP3    H125743   1.326   5.834  17.862  0.7954 -0.6191 -0.4237
  516TIP3    H225744   1.272   5.705  17.803  0.0848 -0.1722 -0.7564
  517TIP3   OH225745   5.911   3.386  18.480 -0.2633 -0.3748 -0.4436
  517TIP3    H125746   5.998   3.396  18.519  0.1132  0.4908 -1.4368
  517TIP3    H225747   5.916   3.304  18.431  0.9355  0.9357 -2.6877
  518TIP3   OH225748   4.239   2.699  18.843 -0.4332 -0.0077 -0.3358
  518TIP3    H125749   4.253   2.689  18.937 -0.0982 -1.7799 -0.5387
  518TIP3    H225750   4.326   2.708  18.806 -0.4564 -0.7154 -0.5901
  519TIP3   OH225751   1.235   5.969  19.019 -0.2974  0.1706 -1.0530
  519TIP3    H125752   1.171   5.898  19.027  0.1858 -0.1486  0.3050
  519TIP3    H225753   1.320   5.926  19.030 -0.0234  1.0062  0.2741
  520TIP3   OH225754   1.533   0.028  18.784 -0.2034 -0.1502 -0.1768
  520TIP3    H125755   1.584  -0.030  18.842  0.4260  1.3135  0.8005
  520TIP3    H225756   1.530  -0.018  18.700  1.7315 -0.8486  0.0864
  521TIP3   OH225757   6.247   1.173  17.796 -0.2375 -0.0045  0.8380
  521TIP3    H125758   6.215   1.203  17.881 -2.2959 -0.3149  0.2101
  521TIP3    H225759   6.171   1.175  17.739  0.7816 -1.1826 -0.6487
  522TIP3   OH225760   0.575   2.579  17.265 -0.0411  0.2671 -0.1526
  522TIP3    H125761   0.531   2.526  17.199 -1.6601  1.9395 -0.5038
  522TIP3    H225762   0.527   2.561  17.346  1.0271 -0.6840  0.2998
  523TIP3   OH225763   2.770   7.153  18.400  0.5229 -0.1756 -0.3122
  523TIP3    H125764   2.837   7.148  18.332 -0.1034 -0.6362 -0.9081
  523TIP3    H225765   2.707   7.218  18.367  0.2345 -0.3694 -0.1502
  524TIP3   OH225766   5.575   3.838  16.760 -0.0256 -0.0411 -0.5577
  524TIP3    H125767   5.549   3.794  16.841 -0.6181 -0.3189 -0.8893
  524TIP3    H225768   5.572   3.932  16.782 -1.5518 -0.0401 -0.6198
  525TIP3   OH225769   2.572   2.193  18.966  0.4766  0.1348  0.6306
  525TIP3    H125770   2.619   2.115  18.994  0.6481 -0.1592 -0.4393
  525TIP3    H225771   2.536   2.170  18.880  2.6053  2.0163 -0.8796
  526TIP3   OH225772   7.606   1.278  18.824 -0.2712 -0.4791 -0.1096
  526TIP3    H125773   7.644   1.362  18.848  0.5503 -0.6302 -0.8262
  526TIP3    H225774   7.515   1.298  18.802 -0.2629  0.1063  0.3655
  527TIP3   OH225775   4.573   2.738  17.775 -0.5055  0.2158  0.0600
  527TIP3    H125776   4.519   2.796  17.828  0.0045  0.2253  0.5748
  527TIP3    H225777   4.597   2.666  17.834 -1.1137 -0.5229 -0.5610
  528TIP3   OH225778   7.062   0.206  16.692 -0.0626  0.1093  0.0796
  528TIP3    H125779   7.156   0.190  16.684 -0.1934 -0.2132 -0.9573
  528TIP3    H225780   7.022   0.120  16.682 -0.4991  0.3464 -0.2881
  529TIP3   OH225781   2.014   4.172  18.571  0.6397 -0.0238  0.5603
  529TIP3    H125782   2.085   4.209  18.623 -0.9092  2.0644  1.3052
  529TIP3    H225783   1.939   4.228  18.589 -1.0621 -1.7693 -0.6955
  530TIP3   OH225784   4.405   6.372  19.233  0.3831 -0.1166 -0.0123
  530TIP3    H125785   4.413   6.455  19.184 -0.1239 -0.7191 -1.1522
  530TIP3    H225786   4.495   6.348  19.253  0.5464  0.6354  0.2110
  531TIP3   OH225787   6.152   6.661  19.132  0.1714 -0.2684  0.3554
  531TIP3    H125788   6.083   6.702  19.080  1.1519  0.1115 -0.7057
  531TIP3    H225789   6.148   6.703  19.217 -1.0760 -0.4542  0.4053
  532TIP3   OH225790   0.035   5.949  18.788 -0.2293 -0.4217 -0.5564
  532TIP3    H125791   0.045   5.900  18.870  1.4604  1.6152  0.5764
  532TIP3    H225792   0.090   5.903  18.725  1.3108 -0.0412  0.4695
  533TIP3   OH225793   0.234   6.064  17.923  0.3964 -0.0655 -0.5646
  533TIP3    H125794   0.247   6.005  17.848  1.7191 -0.2389 -0.2376
  533TIP3    H225795   0.310   6.047  17.980  2.2541  3.6443 -1.5995
  534TIP3   OH225796   7.174   0.424  18.016  0.1117  0.4891 -0.3954
  534TIP3    H125797   7.204   0.356  17.956 -0.2821  1.0861 -1.2980
  534TIP3    H225798   7.220   0.406  18.098  0.4562 -0.5075 -0.7899
  535TIP3   OH225799   1.497   5.554  17.545  0.0158  0.6559  0.2513
  535TIP3    H125800   1.494   5.639  17.588 -1.1986 -0.3114  2.2449
  535TIP3    H225801   1.580   5.515  17.573 -0.4055  0.3510  1.1008
  536TIP3   OH225802   2.337   5.456  19.124 -0.0494 -0.0567 -0.2368
  536TIP3    H125803   2.409   5.497  19.172 -1.3404  1.1051  0.7796
  536TIP3    H225804   2.258   5.494  19.163 -1.2361 -1.8131 -0.8572
  537TIP3   OH225805   5.629   1.451  18.091 -0.0166  0.0284  0.2965
  537TIP3    H125806   5.675   1.510  18.031 -0.9186  1.6737  1.1488
  537TIP3    H225807   5.634   1.495  18.176 -0.9120 -1.0326  0.9296
  538TIP3   OH225808   2.968   3.921  17.591 -0.0211  0.3008 -0.4594
  538TIP3    H125809   3.060   3.934  17.617 -0.2495  1.7414 -0.2700
  538TIP3    H225810   2.970   3.916  17.496  0.4082 -1.1824 -0.3885
  539TIP3   OH225811   3.124   6.717  17.860  0.3214 -0.1270  0.1452
  539TIP3    H125812   3.199   6.774  17.873  0.1488  0.2768 -0.6000
  539TIP3    H225813   3.142   6.672  17.777 -0.4354  0.2630 -0.2382
  540TIP3   OH225814   7.642   6.283  17.666  0.5499 -0.5534 -0.5233
  540TIP3    H125815   7.733   6.268  17.693  1.5447  1.0785 -2.6083
  540TIP3    H225816   7.613   6.198  17.633  0.9695 -1.3320  1.0367
  541TIP3   OH225817   1.687   2.271  17.277  0.1118  1.1248 -0.5995
  541TIP3    H125818   1.626   2.241  17.345 -1.4449  0.9692 -1.9848
  541TIP3    H225819   1.642   2.344  17.235 -0.0168 -0.1545 -2.8651
  542TIP3   OH225820   2.146   5.860  19.005 -0.0420  0.0463 -0.5688
  542TIP3    H125821   2.080   5.792  19.016  0.0932 -0.1002 -0.6544
  542TIP3    H225822   2.212   5.821  18.946  0.2084  0.1269 -0.3453
  543TIP3   OH225823   3.006   6.283  16.679 -0.1256 -0.0188 -0.1006
  543TIP3    H125824   2.947   6.248  16.612 -0.5382  2.0300 -0.8626
  543TIP3    H225825   2.959   6.357  16.717  0.9714  0.1441  0.9989
  544TIP3   OH225826   0.836   3.881  18.451  0.2677 -0.3771  0.0086
  544TIP3    H125827   0.930   3.893  18.467  0.7014 -1.9290 -1.1503
  544TIP3    H225828   0.801   3.969  18.444  1.4332  0.2483  1.5345
  545TIP3   OH225829   3.522   3.049  18.600  0.6070  0.1776 -0.2106
  545TIP3    H125830   3.452   3.085  18.654  1.7524  0.4919  1.1178
  545TIP3    H225831   3.499   3.074  18.510 -0.0485  1.8166  0.3834
  546TIP3   OH225832   7.485   5.672  16.721  0.0578  0.4221  0.5259
  546TIP3    H125833   7.442   5.594  16.685  1.5101  0.1261 -0.6487
  546TIP3    H225834   7.552   5.637  16.780 -1.1952  0.8800  2.3031
  547TIP3   OH225835   5.275   1.757  18.641  0.2210 -0.3331 -0.1495
  547TIP3    H125836   5.265   1.724  18.551  0.0780 -0.2227 -0.1753
  547TIP3    H225837   5.188   1.791  18.663 -0.6594 -3.0953  1.1494
  548TIP3   OH225838   5.989   7.395  18.736  0.2523  0.6368 -0.0468
  548TIP3    H125839   5.912   7.418  18.788  0.1567 -0.9401  0.5402
  548TIP3    H225840   6.050   7.355  18.799  0.8643  0.3327 -0.8171
  549TIP3   OH225841   3.054   4.663  18.430  0.1302  0.3257 -0.2664
  549TIP3    H125842   3.005   4.741  18.455 -0.9455 -0.6749  0.8506
  549TIP3    H225843   3.121   4.696  18.369 -0.5756  2.0331 -0.1852
  550TIP3   OH225844   4.759   3.478  18.115  0.3716 -0.3125 -0.0182
  550TIP3    H125845   4.726   3.474  18.205 -0.7950 -0.5547 -0.4343
  550TIP3    H225846   4.726   3.561  18.081  0.3930 -0.4421 -0.3654
  551TIP3   OH225847   0.639   2.923  19.463  0.1540  0.2312  0.3154
  551TIP3    H125848   0.679   2.979  19.530 -0.8461  1.4025 -0.0493
  551TIP3    H225849   0.652   2.971  19.381  1.6941 -1.3578 -0.4301
  552TIP3   OH225850   5.318   2.524  19.515 -0.6738  0.4527  0.3087
  552TIP3    H125851   5.244   2.521  19.455 -0.1370 -0.3646 -0.3369
  552TIP3    H225852   5.325   2.616  19.540 -1.8247  0.5641  0.2933
  553TIP3   OH225853   0.859   1.635  18.793  0.0598 -0.6317 -0.1179
  553TIP3    H125854   0.913   1.592  18.859 -1.3299 -0.0064  1.4968
  553TIP3    H225855   0.792   1.570  18.770 -0.2792 -0.3683  0.1204
  554TIP3   OH225856   3.928   3.053  18.493  0.2411  0.0676 -0.1265
  554TIP3    H125857   3.854   3.068  18.553  1.8823 -0.1839  2.0807
  554TIP3    H225858   3.971   2.974  18.527  1.2731 -0.0528 -1.6295
  555TIP3   OH225859   1.580   2.998  18.804  0.2348 -0.3311 -0.3964
  555TIP3    H125860   1.615   2.909  18.798  1.5382  0.2295 -1.6057
  555TIP3    H225861   1.525   3.008  18.726 -1.0509 -0.5157  0.4528
  556TIP3   OH225862   5.440   2.112  18.113  0.6135  0.1733 -0.0485
  556TIP3    H125863   5.388   2.187  18.143 -0.2667 -0.7124  0.7247
  556TIP3    H225864   5.524   2.121  18.158 -0.0067 -0.0795  1.1935
  557TIP3   OH225865   7.071   6.461  19.730  0.7885 -0.3513 -0.1719
  557TIP3    H125866   7.035   6.408  19.800 -1.2977  0.0697 -0.8547
  557TIP3    H225867   7.047   6.414  19.650  0.5358  0.6504 -0.7008
  558TIP3   OH225868   4.110   4.280  17.704  0.0040  0.4008 -0.1630
  558TIP3    H125869   4.122   4.266  17.797 -0.4134  1.6034  0.0875
  558TIP3    H225870   4.127   4.194  17.664 -2.5757 -0.8698  1.2498
  559TIP3   OH225871   3.803   0.639  18.192 -0.1709  0.5163  0.1198
  559TIP3    H125872   3.716   0.599  18.195 -0.1784  0.2038 -2.2882
  559TIP3    H225873   3.789   0.730  18.221 -1.0011  0.0995  1.1049
  560TIP3   OH225874   0.717   3.294  17.446 -0.3843 -0.2096  0.2146
  560TIP3    H125875   0.635   3.293  17.494 -0.8222  2.0569 -0.3812
  560TIP3    H225876   0.692   3.287  17.354  0.2370 -1.2955  0.1083
  561TIP3   OH225877   7.424   5.948  19.510 -0.6519 -0.3145 -0.4168
  561TIP3    H125878   7.479   5.936  19.587  1.2013  1.7355 -1.2866
  561TIP3    H225879   7.397   6.040  19.514  0.1151  0.0675 -2.5096
  562TIP3   OH225880   6.773   7.447  17.743  0.0681 -0.1537  0.3282
  562TIP3    H125881   6.801   7.528  17.701  0.1578 -0.1110  0.4675
  562TIP3    H225882   6.837   7.381  17.714  0.6131  0.0443  1.0260
  563TIP3   OH225883   6.434   6.943  17.829  0.4558 -0.2560  0.0159
  563TIP3    H125884   6.513   6.988  17.798  0.3950  1.9708  2.7133
  563TIP3    H225885   6.362   6.988  17.784  0.5675 -2.3617 -2.5307
  564TIP3   OH225886   5.977   3.272  19.026 -0.5118  0.5117  0.4347
  564TIP3    H125887   6.015   3.322  19.099 -0.1781 -0.4764  0.9542
  564TIP3    H225888   5.883   3.293  19.030 -0.3760  1.1304  0.6115
  565TIP3   OH225889   4.848   0.181  18.021 -0.5111 -0.4815  0.6003
  565TIP3    H125890   4.788   0.178  17.947  1.4525  0.2152 -1.1284
  565TIP3    H225891   4.904   0.104  18.011  1.2565  0.8070 -0.0593
  566TIP3   OH225892   1.248   3.904  19.110  0.2711 -1.0527  0.5161
  566TIP3    H125893   1.237   3.997  19.090 -1.4682 -1.3470 -0.1173
  566TIP3    H225894   1.204   3.892  19.194  1.4822 -1.1210  1.1616
  567TIP3   OH225895   0.958   6.354  17.131  0.8558  0.3498 -0.4640
  567TIP3    H125896   0.975   6.438  17.173 -0.1358  0.0478  0.6078
  567TIP3    H225897   1.013   6.354  17.053  0.5541  2.1650 -0.7215
  568TIP3   OH225898   6.187   4.380  19.183 -0.3462  0.0281  0.0685
  568TIP3    H125899   6.092   4.388  19.195 -0.3649  2.5085 -1.1026
  568TIP3    H225900   6.219   4.470  19.186  1.6248 -0.5004 -2.0498
  569TIP3   OH225901   2.139   3.044  17.909 -0.2808 -0.2495  0.0716
  569TIP3    H125902   2.068   3.053  17.973  0.4989 -0.6284  1.0177
  569TIP3    H225903   2.134   3.124  17.856 -1.5593 -0.3896 -0.0400
  570TIP3   OH225904   4.808   6.687  18.725 -0.2712 -0.0057  0.5411
  570TIP3    H125905   4.754   6.694  18.646 -0.4304 -0.9059  0.5577
  570TIP3    H225906   4.744   6.683  18.796 -0.2082 -1.1225  0.5580
  571TIP3   OH225907   5.431   5.940  18.588 -0.1212  0.4541 -0.2237
  571TIP3    H125908   5.477   5.858  18.570  1.9871  1.5603 -0.2039
  571TIP3    H225909   5.431   5.987  18.505 -3.4739 -0.4544 -0.8924
  572TIP3   OH225910   0.901   5.758  17.976  0.7226  0.1706  0.0286
  572TIP3    H125911   0.868   5.813  17.906  0.3092  0.2019  0.2463
  572TIP3    H225912   0.931   5.820  18.043  0.0299  0.1349  0.3783
  573TIP3   OH225913   2.732   6.823  18.254 -0.0795 -0.1878 -0.2848
  573TIP3    H125914   2.653   6.768  18.261 -0.9329  1.1026  0.6870
  573TIP3    H225915   2.804   6.765  18.279 -0.8314 -1.1272 -0.2357
  574TIP3   OH225916   6.106   3.631  16.727  0.2545  0.6541  0.0160
  574TIP3    H125917   6.012   3.627  16.745  0.1153  2.0659 -0.2624
  574TIP3    H225918   6.135   3.712  16.770  1.0505  0.9942 -1.1182
  575TIP3   OH225919   2.109   0.147  19.040 -0.5296  0.1191  0.2478
  575TIP3    H125920   2.126   0.150  18.946 -1.2814 -1.6725  0.0176
  575TIP3    H225921   2.144   0.063  19.068 -1.0433  0.2718  1.4171
  576TIP3   OH225922   1.750   4.741  17.690 -0.0967 -0.4484 -0.4422
  576TIP3    H125923   1.671   4.785  17.722  0.6029 -0.6249  1.6672
  576TIP3    H225924   1.780   4.795  17.617 -0.7032  1.1011  0.4125
  577TIP3   OH225925   5.696   1.661  18.858  0.4420  0.2401 -0.3164
  577TIP3    H125926   5.601   1.660  18.867  0.5049 -0.3539  0.3153
  577TIP3    H225927   5.723   1.744  18.899  0.1714  0.5948 -0.8456
  578TIP3   OH225928   6.479   2.590  18.180  0.1702 -0.0437  0.2417
  578TIP3    H125929   6.411   2.541  18.226 -0.1964  0.3427  0.1196
  578TIP3    H225930   6.431   2.642  18.115  0.7072 -0.8687 -0.8482
  579TIP3   OH225931   0.137   4.770  18.418 -0.2406 -0.1213 -0.0215
  579TIP3    H125932   0.050   4.808  18.402  0.2734  1.6010  0.9454
  579TIP3    H225933   0.129   4.729  18.504 -0.0613  0.2103  0.1573
  580TIP3   OH225934   0.434   5.976  17.007 -0.0393 -0.1540 -0.0761
  580TIP3    H125935   0.369   6.009  16.945 -1.3707  0.8261  1.7099
  580TIP3    H225936   0.516   6.016  16.979 -0.8418  1.3198 -0.4850
  581TIP3   OH225937   3.100   5.926  17.403 -0.1727  0.4701  0.0339
  581TIP3    H125938   3.013   5.904  17.437 -0.7816  1.8468 -0.5660
  581TIP3    H225939   3.083   5.970  17.319  1.1694 -0.4014 -0.7269
  582TIP3   OH225940   5.978   4.778  17.641 -0.0267 -0.7923 -0.2868
  582TIP3    H125941   5.925   4.727  17.703 -0.0232  0.3789  0.7240
  582TIP3    H225942   5.972   4.729  17.559 -0.0423 -2.3987  0.6224
  583TIP3   OH225943   5.252   0.504  17.440 -0.3929  0.3335  0.7801
  583TIP3    H125944   5.216   0.575  17.387  0.4038 -0.1120 -0.4038
  583TIP3    H225945   5.329   0.543  17.482  0.5490 -0.0369 -0.5505
  584TIP3   OH225946   1.537   2.191  17.486 -0.6991  0.3219  0.0860
  584TIP3    H125947   1.501   2.103  17.494 -0.1807 -0.4508 -4.1064
  584TIP3    H225948   1.467   2.249  17.515 -1.8810 -1.3723  0.7738
  585TIP3   OH225949   7.396   2.615  18.889 -0.7204  0.0053  0.4424
  585TIP3    H125950   7.310   2.612  18.930 -1.0318 -0.2672 -0.2294
  585TIP3    H225951   7.414   2.709  18.877 -0.9886  0.0541  0.4297
  586TIP3   OH225952   6.506   7.062  17.535  0.1884 -0.1851  0.2079
  586TIP3    H125953   6.471   6.981  17.571  0.0026  0.5589  1.8422
  586TIP3    H225954   6.435   7.098  17.482 -0.2761 -0.3902  0.6743
  587TIP3   OH225955   3.422   5.875  18.223 -0.0384  0.3316 -0.2670
  587TIP3    H125956   3.436   5.926  18.143  0.3191  0.9900  0.2035
  587TIP3    H225957   3.341   5.826  18.207 -0.8673  1.7042 -0.4059
  588TIP3   OH225958   2.206   1.135  17.744 -0.1694  0.2029 -0.1301
  588TIP3    H125959   2.134   1.078  17.770  0.1318 -0.3743 -0.5387
  588TIP3    H225960   2.269   1.128  17.816  0.4916 -1.0926 -0.7903
  589TIP3   OH225961   2.907   4.807  19.059 -0.1815 -0.3143 -0.5510
  589TIP3    H125962   2.871   4.838  19.142  2.1508  0.8481  0.1008
  589TIP3    H225963   2.843   4.743  19.028 -2.7389  1.5556  0.5185
  590TIP3   OH225964   1.260   3.859  16.936 -0.6574  0.1969 -0.1536
  590TIP3    H125965   1.273   3.895  16.848  0.9847 -1.2579 -0.5656
  590TIP3    H225966   1.199   3.786  16.922  0.0071 -0.3572 -0.1834
  591TIP3   OH225967   1.733   6.216  17.835 -0.0262  0.0729 -0.1596
  591TIP3    H125968   1.664   6.282  17.843  1.3369  1.6384 -0.8129
  591TIP3    H225969   1.788   6.230  17.911 -0.3211 -1.0993  0.2976
  592TIP3   OH225970   3.874   4.128  16.708 -0.0666 -0.0322  0.6330
  592TIP3    H125971   3.835   4.204  16.752  1.0440 -0.4672  2.4741
  592TIP3    H225972   3.813   4.057  16.723 -0.9142  0.3705 -0.7510
  593TIP3   OH225973   1.541   0.825  18.561 -0.5179 -0.3608  0.3250
  593TIP3    H125974   1.506   0.737  18.572 -0.1732 -0.4529  0.6753
  593TIP3    H225975   1.628   0.811  18.522 -1.7385 -0.0694 -2.8392
  594TIP3   OH225976   2.770   0.201  17.260  0.0896 -0.1413  0.6393
  594TIP3    H125977   2.816   0.156  17.189 -0.9450  0.7746 -0.6617
  594TIP3    H225978   2.836   0.258  17.299  0.4167  0.1333 -0.2884
  595TIP3   OH225979   0.911   4.518  18.594  0.0751 -0.6402 -0.0235
  595TIP3    H125980   0.947   4.459  18.528 -0.6326 -1.9425  0.6914
  595TIP3    H225981   0.817   4.514  18.581  0.0286  0.5841 -0.1402
  596TIP3   OH225982   1.866   2.041  17.685 -0.3037  0.6296 -0.2863
  596TIP3    H125983   1.798   2.076  17.743  0.0691  0.6172  0.1587
  596TIP3    H225984   1.906   2.119  17.646  0.0411  0.6781  0.1552
  597TIP3   OH225985   6.439   2.986  18.159  0.0168 -0.7367  0.8818
  597TIP3    H125986   6.453   2.930  18.083  1.5434 -0.2291  0.7420
  597TIP3    H225987   6.493   3.063  18.142 -1.8471  0.7027  1.1644
  598TIP3   OH225988   6.178   0.317  17.018  0.0053  0.2484 -0.0216
  598TIP3    H125989   6.134   0.238  17.047 -2.7517  1.8915  0.6783
  598TIP3    H225990   6.252   0.327  17.077 -0.2030 -1.2292  0.5306
  599TIP3   OH225991   6.989   0.869  19.051  0.0500  0.3290  0.5402
  599TIP3    H125992   7.080   0.892  19.071 -0.1108 -0.3390  2.2060
  599TIP3    H225993   6.958   0.823  19.129 -1.2113 -0.9562 -0.6441
  600TIP3   OH225994   1.556   6.051  17.988 -0.0457  0.0440  0.2676
  600TIP3    H125995   1.641   6.093  17.978  0.0392  0.0674  1.0823
  600TIP3    H225996   1.575   5.971  18.037 -0.2123 -0.9245 -1.1739
  601TIP3   OH225997   6.230   5.753  18.595  0.0427  0.5244  0.0359
  601TIP3    H125998   6.148   5.762  18.547 -0.0224  0.0819  0.0594
  601TIP3    H225999   6.297   5.748  18.527 -0.1215 -0.9001 -0.0597
  602TIP3   OH226000   2.247   2.726  19.243 -0.1916  0.0990  0.0137
  602TIP3    H126001   2.318   2.779  19.207 -1.4742  0.7908 -1.6441
  602TIP3    H226002   2.289   2.646  19.273  1.4066  0.9047 -0.0082
  603TIP3   OH226003   5.451   2.264  17.299 -0.0095  0.4483  0.3414
  603TIP3    H126004   5.387   2.194  17.315 -1.4241  1.3814 -0.9664
  603TIP3    H226005   5.398   2.339  17.274  1.5822  1.4807 -0.0476
  604TIP3   OH226006   1.407   5.145  17.027  0.5264 -0.3937  0.1328
  604TIP3    H126007   1.342   5.179  16.965  1.6787  2.0612  0.1332
  604TIP3    H226008   1.430   5.059  16.993 -2.4446 -1.2481 -0.0232
  605TIP3   OH226009   0.520   5.180  18.002 -0.4102 -0.2258 -0.4149
  605TIP3    H126010   0.483   5.260  17.962  2.0693  2.0854  1.5516
  605TIP3    H226011   0.600   5.163  17.952 -0.1973 -0.6648  0.0733
  606TIP3   OH226012   1.351   7.150  19.236  0.2063 -0.1095  0.3205
  606TIP3    H126013   1.256   7.153  19.246  0.1963 -0.7696  0.4123
  606TIP3    H226014   1.367   7.201  19.156 -0.4086 -1.7106 -0.8801
  607TIP3   OH226015   5.822   4.637  17.080 -0.4995 -0.3259 -0.1602
  607TIP3    H126016   5.853   4.690  17.006  0.3267 -0.7838 -0.1483
  607TIP3    H226017   5.727   4.633  17.067 -0.5251  0.7223 -0.4425
  608TIP3   OH226018   6.830   6.617  18.979  0.0503 -0.0968  0.1944
  608TIP3    H126019   6.916   6.586  18.949  0.7157 -0.2152  2.0260
  608TIP3    H226020   6.845   6.638  19.072 -1.6935  0.7406  0.3106
  609TIP3   OH226021   3.579   1.405  18.100  0.2760 -0.1788 -0.5701
  609TIP3    H126022   3.523   1.332  18.125  0.1627 -0.5657 -1.8968
  609TIP3    H226023   3.556   1.423  18.008  1.2778  0.6154 -0.6819
  610TIP3   OH226024   3.928   3.806  19.157  0.1312 -0.6103  0.0944
  610TIP3    H126025   3.835   3.796  19.140  0.1427  1.1245 -1.3282
  610TIP3    H226026   3.941   3.901  19.168  1.4067 -0.9845  2.5459
  611TIP3   OH226027   0.030   3.998  18.748  0.0971  0.2223 -0.0015
  611TIP3    H126028  -0.038   4.013  18.813 -0.7533  1.8371 -1.1924
  611TIP3    H226029   0.102   4.055  18.774  0.7305 -0.9029  0.8143
  612TIP3   OH226030   7.401   6.642  17.884 -0.0933  0.3098 -0.0275
  612TIP3    H126031   7.432   6.559  17.919 -1.0452 -1.1292 -2.3808
  612TIP3    H226032   7.342   6.675  17.952 -1.5588 -2.1514  0.0318
  613TIP3   OH226033   0.248   0.607  17.298 -0.8953 -0.1248 -0.0647
  613TIP3    H126034   0.186   0.672  17.265  0.7962  0.9088 -1.4192
  613TIP3    H226035   0.322   0.612  17.238  0.0653 -2.0693  0.8498
  614TIP3   OH226036   1.175   4.165  18.984  0.3564  0.7618 -0.2000
  614TIP3    H126037   1.143   4.221  19.054 -0.6516 -0.6089  0.4705
  614TIP3    H226038   1.099   4.113  18.958  0.5858  1.5193 -2.6275
  615TIP3   OH226039   6.231   1.396  18.328 -0.0548  0.3949 -0.4030
  615TIP3    H126040   6.162   1.447  18.370 -0.4557  0.3063 -0.9425
  615TIP3    H226041   6.266   1.340  18.398  0.1507  1.1455  0.1107
  616TIP3   OH226042   1.176   1.991  18.182  0.3919  0.2269  0.2740
  616TIP3    H126043   1.103   2.049  18.164  0.4697  0.1338 -0.3504
  616TIP3    H226044   1.232   2.041  18.243  0.3334  0.7063 -0.0612
  617TIP3   OH226045   0.647   1.578  17.721 -0.2061 -0.4684 -0.5958
  617TIP3    H126046   0.719   1.570  17.660  0.1518 -0.8377 -0.1314
  617TIP3    H226047   0.681   1.545  17.804 -1.0594 -1.1450 -0.4923
  618TIP3   OH226048   3.929   1.510  18.398 -0.3173 -0.6831 -0.3484
  618TIP3    H126049   3.995   1.579  18.387 -0.8991 -0.0987 -0.2019
  618TIP3    H226050   3.950   1.470  18.483 -1.0882  0.5377  0.4393
  619TIP3   OH226051   6.715   0.836  18.369 -0.0577  0.0231 -0.0569
  619TIP3    H126052   6.702   0.828  18.464  0.4290  0.9664  0.0950
  619TIP3    H226053   6.703   0.747  18.336  1.3655 -0.6519  1.1066
  620TIP3   OH226054   4.606   6.730  18.156  0.1619 -0.2943  0.0917
  620TIP3    H126055   4.620   6.643  18.118 -1.9447  0.0248 -1.6977
  620TIP3    H226056   4.593   6.786  18.080 -1.9170  0.8815  1.2265
  621TIP3   OH226057   5.784   3.783  17.501 -0.4266  0.2723 -0.4080
  621TIP3    H126058   5.823   3.698  17.480 -1.8654 -0.3122 -0.8404
  621TIP3    H226059   5.859   3.840  17.519  0.6003 -1.9124  3.3741
  622TIP3   OH226060   3.490   2.912  19.234  0.3383 -0.1918 -0.0212
  622TIP3    H126061   3.556   2.847  19.209  0.0780 -1.3678  2.1222
  622TIP3    H226062   3.536   2.972  19.292  0.2466  0.8207 -0.9639
  623TIP3   OH226063   2.858   3.139  18.377  0.1508  0.0527 -0.1587
  623TIP3    H126064   2.908   3.133  18.458  1.1296 -0.0080 -0.7468
  623TIP3    H226065   2.813   3.223  18.382  0.8517  0.4219  0.0972
  624TIP3   OH226066   3.757   3.262  19.014 -0.1701 -0.2249 -0.1942
  624TIP3    H126067   3.817   3.243  18.942  0.4736  0.3536  0.1843
  624TIP3    H226068   3.802   3.231  19.092  0.4619  1.8422  0.3171
  625TIP3   OH226069   7.580   0.531  18.318  0.4056  0.2080  0.3191
  625TIP3    H126070   7.575   0.460  18.254  2.8529 -0.7760  1.0904
  625TIP3    H226071   7.490   0.562  18.327 -1.2932 -4.3070  1.5693
  626TIP3   OH226072   0.354   5.044  17.374  0.2800 -0.4166 -0.5218
  626TIP3    H126073   0.316   5.129  17.351 -0.0437 -0.7003 -1.0433
  626TIP3    H226074   0.428   5.066  17.430  0.5986  0.2439 -1.1886
  627TIP3   OH226075   5.177   3.225  18.526  0.4146  0.3959  0.0164
  627TIP3    H126076   5.120   3.232  18.603  0.1507  0.9237 -0.2208
  627TIP3    H226077   5.218   3.139  18.534 -0.8583 -0.2586 -0.1014
  628TIP3   OH226078   2.467   2.183  18.293  0.0255 -0.2213  0.2024
  628TIP3    H126079   2.451   2.217  18.381  1.7292 -0.8811  0.8093
  628TIP3    H226080   2.534   2.116  18.305  0.5812 -0.0516 -1.6645
  629TIP3   OH226081   0.452   3.195  19.186 -0.0746 -0.0783  0.5266
  629TIP3    H126082   0.407   3.279  19.183  2.5814  1.6068  3.0080
  629TIP3    H226083   0.381   3.130  19.195 -2.1169  2.0994  1.2524
  630TIP3   OH226084   1.802   0.846  17.895 -0.0497  0.2641 -0.2999
  630TIP3    H126085   1.838   0.783  17.833 -1.2941 -2.0735  1.2243
  630TIP3    H226086   1.775   0.794  17.970 -0.9446  2.6642  1.1586
  631TIP3   OH226087   6.501   7.410  19.256  0.4636 -0.5071 -0.5848
  631TIP3    H126088   6.442   7.344  19.292  1.7271 -1.5915 -0.4205
  631TIP3    H226089   6.446   7.460  19.195 -0.3771 -2.1439 -1.2381
  632TIP3   OH226090   6.384   4.982  18.194  0.3772  0.4873  0.6558
  632TIP3    H126091   6.457   4.938  18.151  0.1123  0.0205  0.6666
  632TIP3    H226092   6.316   4.914  18.201 -0.7164  1.3575 -0.9412
  633TIP3   OH226093   2.788   7.057  17.266  0.6577  0.0982  0.1338
  633TIP3    H126094   2.737   7.113  17.325  1.0646  0.9671 -0.3273
  633TIP3    H226095   2.756   6.968  17.285 -0.4641  0.5377  0.4038
  634TIP3   OH226096   0.940   2.596  17.660 -0.4131 -0.4847  0.0132
  634TIP3    H126097   0.975   2.577  17.747 -1.8034 -1.0182  0.4827
  634TIP3    H226098   0.936   2.511  17.616 -0.6944 -0.3686 -0.1944
  635TIP3   OH226099   2.860   2.593  18.594  0.0677  0.1631 -0.4360
  635TIP3    H126100   2.933   2.633  18.641  0.1503 -0.2932 -0.1734
  635TIP3    H226101   2.889   2.503  18.577 -0.3644  0.0316 -0.4765
  636TIP3   OH226102   4.304   0.361  17.521  0.0337  0.2651 -0.7124
  636TIP3    H126103   4.265   0.334  17.438  0.3723  2.6681 -1.7494
  636TIP3    H226104   4.324   0.454  17.509  1.1261  0.4247  1.6844
  637TIP3   OH226105   4.216   0.813  18.429  0.0994  0.1344 -0.2833
  637TIP3    H126106   4.140   0.760  18.406  0.1104  0.6336 -1.5700
  637TIP3    H226107   4.181   0.900  18.448  0.1517 -0.1346  1.1607
  638TIP3   OH226108   0.526   6.239  16.493 -0.3368 -0.1033  0.2553
  638TIP3    H126109   0.480   6.309  16.539 -2.6215 -0.4035 -1.4100
  638TIP3    H226110   0.475   6.160  16.510  0.3818 -0.7467 -0.4628
  639TIP3   OH226111   6.176   3.880  17.812 -0.5080 -0.1652  0.1335
  639TIP3    H126112   6.095   3.846  17.851  0.0059 -1.3307  0.2410
  639TIP3    H226113   6.178   3.972  17.837 -0.5761 -0.6791  2.2792
  640TIP3   OH226114   2.871   0.950  17.536  0.2013  0.0157 -0.3633
  640TIP3    H126115   2.937   0.941  17.467  0.0563  1.2283 -0.6822
  640TIP3    H226116   2.904   1.020  17.592 -0.1416 -0.3237  0.2756
  641TIP3   OH226117   6.030   2.866  19.121  0.1441 -0.0002  0.0799
  641TIP3    H126118   6.065   2.777  19.117 -0.5730 -0.3103  0.3986
  641TIP3    H226119   5.935   2.854  19.121  0.0389  0.7704  0.1253
  642TIP3   OH226120   4.967   3.787  17.777 -0.4729 -0.0242  0.6940
  642TIP3    H126121   4.939   3.852  17.842  1.1222  3.1875 -1.5090
  642TIP3    H226122   5.054   3.761  17.805 -0.1027  0.7627  0.3231
  643TIP3   OH226123   4.605   5.971  18.053 -0.1706  0.4563  0.0850
  643TIP3    H126124   4.654   5.896  18.020  1.0853  0.6261  1.4421
  643TIP3    H226125   4.513   5.948  18.039  0.1689 -1.4048  0.5893
  644TIP3   OH226126   6.519   7.100  16.520 -0.2842  0.1457  0.1510
  644TIP3    H126127   6.570   7.020  16.530  1.0600  0.7870 -1.1319
  644TIP3    H226128   6.428   7.073  16.533  0.1739 -1.5040  0.1141
  645TIP3   OH226129   2.172   6.710  18.777  0.2499 -0.2581 -0.3714
  645TIP3    H126130   2.133   6.649  18.714  0.3431  0.3805 -1.0650
  645TIP3    H226131   2.257   6.733  18.738 -0.4916  1.6147 -0.9863
  646TIP3   OH226132   0.687   5.283  19.066 -0.0950  0.5743  0.3448
  646TIP3    H126133   0.627   5.355  19.086 -0.5561 -0.0139  1.1611
  646TIP3    H226134   0.631   5.207  19.055  0.5480 -0.5605  3.6721
  647TIP3   OH226135   0.211   6.964  16.610  0.0700  0.3558 -0.0468
  647TIP3    H126136   0.170   6.928  16.689 -1.8730  1.9587 -0.2290
  647TIP3    H226137   0.143   7.017  16.570  1.3326  0.4131 -2.2953
  648TIP3   OH226138   7.366   1.997  17.297 -0.4318 -0.6358  0.2822
  648TIP3    H126139   7.335   2.018  17.209 -1.0506 -0.0643  0.6305
  648TIP3    H226140   7.440   2.056  17.312 -0.2462 -0.8215  0.0984
  649TIP3   OH226141   5.636   5.080  16.799  0.0692 -0.3066  0.0530
  649TIP3    H126142   5.581   5.080  16.878  0.0167 -1.4460  0.0380
  649TIP3    H226143   5.573   5.070  16.727  0.0559  1.3911 -0.2092
  650TIP3   OH226144   2.185   4.195  18.187  0.2433 -0.0119  0.0221
  650TIP3    H126145   2.199   4.237  18.272 -0.1112 -0.3349  0.2435
  650TIP3    H226146   2.107   4.238  18.152  0.6941  0.4985 -0.3889
  651TIP3   OH226147   3.239   0.439  17.991 -0.3231  0.6427  0.2135
  651TIP3    H126148   3.259   0.445  17.898 -0.9657  2.1179  0.1424
  651TIP3    H226149   3.206   0.350  18.002 -2.6032  1.1514 -1.5027
  652TIP3   OH226150   2.708   0.595  19.284 -0.2952  0.6018 -0.0788
  652TIP3    H126151   2.656   0.515  19.276  0.9808 -0.8387  3.8265
  652TIP3    H226152   2.799   0.564  19.286  0.1489  1.7431  3.5463
  653TIP3   OH226153   7.483   2.267  18.206  0.4220  0.2091  0.1258
  653TIP3    H126154   7.480   2.217  18.125 -0.2085 -1.0034  0.8712
  653TIP3    H226155   7.562   2.235  18.251 -0.3000 -0.5785  0.8707
  654TIP3   OH226156   4.858   2.017  19.138 -0.1749  0.0182  0.2140
  654TIP3    H126157   4.790   1.971  19.090 -0.1487 -0.3407  0.5219
  654TIP3    H226158   4.821   2.035  19.224  0.2446 -0.5032  0.5099
  655TIP3   OH226159   5.429   4.779  18.173 -0.5249 -0.3133  0.0492
  655TIP3    H126160   5.374   4.729  18.233 -0.0080 -0.6201  0.2747
  655TIP3    H226161   5.518   4.749  18.191 -0.5487 -2.3593 -2.6488
  656TIP3   OH226162   7.048   4.561  18.973 -0.2286 -0.5636  0.6170
  656TIP3    H126163   7.024   4.645  19.011 -2.1431 -1.0398  0.5502
  656TIP3    H226164   7.016   4.565  18.883  0.0733 -1.1948  0.4762
  657TIP3   OH226165   4.329   1.202  17.915 -0.1513 -0.5697 -0.0846
  657TIP3    H126166   4.291   1.272  17.968 -0.9770 -1.0461 -0.0284
  657TIP3    H226167   4.391   1.159  17.973  0.7938  0.4613 -0.2963
  658TIP3   OH226168   5.483   0.827  17.835  0.0302  0.4019  0.2731
  658TIP3    H126169   5.567   0.783  17.834  0.6542  1.5369 -1.0738
  658TIP3    H226170   5.501   0.916  17.804 -1.6355  0.7002  0.0130
  659TIP3   OH226171   1.280   1.265  16.361 -0.5454  0.0723  0.0431
  659TIP3    H126172   1.325   1.348  16.348 -1.8664  0.4081 -3.2180
  659TIP3    H226173   1.219   1.282  16.433  0.8199  1.1318  1.0085
  660TIP3   OH226174   2.849   6.099  17.005 -0.3148  0.5559 -0.5669
  660TIP3    H126175   2.811   6.187  17.004  0.4802  0.9304  0.4154
  660TIP3    H226176   2.774   6.041  17.025 -0.2423  1.4267  2.8626
  661TIP3   OH226177   5.245   2.310  17.113 -0.1849 -0.5323  0.1390
  661TIP3    H126178   5.307   2.315  17.041  1.3766 -2.4496  1.2547
  661TIP3    H226179   5.173   2.256  17.079 -0.8811  0.9554 -0.8604
  662TIP3   OH226180   5.563   2.893  18.416  0.0532  1.3333  0.4964
  662TIP3    H126181   5.638   2.853  18.372 -0.6816  0.7763 -0.2971
  662TIP3    H226182   5.569   2.986  18.395 -1.4536  0.8684 -2.7587
  663TIP3   OH226183   6.255   1.041  17.409 -0.1235 -0.3422 -0.7348
  663TIP3    H126184   6.239   0.948  17.394 -2.0334 -0.1576 -0.1091
  663TIP3    H226185   6.168   1.081  17.413  0.6660  1.7402 -2.4048
  664TIP3   OH226186   0.338   5.481  18.672 -0.0052  0.0396  0.0205
  664TIP3    H126187   0.391   5.420  18.621 -0.3894 -0.0937 -0.2237
  664TIP3    H226188   0.397   5.512  18.740  0.0261 -1.0859  0.5342
  665TIP3   OH226189   2.718   5.297  19.282  0.2686 -0.1314 -0.7419
  665TIP3    H126190   2.731   5.346  19.363 -0.6051  0.1756 -0.7847
  665TIP3    H226191   2.626   5.308  19.261  0.3572 -0.6909 -1.4724
  666TIP3   OH226192   3.014   2.273  17.260  0.2775  0.3255  0.5808
  666TIP3    H126193   3.074   2.348  17.266 -1.0661  1.6298 -1.1885
  666TIP3    H226194   2.933   2.304  17.301 -0.0318 -0.4518  0.5625
  667TIP3   OH226195   7.293   5.830  19.311  0.2181 -0.2874 -0.7006
  667TIP3    H126196   7.217   5.886  19.299  0.3011 -0.0115  0.0336
  667TIP3    H226197   7.331   5.857  19.394  0.9469 -0.6292 -0.9071
  668TIP3   OH226198   0.041   6.005  19.251 -0.2820 -0.1190 -0.2518
  668TIP3    H126199  -0.000   6.084  19.284  0.9779  1.1751 -1.6169
  668TIP3    H226200   0.001   5.991  19.165  0.6352 -0.0019 -0.7156
  669TIP3   OH226201   0.291   1.359  18.558  0.4410  0.8880 -0.1692
  669TIP3    H126202   0.224   1.308  18.512  2.4027 -1.9528 -0.1831
  669TIP3    H226203   0.296   1.320  18.645  2.4694  0.4885 -0.3976
  670TIP3   OH226204   2.800   7.557  17.752 -0.0848  0.3381 -0.1618
  670TIP3    H126205   2.730   7.498  17.723 -0.8405  0.2778  1.6343
  670TIP3    H226206   2.833   7.596  17.672 -1.9419  0.0860 -1.1027
  671TIP3   OH226207   6.490   0.986  18.282  0.1422  0.1306  0.0126
  671TIP3    H126208   6.573   0.941  18.292  0.5580  1.0341  0.8121
  671TIP3    H226209   6.427   0.916  18.261  1.1628 -0.4974 -1.0205
  672TIP3   OH226210   7.546   2.851  18.886 -0.0397  0.1690  0.1556
  672TIP3    H126211   7.596   2.852  18.805  1.3454  1.8637  0.9485
  672TIP3    H226212   7.605   2.812  18.951 -0.4212  0.4970  0.7121
  673TIP3   OH226213   2.586   3.654  17.111  0.3532 -0.4110  0.4170
  673TIP3    H126214   2.666   3.706  17.103 -0.1101  0.4101  0.8894
  673TIP3    H226215   2.526   3.712  17.158 -0.3007 -1.2600  0.6360
  674TIP3   OH226216   0.595   0.462  18.500  0.8249 -0.1365  0.8960
  674TIP3    H126217   0.551   0.379  18.515  1.3445 -0.9156 -1.4968
  674TIP3    H226218   0.531   0.516  18.455  1.3541 -0.2621 -0.0384
  675TIP3   OH226219   3.140   6.394  19.155 -0.1358  0.0668  0.3658
  675TIP3    H126220   3.175   6.457  19.219 -0.0184  1.8075 -1.3321
  675TIP3    H226221   3.138   6.442  19.072  2.1762 -2.8737 -1.5823
  676TIP3   OH226222   2.056   3.869  18.667  0.5945 -0.2082  0.2787
  676TIP3    H126223   2.106   3.927  18.726 -0.5518  1.6010 -0.4218
  676TIP3    H226224   2.115   3.853  18.594  0.9657  0.0253  0.5193
  677TIP3   OH226225   5.526   6.293  17.229  0.5487 -0.1797  0.5769
  677TIP3    H126226   5.495   6.338  17.150  0.1336 -0.4017  0.6160
  677TIP3    H226227   5.559   6.364  17.285 -0.8523  0.1692  0.9844
  678TIP3   OH226228   0.881   7.173  19.402  0.0583 -0.3628 -0.5280
  678TIP3    H126229   0.900   7.263  19.425  2.4582 -0.6728 -1.0528
  678TIP3    H226230   0.874   7.127  19.486 -0.0003  0.0873 -0.2871
  679TIP3   OH226231   7.179   2.672  19.065 -0.0102  0.1364  0.4492
  679TIP3    H126232   7.136   2.755  19.045 -1.4822 -0.0829  2.3694
  679TIP3    H226233   7.239   2.693  19.136  2.1925  0.1704 -1.3361
  680TIP3   OH226234   7.644   0.309  18.713 -0.2591 -0.0508  0.0418
  680TIP3    H126235   7.724   0.351  18.682  0.1092 -0.3100  0.6228
  680TIP3    H226236   7.671   0.261  18.792 -0.1439 -3.2198 -1.7617
  681TIP3   OH226237   7.485   2.555  16.145 -0.2822  0.5058  0.1818
  681TIP3    H126238   7.580   2.572  16.143  0.2672 -2.2201 -1.3166
  681TIP3    H226239   7.469   2.517  16.231  0.0323  0.7086  0.3325
  682TIP3   OH226240   6.007   1.557  19.021 -0.2986 -0.2647 -0.4019
  682TIP3    H126241   5.997   1.601  19.105 -0.1019  0.5091 -0.7761
  682TIP3    H226242   6.024   1.628  18.959 -1.3211 -0.7369 -1.2424
  683TIP3   OH226243   3.236   6.656  19.217  0.0073  0.3937 -0.0601
  683TIP3    H126244   3.184   6.713  19.159 -0.3664 -0.1434 -0.2638
  683TIP3    H226245   3.327   6.680  19.199 -0.1579  1.1384  0.0764
  684TIP3   OH226246   2.969   2.361  17.578 -0.7409 -0.2781  0.0869
  684TIP3    H126247   3.025   2.437  17.562 -0.0239 -1.0359 -1.1535
  684TIP3    H226248   2.900   2.368  17.511 -2.1675  0.6282  1.5768
  685TIP3   OH226249   7.408   0.754  18.629  0.4491  0.4385 -0.6873
  685TIP3    H126250   7.389   0.739  18.721 -0.4764  2.6495 -0.4538
  685TIP3    H226251   7.503   0.743  18.621  0.8665  2.1851  1.0119
  686TIP3   OH226252   4.620   2.495  17.542  0.4054  0.3088 -0.1961
  686TIP3    H126253   4.675   2.536  17.608 -1.1711 -0.2801  1.6023
  686TIP3    H226254   4.641   2.540  17.460  1.6885  1.7907  0.9039
  687TIP3   OH226255   4.701   0.882  19.518  0.1890  0.2452  0.4855
  687TIP3    H126256   4.766   0.909  19.453 -0.3515 -1.5305 -0.8893
  687TIP3    H226257   4.752   0.835  19.584  0.5243  0.4260  0.3607
  688TIP3   OH226258   0.382   2.394  18.481 -0.2946  0.0644  0.4879
  688TIP3    H126259   0.358   2.345  18.403  1.2732  0.0295 -0.0030
  688TIP3    H226260   0.314   2.371  18.545 -0.5016 -1.4752 -0.2248
  689TIP3   OH226261   1.251   4.742  19.329 -0.4533 -0.3290  0.5295
  689TIP3    H126262   1.300   4.823  19.344  0.7806 -1.4078  3.0389
  689TIP3    H226263   1.200   4.758  19.250  2.4112  1.6180 -1.0843
  690TIP3   OH226264   1.693   0.515  19.109  0.0623 -0.4136 -0.3604
  690TIP3    H126265   1.741   0.505  19.027 -2.5851  2.8440 -2.5687
  690TIP3    H226266   1.738   0.585  19.155  0.0636 -0.4872 -0.2491
  691TIP3   OH226267   4.950   5.955  17.254 -0.3199 -0.6097 -0.2306
  691TIP3    H126268   4.947   6.038  17.301 -2.0545 -0.5122 -0.4679
  691TIP3    H226269   4.973   5.979  17.164 -0.4533 -0.4354 -0.2176
  692TIP3   OH226270   0.018   6.901  17.691 -0.3387  0.0831  0.1201
  692TIP3    H126271   0.069   6.981  17.701  0.6116 -0.3936 -0.8480
  692TIP3    H226272   0.033   6.853  17.773 -0.1838  0.4717  0.3234
  693TIP3   OH226273   0.635   0.766  18.069  0.1006  0.1838  0.1818
  693TIP3    H126274   0.579   0.780  18.146  0.4550 -1.2479  0.7287
  693TIP3    H226275   0.630   0.848  18.021 -0.1766  1.1094  1.7072
  694TIP3   OH226276   2.448   1.188  19.135  0.2745 -0.3917 -0.0600
  694TIP3    H126277   2.383   1.131  19.176  0.5429 -1.0453 -0.5307
  694TIP3    H226278   2.518   1.129  19.108  1.3655  0.3801  1.0061
  695TIP3   OH226279   2.698   1.263  17.866  0.0194  0.1915  0.0656
  695TIP3    H126280   2.712   1.178  17.825 -0.9811  0.4405 -0.8339
  695TIP3    H226281   2.772   1.317  17.838  0.2431 -0.1462  0.0019
  696TIP3   OH226282   2.382   4.056  17.689 -0.3991 -0.5058 -0.1718
  696TIP3    H126283   2.436   4.126  17.652 -0.2153 -0.6591 -0.1928
  696TIP3    H226284   2.340   4.096  17.765 -2.4152  0.4633 -1.7104
  697TIP3   OH226285   0.576   7.153  19.131 -0.4006  0.0666  0.5044
  697TIP3    H126286   0.492   7.135  19.090  0.0423  1.2597 -1.0622
  697TIP3    H226287   0.590   7.247  19.117  0.9865 -0.0122  1.1134
  698TIP3   OH226288   0.767   5.246  18.693  0.1235 -0.5582 -0.3755
  698TIP3    H126289   0.778   5.158  18.728 -0.1495 -0.6273 -0.4587
  698TIP3    H226290   0.761   5.302  18.771 -0.0821 -0.6619 -0.3153
  699TIP3   OH226291   2.308   5.506  16.930  0.3226  0.6329 -0.3831
  699TIP3    H126292   2.262   5.492  16.847 -0.9321 -2.0906  0.6315
  699TIP3    H226293   2.374   5.437  16.933 -0.8865 -0.5248  1.6212
  700TIP3   OH226294   7.478   3.978  17.412 -0.0601 -0.1424  0.9038
  700TIP3    H126295   7.535   3.999  17.338 -0.8405 -2.7125 -0.5786
  700TIP3    H226296   7.395   3.953  17.371 -0.1034 -2.9865  2.4557
  701TIP3   OH226297   2.745   2.282  18.164 -0.4523  0.0281 -0.2651
  701TIP3    H126298   2.682   2.351  18.186  1.0661  1.2921  0.3357
  701TIP3    H226299   2.791   2.264  18.246 -0.8123 -1.7491 -0.4052
  702TIP3   OH226300   3.552   1.944  17.040  0.3604 -0.5092 -0.0691
  702TIP3    H126301   3.494   1.877  17.002  1.2825 -0.4525 -1.6459
  702TIP3    H226302   3.562   1.917  17.132 -1.2141 -1.1576 -0.0475
  703TIP3   OH226303   4.306   1.146  18.386 -0.1688  0.3217  0.2691
  703TIP3    H126304   4.371   1.202  18.344 -0.8828  0.1442 -1.1711
  703TIP3    H226305   4.344   1.123  18.470  0.6815  1.9308  0.3572
  704TIP3   OH226306   6.456   1.964  18.969  0.0917  0.2359 -0.4818
  704TIP3    H126307   6.389   2.020  18.929 -0.4575 -0.4392 -0.5187
  704TIP3    H226308   6.529   1.966  18.907 -0.0124  0.7305 -0.5916
  705TIP3   OH226309   4.699   0.330  18.483  0.3774 -0.0825 -0.5054
  705TIP3    H126310   4.759   0.326  18.408 -0.5010  2.3762 -1.4669
  705TIP3    H226311   4.614   0.304  18.447 -0.1072  1.3832 -0.5278
  706TIP3   OH226312   1.833   6.495  17.800 -0.0092  0.0481  0.0120
  706TIP3    H126313   1.817   6.433  17.729  0.5099  1.0600 -1.0304
  706TIP3    H226314   1.903   6.455  17.851 -1.6268 -1.5580  1.0798
  707TIP3   OH226315   0.898   3.345  19.078 -0.1062  0.4499 -0.4056
  707TIP3    H126316   0.921   3.254  19.096 -1.6097 -0.4432 -2.5613
  707TIP3    H226317   0.981   3.387  19.055  0.4203 -0.7414 -0.7558
  708TIP3   OH226318   0.412   5.874  19.292  0.2500 -0.4396  0.2106
  708TIP3    H126319   0.495   5.871  19.339  1.6205  1.3525 -1.9121
  708TIP3    H226320   0.372   5.957  19.319 -0.0153 -0.4603 -0.1065
  709TIP3   OH226321   3.094   6.931  18.745  0.6631  0.4559  0.2908
  709TIP3    H126322   3.131   7.006  18.699 -0.7444  0.7746 -0.3793
  709TIP3    H226323   3.030   6.894  18.684  0.6964 -0.7512  0.9533
  710TIP3   OH226324   5.166   5.345  17.387  0.2331  0.1982 -0.2077
  710TIP3    H126325   5.227   5.418  17.383  2.8770 -1.7248  1.4182
  710TIP3    H226326   5.211   5.273  17.342 -1.0097 -1.1959  0.6534
  711TIP3   OH226327   5.458   6.855  17.528  0.3275 -0.4151  0.6915
  711TIP3    H126328   5.400   6.927  17.503  2.1599  0.4391 -1.4707
  711TIP3    H226329   5.513   6.890  17.597  1.1061  0.2565 -0.2443
  712TIP3   OH226330   6.982   5.455  18.716  0.8668  0.0691  0.0609
  712TIP3    H126331   7.057   5.418  18.761 -0.7851 -1.3632  1.8286
  712TIP3    H226332   6.942   5.515  18.780  1.3794  2.1509 -1.4416
  713TIP3   OH226333   5.546   7.200  17.513 -0.2518  0.2463 -0.0328
  713TIP3    H126334   5.474   7.218  17.452 -0.9364  0.3913  0.8068
  713TIP3    H226335   5.508   7.210  17.600  0.4345 -1.0314  0.4512
  714TIP3   OH226336   2.211   4.280  18.741  0.3219  0.2364  0.5475
  714TIP3    H126337   2.164   4.322  18.813 -0.2696 -0.3706  0.5283
  714TIP3    H226338   2.298   4.320  18.741  0.7021 -0.5086  2.2910
  715TIP3   OH226339   4.558   4.909  17.350  0.3871 -0.3934  0.0763
  715TIP3    H126340   4.495   4.842  17.323  1.8698 -1.9110  0.2304
  715TIP3    H226341   4.579   4.955  17.269  0.4451 -1.0850 -0.3147
  716TIP3   OH226342   4.653   6.468  18.024 -0.0261 -0.5504  0.5194
  716TIP3    H126343   4.748   6.459  18.034 -0.0353  0.9041  2.5561
  716TIP3    H226344   4.617   6.386  18.058  0.4622 -0.2319  1.8802
  717TIP3   OH226345   2.521   3.105  17.550  0.0819  0.2022 -0.1526
  717TIP3    H126346   2.511   3.042  17.479 -1.2809 -0.8199  0.8707
  717TIP3    H226347   2.439   3.155  17.550  0.1157  0.2765  0.5833
  718TIP3   OH226348   0.561   3.644  17.092 -0.1559  0.5678  0.5680
  718TIP3    H126349   0.473   3.676  17.073  0.5718  2.4259  0.0168
  718TIP3    H226350   0.602   3.716  17.140  0.7115 -0.7359  1.8652
  719TIP3   OH226351   2.420   6.368  19.279  0.3116  0.3478 -0.6577
  719TIP3    H126352   2.455   6.439  19.227  0.1862  0.7019 -0.2639
  719TIP3    H226353   2.481   6.360  19.353  0.0544  0.3697 -0.4423
  720TIP3   OH226354   5.201   4.741  19.456  0.2557  0.2145 -0.1787
  720TIP3    H126355   5.274   4.802  19.442  1.4214 -1.2354 -0.7191
  720TIP3    H226356   5.140   4.789  19.513 -0.0188  2.7394 -2.4013
  721TIP3   OH226357   1.711   1.608  18.461 -0.1501 -0.4595 -0.1150
  721TIP3    H126358   1.788   1.552  18.452  0.6017  0.7037 -1.2957
  721TIP3    H226359   1.666   1.575  18.539  2.2515 -0.3386  1.4239
  722TIP3   OH226360   4.689   2.120  17.108 -0.0026 -0.4785  0.0116
  722TIP3    H126361   4.596   2.143  17.104  0.1190 -0.1234 -1.8352
  722TIP3    H226362   4.733   2.202  17.130 -0.1120 -0.6189  0.7636
  723TIP3   OH226363   2.295   7.257  18.519  0.0525  0.3101 -0.5303
  723TIP3    H126364   2.386   7.228  18.520 -0.3341 -0.9805 -0.6934
  723TIP3    H226365   2.278   7.281  18.428  0.3575  1.0395 -0.4054
  724TIP3   OH226366   2.271   6.691  17.841 -0.2340 -0.0343  0.6308
  724TIP3    H126367   2.342   6.628  17.827 -0.9380 -0.8654  0.7094
  724TIP3    H226368   2.224   6.692  17.758 -0.0144  0.6735  0.5078
  725TIP3   OH226369   2.927   4.344  16.709  0.1853 -0.3019  0.0131
  725TIP3    H126370   2.835   4.366  16.723  0.4421  0.3510  0.7509
  725TIP3    H226371   2.939   4.261  16.755  0.2573  0.2529  1.0346
  726TIP3   OH226372   7.400   0.853  18.143  0.0379  0.3510  0.7404
  726TIP3    H126373   7.463   0.781  18.149 -0.4571 -0.1427  0.1099
  726TIP3    H226374   7.329   0.819  18.089  0.8077  2.0384 -1.5016
  727TIP3   OH226375   0.703   2.041  17.434 -0.0292  0.4862  0.4356
  727TIP3    H126376   0.668   2.019  17.520 -0.2923  0.8608  0.4311
  727TIP3    H226377   0.691   2.136  17.427 -1.6343  0.2413 -0.7043
  728TIP3   OH226378   2.485   6.545  17.455 -1.0392  0.7034 -0.2262
  728TIP3    H126379   2.506   6.582  17.541 -1.2195  0.7673 -0.2080
  728TIP3    H226380   2.395   6.575  17.438 -1.5004 -0.4310  0.1644
  729TIP3   OH226381   1.152   1.793  16.832  0.5098  0.3759  0.5818
  729TIP3    H126382   1.176   1.733  16.761 -1.0246  1.5534 -1.0440
  729TIP3    H226383   1.056   1.795  16.829  0.4593  1.2790  2.0070
  730TIP3   OH226384   6.067   7.671  17.825  0.0563  0.0625  0.2263
  730TIP3    H126385   6.131   7.599  17.825  0.9692  0.8080  2.0823
  730TIP3    H226386   6.104   7.735  17.885 -2.1248  0.8443  0.7940
  731TIP3   OH226387   1.983   3.002  18.826  0.2308 -0.2690 -0.8729
  731TIP3    H126388   1.913   3.001  18.891  1.9063 -2.2638  1.0811
  731TIP3    H226389   2.015   3.092  18.827 -0.6616  0.0627  0.0781
  732TIP3   OH226390   4.176   1.472  19.647  0.4626  0.5442  0.4962
  732TIP3    H126391   4.156   1.529  19.572 -0.3356  0.5149  0.6744
  732TIP3    H226392   4.093   1.428  19.666  0.8008  0.1390  1.0512
  733TIP3   OH226393   7.133   5.863  17.695 -0.5128 -0.2132 -0.1351
  733TIP3    H126394   7.121   5.901  17.782  0.7811 -1.9403  0.8718
  733TIP3    H226395   7.221   5.892  17.668 -0.5310 -0.4426 -0.4538
  734TIP3   OH226396   2.735   4.547  18.404 -0.1004  0.2529 -0.0210
  734TIP3    H126397   2.680   4.472  18.381 -0.3342  0.9088 -1.7646
  734TIP3    H226398   2.822   4.510  18.417 -0.6043 -0.5712  1.1276
  735TIP3   OH226399   7.316   0.627  18.394  0.1173 -0.1879  0.5689
  735TIP3    H126400   7.232   0.666  18.372  0.8914  0.9542 -0.5207
  735TIP3    H226401   7.355   0.687  18.457 -0.0681 -0.9723  1.4583
  736TIP3   OH226402   7.117   5.053  18.914  0.6394  0.0994  0.0569
  736TIP3    H126403   7.177   4.983  18.889  1.4954  1.0336 -0.5982
  736TIP3    H226404   7.154   5.089  18.995  0.6756  0.3370 -0.0636
  737TIP3   OH226405   4.645   5.306  18.833  0.4518 -0.1048 -0.4205
  737TIP3    H126406   4.599   5.222  18.835  0.2237  0.0161  1.6107
  737TIP3    H226407   4.738   5.282  18.839  0.4546 -0.2378 -0.9613
  738TIP3   OH226408   6.985   2.118  18.162 -0.4555 -0.3115 -0.3066
  738TIP3    H126409   6.923   2.151  18.097 -1.0811 -2.9897 -1.2246
  738TIP3    H226410   6.959   2.027  18.175  0.5649 -0.2862  2.6725
  739TIP3   OH226411   0.211   0.397  17.139 -0.0971 -0.0809 -0.5226
  739TIP3    H126412   0.149   0.331  17.171  0.2858 -0.3116 -0.2550
  739TIP3    H226413   0.224   0.456  17.213 -0.3774  0.2560 -0.7383
  740TIP3   OH226414   6.966   0.464  18.948 -0.1127  0.0430  0.5176
  740TIP3    H126415   6.926   0.383  18.918  1.1931 -0.1688 -0.7199
  740TIP3    H226416   7.060   0.445  18.954  0.2833  1.5524 -0.2006
  741TIP3   OH226417   6.552   4.805  18.068  0.4298  0.1305  0.5374
  741TIP3    H126418   6.471   4.756  18.068  0.1369  0.5951  1.5639
  741TIP3    H226419   6.602   4.771  18.142  0.4804  0.9460  0.8893
  742TIP3   OH226420   2.071   3.770  16.924  0.4712 -0.4139  0.4743
  742TIP3    H126421   2.068   3.798  16.833 -2.2567  0.5964  0.7996
  742TIP3    H226422   2.091   3.676  16.919  0.1673 -0.4254 -1.1723
  743TIP3   OH226423   1.858   0.089  18.989  0.2225  0.4222 -0.4009
  743TIP3    H126424   1.875   0.094  18.895  1.8987 -0.0697 -0.1679
  743TIP3    H226425   1.944   0.103  19.029 -0.1355 -1.1729  1.0103
  744TIP3   OH226426   3.847   3.532  18.928 -0.0832  0.1875  0.7071
  744TIP3    H126427   3.819   3.441  18.938 -2.3200  0.9439  2.3186
  744TIP3    H226428   3.912   3.545  18.997 -0.0316 -0.0830  0.7093
  745TIP3   OH226429   0.505   3.208  17.604  0.0557 -0.3997 -0.2198
  745TIP3    H126430   0.426   3.245  17.644  0.1075 -1.6152  1.0858
  745TIP3    H226431   0.478   3.123  17.571  0.8229 -0.8625  0.3182
  746TIP3   OH226432   2.617   5.557  17.929  0.1476 -0.0770  0.0463
  746TIP3    H126433   2.529   5.520  17.919  0.3658 -0.7842  0.6679
  746TIP3    H226434   2.616   5.596  18.016  0.7006 -0.7856  0.3709
  747TIP3   OH226435   5.343   3.108  19.599 -0.4244 -0.3128 -0.3769
  747TIP3    H126436   5.299   3.024  19.608 -1.7041  0.4262  0.4979
  747TIP3    H226437   5.426   3.097  19.645 -0.4888 -1.1452 -0.4447
  748TIP3   OH226438   1.785   1.095  17.298  0.3298 -0.2379  0.3940
  748TIP3    H126439   1.694   1.066  17.296  0.0570  0.3698  2.1695
  748TIP3    H226440   1.819   1.075  17.211 -1.1497 -1.5918  0.0876
  749TIP3   OH226441   5.714   0.248  18.020 -0.5381  0.3782 -0.3473
  749TIP3    H126442   5.752   0.334  18.038  2.6144 -0.7170 -0.9727
  749TIP3    H226443   5.779   0.205  17.964 -1.5970 -2.6832  0.5625
  750TIP3   OH226444   6.635   0.973  19.632  0.3182  0.0770 -0.0846
  750TIP3    H126445   6.605   1.014  19.712 -0.8924  1.1955 -1.0720
  750TIP3    H226446   6.680   1.043  19.584  1.9954 -0.8430  0.0665
  751TIP3   OH226447   5.175   0.277  18.396  0.1030 -0.7932 -0.0803
  751TIP3    H126448   5.107   0.338  18.423  1.3377 -0.5690  2.8420
  751TIP3    H226449   5.244   0.332  18.360 -0.4622 -0.8918 -1.4029
  752TIP3   OH226450   0.090   1.514  17.956 -0.0822  0.3270 -0.2307
  752TIP3    H126451   0.104   1.567  17.877 -1.0999  0.7836 -0.1143
  752TIP3    H226452   0.153   1.549  18.019  0.6999 -0.0043 -0.8138
  753TIP3   OH226453   0.837   6.455  17.668  0.1267  0.3037  0.1380
  753TIP3    H126454   0.876   6.470  17.754  1.5965 -0.9780 -0.2673
  753TIP3    H226455   0.896   6.497  17.606  0.4594 -0.9115 -0.4113
  754TIP3   OH226456   0.893   6.283  16.832  0.9765 -0.3657 -0.3306
  754TIP3    H126457   0.982   6.314  16.850  0.8506  0.6999 -1.4123
  754TIP3    H226458   0.895   6.257  16.740  0.0774  0.0361 -0.4685
  755TIP3   OH226459   5.971   6.337  17.616 -0.1041 -0.3294 -0.1044
  755TIP3    H126460   5.917   6.259  17.605 -0.0901 -0.8066  2.4723
  755TIP3    H226461   5.907   6.409  17.620 -0.3947 -0.6234  0.7336
  756TIP3   OH226462   6.720   2.996  19.297  0.0079 -0.2109  0.4379
  756TIP3    H126463   6.801   2.946  19.305 -0.3207 -0.4969  2.6546
  756TIP3    H226464   6.654   2.932  19.274  0.2682 -0.1108 -0.6033
  757TIP3   OH226465   3.988   4.327  17.220  1.0525 -0.2557  0.2989
  757TIP3    H126466   4.071   4.331  17.268  1.3675  0.7932 -0.2909
  757TIP3    H226467   4.000   4.389  17.148 -0.9483  1.3486  1.2854
  758TIP3   OH226468   4.847   1.061  19.348  0.1936  0.6112 -0.2189
  758TIP3    H126469   4.939   1.086  19.345  0.8109 -1.4293 -3.1257
  758TIP3    H226470   4.825   1.040  19.257 -2.4776 -1.1582  0.6920
  759TIP3   OH226471   1.404   4.696  17.482  0.1899 -0.2185 -0.2516
  759TIP3    H126472   1.411   4.652  17.567 -1.2273  0.9040  0.4862
  759TIP3    H226473   1.342   4.642  17.432 -0.6692  0.2759  0.2450
  760TIP3   OH226474   7.368   6.457  18.807  0.4145  0.4406  0.2822
  760TIP3    H126475   7.286   6.489  18.843 -0.1261 -0.5688 -0.0249
  760TIP3    H226476   7.346   6.374  18.766  2.0158 -1.0873  2.3034
  761TIP3   OH226477   5.322   3.951  19.728 -0.5406  0.1304 -0.3261
  761TIP3    H126478   5.252   3.903  19.771 -0.3612  1.3274  1.3630
  761TIP3    H226479   5.287   4.039  19.713  0.7697  0.9701  1.1850
  762TIP3   OH226480   6.927   0.208  17.805 -0.1729 -0.0215 -0.1873
  762TIP3    H126481   6.916   0.183  17.897 -0.7993  0.7042 -0.0562
  762TIP3    H226482   6.908   0.301  17.803  2.7909  0.6621 -0.5689
  763TIP3   OH226483   1.397   2.370  18.480 -0.1839  0.5128 -0.3173
  763TIP3    H126484   1.484   2.352  18.444  0.2526 -1.4814  1.4982
  763TIP3    H226485   1.337   2.320  18.424  0.2530 -0.8203  0.3517
  764TIP3   OH226486   4.930   4.428  18.217  0.1611  0.2266 -0.5162
  764TIP3    H126487   4.931   4.524  18.214  0.6143  0.2752  0.6599
  764TIP3    H226488   4.844   4.404  18.181 -0.1996  1.0974 -0.2738
  765TIP3   OH226489   7.552   0.066  18.574 -0.7160 -0.0144 -0.3610
  765TIP3    H126490   7.527   0.154  18.600  1.7748  0.6536  0.0477
  765TIP3    H226491   7.553   0.016  18.656  0.3207  0.2717 -0.1811
  766TIP3   OH226492   4.704   4.844  18.178  0.4083 -0.2009  0.4094
  766TIP3    H126493   4.666   4.858  18.264 -1.4660  0.3447 -0.4591
  766TIP3    H226494   4.744   4.928  18.155 -0.5898  0.1861  0.0542
  767TIP3   OH226495   3.306   0.213  18.534  0.2523 -0.4455 -0.8508
  767TIP3    H126496   3.224   0.180  18.498 -0.1314 -0.7255  0.2634
  767TIP3    H226497   3.328   0.287  18.477 -1.4446  0.4498 -0.4093
  768TIP3   OH226498   1.943   4.794  17.910 -0.1027 -0.0563 -0.6763
  768TIP3    H126499   1.923   4.853  17.837  2.6874  1.5536 -0.2878
  768TIP3    H226500   1.922   4.707  17.876 -1.0896  0.8449 -2.5573
  769TIP3   OH226501   5.720   3.354  19.114  0.4484 -0.0292 -0.1889
  769TIP3    H126502   5.633   3.323  19.139 -1.0068  2.6100 -1.5608
  769TIP3    H226503   5.764   3.375  19.196 -0.2984 -1.1176  0.5022
  770TIP3   OH226504   0.759   2.149  18.374  0.7607 -0.0943 -0.4131
  770TIP3    H126505   0.802   2.146  18.459  0.6561  1.7124 -0.2629
  770TIP3    H226506   0.693   2.218  18.382  1.0832  0.4717 -2.0990
  771TIP3   OH226507   3.450   4.786  19.207  0.2140  0.2599 -0.0624
  771TIP3    H126508   3.403   4.762  19.127 -0.6342  2.0612 -0.1560
  771TIP3    H226509   3.532   4.824  19.175  0.2093  0.2814 -0.0487
  772TIP3   OH226510   6.353   5.156  19.454 -0.4073 -0.1267 -0.1794
  772TIP3    H126511   6.439   5.129  19.424 -0.4536  0.7849 -1.1850
  772TIP3    H226512   6.344   5.247  19.424 -1.2208  0.2116  0.9771
  773TIP3   OH226513   5.134   0.660  16.460  0.0191 -0.1764 -0.2006
  773TIP3    H126514   5.218   0.636  16.498  0.4453  2.8027  1.0002
  773TIP3    H226515   5.157   0.719  16.388 -1.0299 -0.5067 -0.8298
  774TIP3   OH226516   5.004   1.990  17.359 -0.1906  0.0572 -0.4546
  774TIP3    H126517   5.066   1.925  17.394  0.8308  0.4219 -1.5168
  774TIP3    H226518   4.939   1.939  17.311  1.5559 -0.1769 -2.7550
  775TIP3   OH226519   0.810   6.237  17.514 -0.6005 -0.3620  0.5762
  775TIP3    H126520   0.824   6.326  17.546  0.4081 -0.1575 -0.3875
  775TIP3    H226521   0.719   6.217  17.536 -0.5399  0.5257  1.6970
  776TIP3   OH226522   5.793   4.562  18.471  0.0351  0.4394  0.5842
  776TIP3    H126523   5.859   4.508  18.428 -0.1057  1.0927 -0.4669
  776TIP3    H226524   5.832   4.584  18.556  0.1087 -1.2641  1.0249
  777TIP3   OH226525   7.137   6.084  18.549 -0.0470  0.6209 -0.3245
  777TIP3    H126526   7.199   6.041  18.490  2.1853  1.8414  0.9696
  777TIP3    H226527   7.108   6.162  18.502 -0.7442 -0.0160 -0.9824
  778TIP3   OH226528   4.069   1.899  19.501 -0.1190 -0.4458  0.0479
  778TIP3    H126529   4.141   1.963  19.509 -0.1456 -0.4151  0.0420
  778TIP3    H226530   4.011   1.938  19.436  0.6598 -1.2120 -1.1521
  779TIP3   OH226531   7.029   2.863  19.296  0.2802  0.4433 -0.4111
  779TIP3    H126532   7.109   2.816  19.318 -1.3606 -1.8303  1.0525
  779TIP3    H226533   7.007   2.912  19.375 -0.3663  0.1705 -0.4172
  780TIP3   OH226534   2.916   0.854  18.432  0.0237  0.2248 -0.2975
  780TIP3    H126535   2.992   0.875  18.487  0.0949  3.3702 -1.3852
  780TIP3    H226536   2.841   0.888  18.480 -0.6389 -1.8005  0.2125
  781TIP3   OH226537   0.301   6.733  17.715 -0.7079  0.1623  0.2777
  781TIP3    H126538   0.272   6.659  17.662 -1.0848  0.8701 -0.5218
  781TIP3    H226539   0.338   6.795  17.652 -0.9537  0.9219  0.8610
  782TIP3   OH226540   5.292   6.372  18.864  0.1581  0.2254  0.6743
  782TIP3    H126541   5.198   6.366  18.849  0.2255  0.4502  0.1494
  782TIP3    H226542   5.331   6.371  18.777  0.7832 -1.9011  0.9322
  783TIP3   OH226543   5.062   1.860  19.402  0.5337 -0.1901 -0.5062
  783TIP3    H126544   5.140   1.832  19.449 -0.0244  0.1174  0.6311
  783TIP3    H226545   5.041   1.946  19.438 -0.0132 -0.0274 -1.1916
  784TIP3   OH226546   0.912   5.373  17.403 -0.3737 -0.6393 -0.1501
  784TIP3    H126547   0.954   5.458  17.413 -1.2328 -0.2257  0.0464
  784TIP3    H226548   0.985   5.311  17.396  0.2640 -0.0099  0.6472
  785TIP3   OH226549   2.367   6.442  18.336 -0.3108 -0.2991  0.6377
  785TIP3    H126550   2.342   6.496  18.261  0.0674 -1.3030 -0.2337
  785TIP3    H226551   2.438   6.491  18.378  0.4626 -0.3894 -0.5165
  786TIP3   OH226552   7.026   4.473  16.916  0.1665  0.3783  0.2138
  786TIP3    H126553   7.033   4.541  16.984 -1.7432 -0.2707  1.1312
  786TIP3    H226554   7.111   4.430  16.917  0.3564  0.7123  1.8607
  787TIP3   OH226555   4.939   0.177  19.027 -0.1820  0.2443 -0.4499
  787TIP3    H126556   4.985   0.190  18.943  0.2993 -2.3187 -0.6519
  787TIP3    H226557   4.957   0.257  19.076  0.6387  1.2567 -2.2803
  788TIP3   OH226558   7.550   3.812  19.490  0.0215 -0.9724  0.2994
  788TIP3    H126559   7.598   3.795  19.409  1.6138 -1.7052  1.3430
  788TIP3    H226560   7.465   3.770  19.477 -0.0844 -0.3664 -1.2794
  789TIP3   OH226561   4.764   1.848  17.190  0.5591 -0.3243 -0.0605
  789TIP3    H126562   4.744   1.909  17.118  1.1478 -1.7007 -1.4374
  789TIP3    H226563   4.709   1.772  17.172 -0.3416 -0.1582  1.7714
  790TIP3   OH226564   3.610   6.197  18.763  0.1581  0.4029 -0.3331
  790TIP3    H126565   3.703   6.202  18.785 -0.0397  0.3577  0.5579
  790TIP3    H226566   3.590   6.104  18.764  0.1492  0.3982 -0.7510
  791TIP3   OH226567   6.638   0.927  19.160  0.4269 -0.3380  0.0737
  791TIP3    H126568   6.565   0.871  19.190  0.4531  0.1056  1.0028
  791TIP3    H226569   6.636   0.919  19.065 -0.8091 -0.3827  0.0799
  792TIP3   OH226570   7.362   6.856  19.258  0.0898  0.6822  0.0337
  792TIP3    H126571   7.392   6.938  19.295  0.1191  0.1822  1.1634
  792TIP3    H226572   7.429   6.792  19.282 -0.2873  0.1931 -0.1885
  793TIP3   OH226573   0.117   0.822  19.387 -0.1749 -0.1237  0.1505
  793TIP3    H126574   0.120   0.768  19.308 -3.2941  0.5510 -0.5579
  793TIP3    H226575   0.147   0.908  19.358 -1.6232  0.2083 -0.4502
  794TIP3   OH226576   4.137   6.040  17.580 -0.0386  0.4200 -0.2775
  794TIP3    H126577   4.170   6.044  17.491 -1.6391  0.9542 -0.8781
  794TIP3    H226578   4.174   6.116  17.624 -0.3383  0.9266 -0.8938
  795TIP3   OH226579   5.017   0.246  16.887  0.4172 -0.0710 -0.0651
  795TIP3    H126580   4.938   0.298  16.898  0.9753  0.5361  1.2745
  795TIP3    H226581   5.084   0.309  16.861  1.2462  0.0680  2.1786
  796TIP3   OH226582   7.507   5.473  17.729  0.1467  0.7666 -0.1885
  796TIP3    H126583   7.423   5.491  17.687  0.3729  0.9465 -0.5737
  796TIP3    H226584   7.505   5.523  17.810 -0.0029  1.0011 -0.3369
  797TIP3   OH226585   3.313   0.144  18.791  0.3757  0.2804 -0.4947
  797TIP3    H126586   3.317   0.235  18.819 -0.1881  0.9113 -2.3502
  797TIP3    H226587   3.290   0.148  18.698 -0.6521 -1.7896 -0.3837
  798TIP3   OH226588   3.065   0.262  17.628  0.4169 -1.0250 -0.3202
  798TIP3    H126589   3.113   0.308  17.558  0.9136 -2.0248 -0.6492
  798TIP3    H226590   3.124   0.192  17.655  0.0193 -0.9434  0.7784
  799TIP3   OH226591   5.966   0.707  19.473 -0.1593  0.6125 -0.1372
  799TIP3    H126592   6.018   0.629  19.455  1.0829  1.1307  0.9800
  799TIP3    H226593   6.030   0.771  19.506 -1.5773  1.0262  2.0404
  800TIP3   OH226594   2.365   2.979  18.036 -0.2538  0.2247  0.0755
  800TIP3    H126595   2.274   2.985  18.007 -0.5281  0.8523  1.0140
  800TIP3    H226596   2.410   2.933  17.965 -1.3229 -0.2002 -0.3508
  801TIP3   OH226597   4.640   4.040  17.329  0.2667  0.0929  0.2320
  801TIP3    H126598   4.712   3.985  17.299 -0.8155 -2.3635  1.8289
  801TIP3    H226599   4.561   3.996  17.298 -0.6375  1.1962  0.8948
  802TIP3   OH226600   5.177   5.473  16.729 -0.4360  0.0263  0.0245
  802TIP3    H126601   5.234   5.490  16.804 -1.9280  1.0550  0.9601
  802TIP3    H226602   5.159   5.559  16.692  0.1770 -0.4589 -1.4772
  803TIP3   OH226603   4.900   5.616  16.639 -0.8460  0.2374 -0.4327
  803TIP3    H126604   4.982   5.656  16.610 -0.3985 -0.6722 -0.4527
  803TIP3    H226605   4.839   5.689  16.644  0.2611  1.1356  0.7014
  804TIP3   OH226606   0.375   2.076  17.845  0.2785 -0.0356  0.3729
  804TIP3    H126607   0.316   2.030  17.786  1.0955  0.5383 -0.9298
  804TIP3    H226608   0.440   2.010  17.871  1.2884  0.2713 -1.2715
  805TIP3   OH226609   0.028   1.115  19.380 -0.2555  0.5001  0.0806
  805TIP3    H126610   0.098   1.179  19.369 -0.5410  0.7252 -0.4371
  805TIP3    H226611  -0.004   1.129  19.469 -0.6856  1.4469 -0.2146
  806TIP3   OH226612   6.319   2.765  16.649  0.1014  0.6056  0.3135
  806TIP3    H126613   6.360   2.805  16.725  1.2444  1.4536 -0.7172
  806TIP3    H226614   6.226   2.764  16.670  0.3543  1.1554  1.5567
  807TIP3   OH226615   4.877   0.260  18.292 -0.0375  0.1806  0.1121
  807TIP3    H126616   4.852   0.236  18.203  1.3772  0.9466 -0.5184
  807TIP3    H226617   4.893   0.176  18.336  1.5753 -0.1681 -1.0697
  808TIP3   OH226618   4.071   7.672  18.675  0.3711  0.1576 -0.1771
  808TIP3    H126619   4.075   7.757  18.720 -0.8762 -0.3431  0.9722
  808TIP3    H226620   4.079   7.608  18.746 -3.0601 -0.6855 -0.3560
  809TIP3   OH226621   1.588   1.125  17.778  0.3257 -0.2067 -0.6881
  809TIP3    H126622   1.585   1.061  17.707 -0.4088 -2.0859  0.9488
  809TIP3    H226623   1.623   1.077  17.852  0.0883  1.4061  0.5300
  810TIP3   OH226624   3.548   6.483  17.773  0.1128  0.5884 -0.2684
  810TIP3    H126625   3.575   6.393  17.790  1.6752  1.1216  0.2356
  810TIP3    H226626   3.600   6.510  17.697  0.7353  1.5093  0.4623
  811TIP3   OH226627   0.297   1.417  17.425  0.4346 -0.0119 -0.4904
  811TIP3    H126628   0.274   1.381  17.510 -0.3857  0.4856 -0.5009
  811TIP3    H226629   0.334   1.342  17.377 -4.4568 -1.9569 -1.8073
  812TIP3   OH226630   4.612   0.560  17.960 -0.4285  0.0260  0.4078
  812TIP3    H126631   4.536   0.523  17.915 -1.6508  0.0302  2.3632
  812TIP3    H226632   4.611   0.652  17.934 -1.3242  0.1101  0.6868
  813TIP3   OH226633   3.764   3.925  17.470  0.0175  0.1210  0.0290
  813TIP3    H126634   3.796   3.946  17.382  0.1376 -0.6222 -0.1104
  813TIP3    H226635   3.701   3.994  17.489 -0.1028  0.2228 -0.6970
  814TIP3   OH226636   0.649   6.388  18.898 -0.2514  0.6155 -0.1596
  814TIP3    H126637   0.710   6.433  18.956 -0.0343 -0.6518  0.6525
  814TIP3    H226638   0.564   6.426  18.918 -0.1505  0.3251  0.8869
  815TIP3   OH226639   3.083   1.278  18.892  0.0482 -0.5310  0.0364
  815TIP3    H126640   3.174   1.288  18.918 -0.8219  1.5256  2.7478
  815TIP3    H226641   3.081   1.303  18.800  2.1263 -0.0256  0.0965
  816TIP3   OH226642   6.093   0.768  18.919 -0.5606  0.2204 -0.1390
  816TIP3    H126643   6.137   0.816  18.850  1.2708 -0.8183  0.2468
  816TIP3    H226644   6.043   0.700  18.873 -1.7191  1.3225 -0.5705
  817TIP3   OH226645   4.444   7.175  18.441 -0.9507  0.1576  0.1991
  817TIP3    H126646   4.433   7.148  18.350  0.0689  0.2282  0.0402
  817TIP3    H226647   4.377   7.127  18.490 -1.1146 -0.3347 -0.5038
  818TIP3   OH226648   5.340   2.413  18.466  0.3160  0.6265  0.1649
  818TIP3    H126649   5.382   2.499  18.462  1.7567 -0.0797 -1.3603
  818TIP3    H226650   5.363   2.378  18.552  1.2101  1.0630  0.1084
  819TIP3   OH226651   2.598   0.702  18.699  0.1503  0.6511 -0.1253
  819TIP3    H126652   2.636   0.615  18.711  0.0410  0.7174  0.7588
  819TIP3    H226653   2.535   0.692  18.629  0.5111  0.1365 -0.3797
  820TIP3   OH226654   2.848   5.512  19.446 -0.3444 -0.4548 -0.0438
  820TIP3    H126655   2.882   5.444  19.504 -0.5952  0.2674  0.9787
  820TIP3    H226656   2.924   5.567  19.427 -0.6201  0.3424  1.0856
  821TIP3   OH226657   0.579   1.510  19.405  0.7193 -0.4364 -0.0384
  821TIP3    H126658   0.611   1.471  19.487  0.8619  0.2765  0.2545
  821TIP3    H226659   0.655   1.511  19.347  1.3266  1.4262  0.7186
  822TIP3   OH226660   5.541   6.886  19.332 -0.4055  0.5330 -0.5198
  822TIP3    H126661   5.491   6.911  19.409 -1.1391 -0.3134 -0.7056
  822TIP3    H226662   5.585   6.804  19.357 -1.5367 -0.3657 -1.3301
  823TIP3   OH226663   4.583   0.886  19.085  0.3178 -0.2320 -0.1041
  823TIP3    H126664   4.525   0.915  19.156  1.1130 -2.0612  1.3661
  823TIP3    H226665   4.558   0.941  19.010 -2.8579 -0.4742  0.6211
  824TIP3   OH226666   2.352   0.166  18.432 -0.5277 -0.8255  0.4327
  824TIP3    H126667   2.359   0.242  18.374  0.9879 -1.1341  0.1641
  824TIP3    H226668   2.364   0.091  18.375 -3.0413 -1.3851  0.5186
  825TIP3   OH226669   6.513   0.944  18.677  0.0293  0.3076 -0.3779
  825TIP3    H126670   6.515   0.996  18.597 -0.1138  0.2293 -0.4324
  825TIP3    H226671   6.563   0.996  18.741  2.6857 -0.9416 -1.3047
  826TIP3   OH226672   3.116   0.073  17.352 -0.0881  0.3354  0.2798
  826TIP3    H126673   3.118   0.102  17.261  0.6533  0.8619  0.4509
  826TIP3    H226674   3.196   0.022  17.363  0.8517  1.8987  1.1213
  827TIP3   OH226675   1.366   4.509  18.842 -0.2597  0.8093 -0.0908
  827TIP3    H126676   1.307   4.571  18.798  0.1503  1.2159 -0.0810
  827TIP3    H226677   1.454   4.541  18.821 -0.0216  1.9903  2.3164
  828TIP3   OH226678   0.326   0.784  18.247 -0.2889 -0.1583  0.8566
  828TIP3    H126679   0.310   0.878  18.234 -0.2729 -0.3139 -0.3322
  828TIP3    H226680   0.330   0.748  18.159  0.1009 -1.2199  1.3016
  829TIP3   OH226681   4.400   0.391  19.269  0.2081 -0.1714 -0.6373
  829TIP3    H126682   4.466   0.373  19.202  0.3074 -1.1612 -0.2801
  829TIP3    H226683   4.430   0.345  19.347 -0.7609 -0.4195 -0.3944
  830TIP3   OH226684   7.600   5.537  17.035 -0.1669  0.0517 -0.4484
  830TIP3    H126685   7.624   5.459  16.985 -0.1783  0.5706 -1.2665
  830TIP3    H226686   7.507   5.524  17.056  0.0927 -0.6438  0.3367
  831TIP3   OH226687   3.511   5.879  17.292  0.0845  0.6267 -0.1378
  831TIP3    H126688   3.594   5.908  17.331  1.2079 -2.1543 -0.1696
  831TIP3    H226689   3.459   5.849  17.367 -0.0005  0.3824 -0.2930
  832TIP3   OH226690   1.136   1.442  19.383  0.4045 -0.1910 -0.1847
  832TIP3    H126691   1.082   1.426  19.460  0.4582 -1.6036 -0.4169
  832TIP3    H226692   1.169   1.356  19.358  0.9539  0.3367 -1.3782
  833TIP3   OH226693   1.100   1.804  16.497 -0.3461  0.1257 -0.0847
  833TIP3    H126694   1.195   1.815  16.507 -0.3500  1.7898 -1.4963
  833TIP3    H226695   1.072   1.882  16.450 -2.6272  0.2598  1.3640
  834TIP3   OH226696   2.254   5.506  16.656  0.0209  0.2609  0.4195
  834TIP3    H126697   2.297   5.449  16.593 -0.7654  0.1908 -0.0614
  834TIP3    H226698   2.179   5.456  16.688 -0.7631  1.0489 -0.1147
  835TIP3   OH226699   7.274   0.180  18.723  0.1499  0.2407  0.0515
  835TIP3    H126700   7.240   0.131  18.648 -1.0768  3.2516 -1.5225
  835TIP3    H226701   7.295   0.266  18.688  2.2112  0.9115  2.6458
  836TIP3   OH226702   6.674   4.955  17.450  0.7396 -0.5380 -0.4212
  836TIP3    H126703   6.663   4.921  17.361  0.9701 -0.2927 -0.5417
  836TIP3    H226704   6.767   4.973  17.458  0.4227  1.6861 -0.9548
  837TIP3   OH226705   3.080   1.695  18.908  0.0848  0.1016 -0.3088
  837TIP3    H126706   3.065   1.789  18.922 -0.7371 -0.1735  0.7760
  837TIP3    H226707   3.122   1.690  18.822  0.6361  1.5036 -0.1450
  838TIP3   OH226708   3.156   6.819  18.978  0.3518 -0.0716  0.3637
  838TIP3    H126709   3.133   6.868  18.899 -0.1274  1.0885  1.1908
  838TIP3    H226710   3.111   6.735  18.968 -0.1331  0.2626 -0.3630
  839TIP3   OH226711   7.651   2.207  19.185 -0.4770 -0.3090 -0.0439
  839TIP3    H126712   7.582   2.150  19.151 -0.1663  0.2181 -1.6537
  839TIP3    H226713   7.634   2.213  19.278 -0.9367 -2.4637  0.0653
  840TIP3   OH226714   6.249   1.394  19.795 -0.2448  0.1303  0.1971
  840TIP3    H126715   6.223   1.486  19.789 -0.1953  0.0649 -1.5406
  840TIP3    H226716   6.205   1.352  19.721 -1.4389 -1.5623  1.7714
  841TIP3   OH226717   5.551   2.519  19.252  0.1502  0.3325 -0.0853
  841TIP3    H126718   5.626   2.575  19.230  0.2303  0.6934  1.0216
  841TIP3    H226719   5.477   2.557  19.205  0.6101  0.1234 -0.9914
  842TIP3   OH226720   0.454   2.092  18.653  0.2764 -0.3012  0.4944
  842TIP3    H126721   0.527   2.144  18.687  0.5454  0.4821 -1.1806
  842TIP3    H226722   0.494   2.009  18.627  1.3181  1.1123 -3.1152
  843TIP3   OH226723   5.973   0.317  17.648  0.1478 -0.0438 -0.0768
  843TIP3    H126724   5.900   0.330  17.708 -1.1237 -1.7358 -1.1560
  843TIP3    H226725   5.932   0.314  17.561  1.4544 -1.2778 -0.6808
  844TIP3   OH226726   7.472   0.003  17.540 -0.5965 -0.1965  0.1492
  844TIP3    H126727   7.553  -0.003  17.591 -0.6875  0.9027  0.4532
  844TIP3    H226728   7.492   0.067  17.472 -1.6425  1.1864  1.0993
  845TIP3   OH226729   0.694   6.547  16.520 -0.4297  0.6305 -0.2011
  845TIP3    H126730   0.628   6.528  16.454  0.1325  1.8506 -1.1581
  845TIP3    H226731   0.657   6.513  16.601 -0.8132 -1.6141 -1.2353
  846TIP3   OH226732   3.218   4.192  18.999 -0.2774 -0.0268 -0.3375
  846TIP3    H126733   3.242   4.153  19.083 -1.2044 -0.0454 -0.0656
  846TIP3    H226734   3.300   4.197  18.950 -0.0395 -1.7642 -0.1598
  847TIP3   OH226735   4.392   1.478  19.179  0.0781  0.3851 -0.1432
  847TIP3    H126736   4.431   1.564  19.189 -0.5483  0.5382  1.1824
  847TIP3    H226737   4.388   1.442  19.268 -1.8219 -0.0268 -0.3538
  848TIP3   OH226738   1.529   1.775  18.359  0.0437 -0.4719 -0.1219
  848TIP3    H126739   1.613   1.742  18.389  0.0486 -0.4508 -0.1111
  848TIP3    H226740   1.501   1.836  18.427  1.2440  1.5256 -1.3465
  849TIP3   OH226741   3.004   7.679  19.089 -0.0135 -0.1541 -0.4172
  849TIP3    H126742   2.924   7.716  19.054  0.3868  2.1013  0.8348
  849TIP3    H226743   2.975   7.609  19.148 -1.1254  0.9527  0.3995
  850TIP3   OH226744   6.272   0.800  17.311 -0.2290 -0.0548  0.5295
  850TIP3    H126745   6.338   0.750  17.359  1.6617 -1.3455 -3.0481
  850TIP3    H226746   6.213   0.734  17.275 -0.5788  0.6781 -0.2780
  851TIP3   OH226747   5.132   2.378  19.648 -0.2930 -0.0367  0.0330
  851TIP3    H126748   5.216   2.423  19.638 -0.1178 -0.3694 -0.0060
  851TIP3    H226749   5.067   2.447  19.639  0.0235  0.5987  2.0382
  852TIP3   OH226750   6.406   0.086  18.293 -0.3447 -0.2838  0.6656
  852TIP3    H126751   6.415   0.127  18.207  2.6573 -1.7977  0.1575
  852TIP3    H226752   6.371  -0.001  18.275 -2.2866  0.3066  1.3134
  853TIP3   OH226753   3.312   2.121  17.264 -0.3794  0.3076  0.2622
  853TIP3    H126754   3.244   2.152  17.203  0.7018  0.0226 -1.1532
  853TIP3    H226755   3.314   2.026  17.252 -0.1605  0.2492  0.7552
  854TIP3   OH226756   4.407   7.544  17.859  0.7394 -0.2798  0.1501
  854TIP3    H126757   4.447   7.540  17.772 -0.5562  0.0371 -0.4724
  854TIP3    H226758   4.421   7.634  17.888  0.5252 -0.1880 -0.0351
  855TIP3   OH226759   2.911   4.310  17.497  0.3028  0.0765 -0.5116
  855TIP3    H126760   2.905   4.403  17.517 -0.8932 -0.3198  1.1601
  855TIP3    H226761   2.953   4.271  17.574  1.2139 -0.7211 -1.3847
  856TIP3   OH226762   0.346   7.359  19.180  0.2493  0.2277 -0.2677
  856TIP3    H126763   0.276   7.425  19.189 -1.2855 -1.1223 -1.7013
  856TIP3    H226764   0.306   7.278  19.211  1.7068 -0.3077  0.2915
  857TIP3   OH226765   0.740   4.904  18.446 -0.2868 -0.0233  0.6420
  857TIP3    H126766   0.714   4.996  18.435  1.2392  0.8685  3.5376
  857TIP3    H226767   0.711   4.862  18.365 -2.3598  2.6685 -0.1846
  858TIP3   OH226768   3.207   0.985  18.814 -0.4069  0.1917  0.1069
  858TIP3    H126769   3.255   1.038  18.878 -2.4446  0.5071  1.4679
  858TIP3    H226770   3.121   1.027  18.808 -1.3993 -1.8048 -0.2741
  859TIP3   OH226771   7.552   1.125  17.184 -0.8083  0.4402  0.0246
  859TIP3    H126772   7.546   1.090  17.273 -1.8608 -1.7626 -0.8322
  859TIP3    H226773   7.597   1.057  17.135 -1.6155  0.9397 -1.4500
  860TIP3   OH226774   4.120   1.891  18.464  0.3683 -0.1066  0.0567
  860TIP3    H126775   4.032   1.917  18.489 -0.1770 -1.5665 -0.2078
  860TIP3    H226776   4.160   1.859  18.545  1.1743  1.8028  0.4637
  861TIP3   OH226777   7.583   7.546  18.754  0.7428  0.2844  0.2621
  861TIP3    H126778   7.496   7.506  18.754  0.8049  0.0449 -1.5584
  861TIP3    H226779   7.627   7.509  18.830  0.2578 -1.8898 -0.4505
  862TIP3   OH226780   6.092   4.046  19.395  0.9227  0.6321 -0.0507
  862TIP3    H126781   6.115   4.078  19.308  1.5574  0.0801 -0.1002
  862TIP3    H226782   6.085   3.951  19.384  2.1880  0.4208  0.7315
  863TIP3   OH226783   4.000   6.278  18.063 -0.5080 -0.5137 -0.6387
  863TIP3    H126784   3.959   6.214  18.005  0.1267 -0.7551 -0.8296
  863TIP3    H226785   3.928   6.310  18.118 -1.1120 -0.3008 -1.5350
  864TIP3   OH226786   5.230   5.342  17.835 -0.2437  0.0696  0.0768
  864TIP3    H126787   5.216   5.437  17.844 -1.0026 -0.0547  0.2791
  864TIP3    H226788   5.159   5.313  17.777  0.2788 -0.3015 -0.3853
  865TIP3   OH226789   3.479   0.133  17.788  0.0404 -0.2218 -0.3918
  865TIP3    H126790   3.515   0.222  17.792 -1.3478  0.3558 -0.0152
  865TIP3    H226791   3.391   0.144  17.752 -0.4641 -1.3377  0.4228
  866TIP3   OH226792   1.530   3.451  18.487  0.3047 -0.3841  0.3233
  866TIP3    H126793   1.555   3.529  18.438 -2.7086  0.9831  0.7539
  866TIP3    H226794   1.532   3.479  18.578 -0.9177 -0.7502  0.4742
  867TIP3   OH226795   0.417   4.104  18.374 -0.3846  0.8058  0.0394
  867TIP3    H126796   0.347   4.108  18.439 -1.6991  1.2474 -1.3457
  867TIP3    H226797   0.373   4.077  18.293  1.3187 -0.4087 -0.5421
  868TIP3   OH226798   1.109   3.941  18.444 -0.1435  0.3751  0.1768
  868TIP3    H126799   1.182   3.885  18.417  0.4278 -0.2626  2.7474
  868TIP3    H226800   1.090   3.995  18.367  0.1702 -2.3634 -2.0063
  869TIP3   OH226801   3.864   6.448  19.247 -0.1250  0.4872  0.2636
  869TIP3    H126802   3.895   6.532  19.212  1.2465  0.2577  0.8944
  869TIP3    H226803   3.942   6.404  19.279 -1.1217 -0.0223  2.1528
  870TIP3   OH226804   3.688   6.482  18.750  0.2840  0.4343 -0.4409
  870TIP3    H126805   3.747   6.477  18.675 -1.8040  0.7381 -2.2118
  870TIP3    H226806   3.649   6.395  18.757 -0.7228  0.8332 -0.7950
  871TIP3   OH226807   1.425   3.716  17.114  0.6626  0.0181 -0.6168
  871TIP3    H126808   1.367   3.724  17.038 -1.4480  0.0231  0.9013
  871TIP3    H226809   1.423   3.802  17.155  1.4090 -0.1179 -0.2805
  872TIP3   OH226810   7.261   4.150  16.915 -0.4297 -0.2100  0.6090
  872TIP3    H126811   7.224   4.152  17.004  0.6864 -2.7856  1.2277
  872TIP3    H226812   7.262   4.057  16.892 -0.4740  0.3680 -2.0530
  873TIP3   OH226813   3.907   3.777  17.676  0.0950  0.0142  0.1943
  873TIP3    H126814   4.002   3.780  17.686  0.0519 -0.1149  0.6781
  873TIP3    H226815   3.888   3.834  17.602  0.6937 -1.2025 -0.9326
  874TIP3   OH226816   3.387   4.965  18.718  0.0226 -0.2303 -0.0056
  874TIP3    H126817   3.474   4.977  18.757 -0.8312 -0.1303  1.9675
  874TIP3    H226818   3.383   5.032  18.649  1.6960 -0.6038 -0.5092
  875TIP3   OH226819   1.449   6.024  17.377 -0.0831  0.2319  0.0680
  875TIP3    H126820   1.510   6.068  17.437  0.4095 -0.3193 -0.0212
  875TIP3    H226821   1.494   6.024  17.293  0.0070 -0.6199  0.1149
  876TIP3   OH226822   6.737   1.765  16.585 -0.2224 -0.1167  0.0138
  876TIP3    H126823   6.659   1.726  16.546 -0.5135  0.8179 -0.3496
  876TIP3    H226824   6.809   1.713  16.551 -0.4217  0.9241 -2.1421
  877TIP3   OH226825   0.172   7.447  17.814 -0.0671  0.1232  0.1292
  877TIP3    H126826   0.139   7.487  17.734  0.6306  1.6951  0.5959
  877TIP3    H226827   0.101   7.389  17.843 -0.6542  0.1693 -1.1520
  878TIP3   OH226828   7.393   5.192  19.058 -0.3881  0.5084 -0.0169
  878TIP3    H126829   7.436   5.246  19.124 -1.3176 -0.0152  1.0658
  878TIP3    H226830   7.306   5.175  19.094 -0.4996 -0.7903 -0.8204
  879TIP3   OH226831   4.436   1.843  17.167 -0.0182  0.2852 -0.7916
  879TIP3    H126832   4.342   1.847  17.150 -0.4171  1.1882  1.3200
  879TIP3    H226833   4.467   1.932  17.150  0.1774  0.3547 -0.0820
  880TIP3   OH226834   1.626   1.431  16.401  0.1679 -0.1079  0.0254
  880TIP3    H126835   1.535   1.458  16.411  0.3017 -0.0054  1.1135
  880TIP3    H226836   1.672   1.511  16.376  0.2210  0.2236  1.1445
  881TIP3   OH226837   5.309   2.862  19.434 -0.1225  0.1064 -0.3577
  881TIP3    H126838   5.217   2.882  19.418 -0.1203 -0.4896 -1.1907
  881TIP3    H226839   5.355   2.941  19.405 -0.3254  0.1336 -0.6111
  882TIP3   OH226840   4.825   3.419  19.630 -0.9007 -0.0532  0.0408
  882TIP3    H126841   4.902   3.427  19.687 -1.2310 -0.4815  0.5568
  882TIP3    H226842   4.848   3.347  19.571 -1.5513 -1.3308  1.2811
  883TIP3   OH226843   6.775   6.222  19.515 -0.5004  0.4055  0.4758
  883TIP3    H126844   6.758   6.133  19.482  0.6559  1.3405 -3.1547
  883TIP3    H226845   6.708   6.276  19.473  0.0495  1.5414  1.0218
  884TIP3   OH226846   2.683   4.848  18.474 -0.0052  0.1841  0.0586
  884TIP3    H126847   2.646   4.760  18.465  0.5786  0.0851 -2.0328
  884TIP3    H226848   2.763   4.836  18.524 -0.5691 -0.2583  0.8774
  885TIP3   OH226849   1.573   3.302  17.747 -0.3498  0.2463  0.3322
  885TIP3    H126850   1.582   3.393  17.778  1.8154  0.5949 -1.1053
  885TIP3    H226851   1.487   3.300  17.705 -1.0414  1.2048  1.5867
  886TIP3   OH226852   0.911   0.570  17.053 -0.6951 -0.3322 -0.3855
  886TIP3    H126853   0.869   0.510  16.991 -0.5110 -0.1505 -0.6926
  886TIP3    H226854   0.848   0.642  17.063 -0.9966 -0.6634  0.1252
  887TIP3   OH226855   6.853   4.584  16.594  0.1437 -0.2141  0.2190
  887TIP3    H126856   6.925   4.568  16.533 -0.4302 -0.9164 -0.2879
  887TIP3    H226857   6.800   4.504  16.590 -1.4378  0.8285 -0.4777
  888TIP3   OH226858   5.267   4.391  18.426 -0.4306  0.0992 -0.4116
  888TIP3    H126859   5.250   4.321  18.490  0.1667 -0.3005 -0.6850
  888TIP3    H226860   5.352   4.426  18.451 -0.5507  0.4650 -0.5202
  889TIP3   OH226861   3.151   4.070  18.009  0.6510  0.2814 -0.1822
  889TIP3    H126862   3.155   3.984  18.051  1.4930  0.6739  0.5752
  889TIP3    H226863   3.204   4.127  18.065 -0.8925  1.5969  0.0428
  890TIP3   OH226864   1.623   4.232  19.077  0.6107  0.7709  0.3024
  890TIP3    H126865   1.683   4.258  19.006  1.1225  3.3963  1.5637
  890TIP3    H226866   1.560   4.304  19.082 -1.7650 -1.1689  0.0852
  891TIP3   OH226867   5.685   5.340  19.049  0.5002 -0.0446 -0.0516
  891TIP3    H126868   5.630   5.270  19.011 -1.3813  1.7086 -0.7461
  891TIP3    H226869   5.773   5.321  19.017  0.8330 -3.9873  2.4832
  892TIP3   OH226870   4.640   2.797  18.291  0.3979 -0.8464  0.0396
  892TIP3    H126871   4.647   2.712  18.335  1.3663 -0.1404  1.2870
  892TIP3    H226872   4.547   2.818  18.295  0.0980 -1.9481 -0.5201
  893TIP3   OH226873   5.347   5.422  19.083 -0.7088  0.4718 -0.1276
  893TIP3    H126874   5.367   5.509  19.119  1.2769  0.1260 -0.2495
  893TIP3    H226875   5.377   5.426  18.992  1.3556 -0.8810  0.4024
  894TIP3   OH226876   1.197   7.135  17.880  1.2370  0.3127 -0.0069
  894TIP3    H126877   1.179   7.225  17.907  1.0144  0.2260  0.1404
  894TIP3    H226878   1.263   7.143  17.811  0.2862  0.6699 -0.9040
  895TIP3   OH226879   2.749   5.613  17.372  0.2922 -0.0810  0.5230
  895TIP3    H126880   2.658   5.641  17.363  0.2910 -0.4654 -0.8316
  895TIP3    H226881   2.754   5.533  17.320  1.5984  0.3750 -0.0822
  896TIP3   OH226882   4.125   2.793  18.214 -0.5991  0.0874 -0.1548
  896TIP3    H126883   4.050   2.842  18.247  0.3376  1.3490  0.1623
  896TIP3    H226884   4.095   2.757  18.131 -0.7832  2.7321 -1.3410
  897TIP3   OH226885   6.110   3.626  18.789  0.6505 -0.5199  0.5807
  897TIP3    H126886   6.099   3.637  18.695 -1.2578 -1.4743  0.6449
  897TIP3    H226887   6.127   3.533  18.801  2.1369 -0.2053  1.1129
  898TIP3   OH226888   1.817   6.850  18.224 -0.1947  0.4564 -0.0669
  898TIP3    H126889   1.844   6.863  18.315 -1.1805 -0.1161  0.3206
  898TIP3    H226890   1.722   6.860  18.225 -0.3207 -0.5316 -0.8583
  899TIP3   OH226891   2.820   4.982  18.865 -0.0521  0.1036  0.1253
  899TIP3    H126892   2.840   4.929  18.942 -0.9083 -1.8613 -0.9264
  899TIP3    H226893   2.905   5.010  18.831  0.5738 -2.0494 -0.2206
  900TIP3   OH226894   4.102   1.475  19.241 -0.3953 -0.1512  0.3447
  900TIP3    H126895   4.191   1.480  19.206 -0.3046 -1.5224  0.2954
  900TIP3    H226896   4.105   1.528  19.321  0.4960 -0.2458  0.3882
  901TIP3   OH226897   3.817   2.569  18.107  0.3147  0.4113  0.3849
  901TIP3    H126898   3.887   2.504  18.112 -0.7019 -0.7837 -0.2112
  901TIP3    H226899   3.808   2.587  18.013  0.1714  0.9425  0.4988
  902TIP3   OH226900   7.281   4.726  17.625  0.2087  0.2302 -0.4822
  902TIP3    H126901   7.253   4.691  17.540 -0.1109  2.0232 -1.1459
  902TIP3    H226902   7.231   4.674  17.689 -0.9076  0.0593 -1.4551
  903TIP3   OH226903   7.453   0.677  19.453 -0.1157  0.0460  0.2173
  903TIP3    H126904   7.467   0.614  19.382 -1.7798 -0.3014  0.1430
  903TIP3    H226905   7.442   0.761  19.407 -0.1179  0.0047  0.1424
  904TIP3   OH226906   7.530   3.192  18.741  0.5422  0.5967 -0.6883
  904TIP3    H126907   7.471   3.151  18.677  0.3193  0.0598 -0.1543
  904TIP3    H226908   7.478   3.262  18.779 -0.0828 -0.4028  0.3830
  905TIP3   OH226909   3.943   1.972  19.245  0.2967 -0.1729 -0.2622
  905TIP3    H126910   3.848   1.984  19.252  0.3305 -0.6286  1.3121
  905TIP3    H226911   3.976   2.060  19.223 -0.3658  0.3447  0.7168
  906TIP3   OH226912   5.445   1.931  19.067 -0.3131  0.1428  0.2912
  906TIP3    H126913   5.522   1.939  19.011 -0.4326  1.2308  0.2613
  906TIP3    H226914   5.373   1.965  19.014 -1.1412 -2.3168 -0.2781
  907TIP3   OH226915   1.813   3.714  18.299 -0.0498 -0.5119  0.2922
  907TIP3    H126916   1.824   3.805  18.329  0.5999  0.6056 -2.8966
  907TIP3    H226917   1.719   3.702  18.293 -0.1423  0.2669  0.0087
  908TIP3   OH226918   5.348   1.985  17.373 -0.4989 -0.5940  0.8227
  908TIP3    H126919   5.275   1.926  17.390 -0.6330 -1.0128 -1.0182
  908TIP3    H226920   5.371   2.020  17.459 -3.4299  0.2558  1.3600
  909TIP3   OH226921   2.470   4.532  17.747  0.5992  0.4186 -0.2138
  909TIP3    H126922   2.385   4.562  17.778  0.3165 -0.7022  0.1681
  909TIP3    H226923   2.526   4.533  17.825  1.2144  2.0165 -0.6452
  910TIP3   OH226924   5.207   5.838  19.095 -0.0740  0.0602  0.2584
  910TIP3    H126925   5.124   5.877  19.125 -0.2182 -0.8714  1.1290
  910TIP3    H226926   5.223   5.878  19.010 -1.1555  0.6449  0.3130
  911TIP3   OH226927   1.210   2.468  18.216 -0.4457  0.1722 -0.5733
  911TIP3    H126928   1.216   2.559  18.246  2.5870 -0.3684  0.8889
  911TIP3    H226929   1.159   2.424  18.284 -0.6050  0.4899 -0.4824
  912TIP3   OH226930   4.308   1.388  18.601  0.4719 -0.0374  0.2408
  912TIP3    H126931   4.384   1.421  18.552  0.2565  2.2638  1.3184
  912TIP3    H226932   4.339   1.381  18.691 -0.5485  0.8443  0.6810
  913TIP3   OH226933   1.175   2.227  18.388 -0.1250 -0.1740 -0.3338
  913TIP3    H126934   1.173   2.162  18.458  1.4806  0.1127  0.0084
  913TIP3    H226935   1.083   2.246  18.371 -0.6805  1.6553  3.5241
  914TIP3   OH226936   3.389   6.492  18.311 -0.7396  0.1874 -0.0337
  914TIP3    H126937   3.408   6.435  18.386 -0.6867  0.2456 -0.0020
  914TIP3    H226938   3.429   6.576  18.334  1.0474 -0.3405 -0.9837
  915TIP3   OH226939   6.576   0.323  18.830 -0.6321 -0.1846  0.0547
  915TIP3    H126940   6.498   0.354  18.877 -0.6704 -0.3709  0.1145
  915TIP3    H226941   6.639   0.395  18.838 -0.8225 -0.0069 -0.0521
  916TIP3   OH226942   3.274   3.184  19.200 -0.6500  0.2500  0.4739
  916TIP3    H126943   3.313   3.097  19.193  0.3728  0.6626  0.8174
  916TIP3    H226944   3.343   3.238  19.239 -0.6863  1.6061 -1.2235
  917TIP3   OH226945   7.603   2.550  18.718  0.0796  0.3148 -0.0724
  917TIP3    H126946   7.531   2.570  18.778  0.4129  0.2540  0.3520
  917TIP3    H226947   7.677   2.600  18.752  0.7693 -1.1525  0.6652
  918TIP3   OH226948   6.974   0.732  19.306  0.5331 -0.4029  0.5699
  918TIP3    H126949   7.024   0.694  19.378 -0.2996 -0.4722  1.1323
  918TIP3    H226950   6.903   0.780  19.349  1.1944  1.2906 -0.1421
  919TIP3   OH226951   1.857   2.549  17.089  0.2305 -0.0411 -0.2712
  919TIP3    H126952   1.832   2.491  17.016 -0.0288  0.6716 -0.7536
  919TIP3    H226953   1.918   2.612  17.050  1.6826 -0.8592  0.5700
  920TIP3   OH226954   1.854   5.924  18.494 -0.4117 -0.2082  0.3950
  920TIP3    H126955   1.778   5.879  18.457  0.6554 -1.1733 -0.7328
  920TIP3    H226956   1.901   5.857  18.543  0.5921 -0.0743 -0.3459
  921TIP3   OH226957   0.535   6.898  19.259 -0.4114  0.5395  0.2241
  921TIP3    H126958   0.448   6.881  19.225 -0.5692  0.3252  0.7239
  921TIP3    H226959   0.551   6.990  19.238 -0.2380  0.2405 -0.9884
  922TIP3   OH226960   3.862   7.462  18.107  0.6093  0.5647 -0.0042
  922TIP3    H126961   3.851   7.556  18.122  1.8008  0.4343  2.0425
  922TIP3    H226962   3.849   7.451  18.013 -0.1286  2.6803 -0.2056
  923TIP3   OH226963   6.332   4.185  19.036 -0.0617  0.4718  0.4819
  923TIP3    H126964   6.253   4.211  19.082 -1.0164 -0.3524 -0.6418
  923TIP3    H226965   6.390   4.261  19.042 -2.0129  2.1886 -1.0437
  924TIP3   OH226966   5.888   0.875  16.437 -0.3794  0.2897 -1.0721
  924TIP3    H126967   5.981   0.856  16.444 -0.1426  1.7352  0.4107
  924TIP3    H226968   5.845   0.799  16.476  0.2719  0.3068 -0.2813
  925TIP3   OH226969   2.110   5.551  17.694 -0.4137 -0.1017 -0.1178
  925TIP3    H126970   2.200   5.574  17.671 -0.3848  2.7090  2.1832
  925TIP3    H226971   2.058   5.624  17.661 -1.2597  0.3361  2.0224
  926TIP3   OH226972   7.119   6.159  19.037  0.1781 -0.3562 -0.2085
  926TIP3    H126973   7.149   6.250  19.041 -1.0321  0.0152  1.4148
  926TIP3    H226974   7.036   6.163  18.990  0.3166 -0.6953 -0.4861
  927TIP3   OH226975   5.669   7.359  18.161  0.2130  0.0052  0.3122
  927TIP3    H126976   5.593   7.414  18.140  0.1126 -0.9908 -2.2405
  927TIP3    H226977   5.636   7.270  18.153  0.6708 -0.5317  3.2471
  928TIP3   OH226978   0.775   5.623  19.271  0.4667 -0.1084  0.7279
  928TIP3    H126979   0.835   5.583  19.209  0.2067  1.5738 -0.6998
  928TIP3    H226980   0.725   5.550  19.307  2.8961 -1.5098  1.5383
  929TIP3   OH226981   7.236   0.350  17.739 -0.0019  0.0218 -0.1986
  929TIP3    H126982   7.154   0.396  17.759 -0.4190 -0.6393 -0.3728
  929TIP3    H226983   7.284   0.411  17.683  1.0538  1.7802  2.4389
  930TIP3   OH226984   2.023   6.891  18.019  0.0618 -0.6247  0.1765
  930TIP3    H126985   1.958   6.862  18.082 -0.3359 -0.6908 -0.2565
  930TIP3    H226986   2.069   6.963  18.062 -1.6964  0.8415 -0.2851
  931TIP3   OH226987   2.519   1.439  17.945 -0.0098 -0.3957  0.5964
  931TIP3    H126988   2.455   1.402  18.005  0.3865 -0.5448  0.9299
  931TIP3    H226989   2.578   1.367  17.924  1.1879  0.1840  1.8150
  932TIP3   OH226990   5.627   7.491  17.738  0.2364  0.1983  0.1569
  932TIP3    H126991   5.660   7.567  17.785  0.6999  0.4391 -0.5335
  932TIP3    H226992   5.539   7.517  17.709 -0.4797 -0.3434  1.7643
  933TIP3   OH226993   0.838   7.530  19.152 -1.0038  0.0170 -0.1258
  933TIP3    H126994   0.890   7.588  19.097 -0.2126  0.2422  0.8162
  933TIP3    H226995   0.753   7.573  19.159  0.1577  2.2036  2.1803
  934TIP3   OH226996   7.313   0.397  18.241  0.1187  0.0120  0.2758
  934TIP3    H126997   7.318   0.455  18.317 -0.1144  1.6883 -0.9285
  934TIP3    H226998   7.402   0.365  18.228  0.2265  0.0018  1.0242
  935TIP3   OH226999   3.010   6.587  18.975 -0.4739 -0.5883 -0.3649
  935TIP3    H127000   2.939   6.594  19.038  0.0332  0.4733  0.1018
  935TIP3    H227001   2.968   6.550  18.896 -1.1892 -1.5354  0.4240
  936TIP3   OH227002   1.166   3.617  16.815 -0.0411 -0.2493 -0.4517
  936TIP3    H127003   1.070   3.622  16.824 -0.2051 -0.2885 -1.9548
  936TIP3    H227004   1.181   3.533  16.771  0.5378  0.5825 -1.8905
  937TIP3   OH227005   3.139   4.784  17.971 -0.2278 -0.0841 -0.0639
  937TIP3    H127006   3.170   4.765  18.059  1.1770  1.2441 -0.2182
  937TIP3    H227007   3.122   4.698  17.932 -0.6280 -0.6889  1.4009
  938TIP3   OH227008   4.014   4.907  18.429  0.2941 -0.5560 -0.3003
  938TIP3    H127009   4.087   4.948  18.475  0.7303 -1.7475  0.1032
  938TIP3    H227010   4.042   4.902  18.338 -0.1663  0.8905 -0.5615
  939TIP3   OH227011   0.197   7.340  18.860  0.0518  0.1940  0.7593
  939TIP3    H127012   0.217   7.433  18.850  1.7935 -0.3817 -2.1613
  939TIP3    H227013   0.260   7.308  18.925  0.9907  0.6575  0.0967
  940TIP3   OH227014   0.263   7.227  18.493  1.0002  0.2776 -0.0657
  940TIP3    H127015   0.230   7.316  18.494  0.6290  0.1371  0.4022
  940TIP3    H227016   0.315   7.221  18.413  0.5964  0.7549 -0.3619
  941TIP3   OH227017   6.090   6.145  17.921  0.2382 -0.1434  0.5859
  941TIP3    H127018   6.089   6.120  18.013  1.2015 -0.6570  0.4765
  941TIP3    H227019   6.062   6.236  17.920  1.3303  0.2244  1.5147
  942TIP3   OH227020   0.952   5.615  18.302  0.1041  0.0850  0.2927
  942TIP3    H127021   0.960   5.644  18.393  2.5421  1.0555 -0.1485
  942TIP3    H227022   1.029   5.652  18.258 -0.5474 -1.0684 -1.9868
  943TIP3   OH227023   3.841   7.356  17.487  0.1317 -0.0169 -0.5770
  943TIP3    H127024   3.922   7.315  17.517  0.3500  0.6819 -0.1722
  943TIP3    H227025   3.798   7.290  17.434  0.3464 -0.8560  0.2726
  944TIP3   OH227026   6.108   0.922  19.240  0.3195 -0.0215 -0.0465
  944TIP3    H127027   6.072   0.845  19.284  0.0824 -0.3327 -0.7756
  944TIP3    H227028   6.202   0.916  19.256  0.3742 -0.7919 -0.5853
  945TIP3   OH227029   0.466   6.821  16.547  0.6544 -0.2721  0.9717
  945TIP3    H127030   0.416   6.742  16.567  0.0179 -0.8349 -2.2691
  945TIP3    H227031   0.408   6.893  16.571  0.3310 -0.8105  1.8442
  946TIP3   OH227032   4.692   1.002  17.321 -0.2887 -0.0280 -0.6050
  946TIP3    H127033   4.684   1.021  17.415  0.5586  0.9235 -0.7141
  946TIP3    H227034   4.601   0.997  17.291 -0.5752  0.8616  0.0451
  947TIP3   OH227035   4.459   2.291  19.407 -0.3669 -0.2615  0.0444
  947TIP3    H127036   4.429   2.317  19.320 -1.0992  0.3689  0.4711
  947TIP3    H227037   4.391   2.323  19.467 -0.2532 -1.3478  0.7867
  948TIP3   OH227038   2.032   4.521  17.087 -0.3352 -0.7770  0.4990
  948TIP3    H127039   2.096   4.550  17.152  0.2882  1.0958 -0.8675
  948TIP3    H227040   2.037   4.586  17.018 -1.8941 -2.0136 -0.8568
  949TIP3   OH227041   3.099   6.149  16.895 -0.5672  0.3251  0.2550
  949TIP3    H127042   3.081   6.172  16.804  1.2743  2.7403  0.3963
  949TIP3    H227043   3.027   6.187  16.945 -0.8134  0.2838 -0.0648
  950TIP3   OH227044   5.549   3.599  17.654  0.0596  0.2523 -0.1474
  950TIP3    H127045   5.485   3.663  17.624 -1.6972 -0.4280  1.9199
  950TIP3    H227046   5.568   3.546  17.576  0.5638  2.3825 -1.5725
  951TIP3   OH227047   7.555   7.386  17.696  0.0376  0.5387  0.4819
  951TIP3    H127048   7.544   7.300  17.737 -2.1451  0.1564 -0.7642
  951TIP3    H227049   7.591   7.367  17.610 -2.6525  0.5829 -0.7342
  952TIP3   OH227050   2.057   6.747  17.056 -0.4445  0.0920 -0.2136
  952TIP3    H127051   2.009   6.669  17.084  2.3329 -1.2360  1.2627
  952TIP3    H227052   2.060   6.740  16.961  1.3268 -2.8130 -0.0924
  953TIP3   OH227053   3.732   4.548  18.906  0.0027 -0.6170 -0.3967
  953TIP3    H127054   3.730   4.576  18.997  0.1273  0.4788 -0.7234
  953TIP3    H227055   3.654   4.493  18.896 -0.0705 -0.6585  0.3298
  954TIP3   OH227056   0.064   0.194  18.969 -0.0000  0.1629 -0.3039
  954TIP3    H127057   0.100   0.277  19.000 -0.2332  0.6073 -1.1686
  954TIP3    H227058   0.029   0.152  19.047  0.1108  0.8869  0.1466
  955TIP3   OH227059   0.633   0.997  18.703 -0.0430 -0.0565 -0.1288
  955TIP3    H127060   0.572   1.051  18.753 -1.2304 -1.1797 -0.3061
  955TIP3    H227061   0.710   1.052  18.692 -0.0935  0.5784  2.1246
  956TIP3   OH227062   0.609   6.625  19.232  0.6604  0.1097 -0.0482
  956TIP3    H127063   0.540   6.559  19.231  0.1842  0.5860  0.4075
  956TIP3    H227064   0.563   6.708  19.247  1.4877  0.1880  2.7624
  957TIP3   OH227065   6.115   4.520  18.928  0.0743 -0.6449  0.3990
  957TIP3    H127066   6.062   4.584  18.974  0.1671 -0.8446  0.7846
  957TIP3    H227067   6.199   4.519  18.973  0.3134 -0.5363 -0.0336
  958TIP3   OH227068   7.065   3.653  17.173 -0.3966 -0.1134  0.1752
  958TIP3    H127069   7.046   3.739  17.135  1.7950  1.4885  2.3538
  958TIP3    H227070   7.031   3.590  17.109 -0.2854  2.3434 -2.5053
  959TIP3   OH227071   0.128   5.078  18.738  0.2676  0.0107  0.4466
  959TIP3    H127072   0.130   4.987  18.709  2.8154 -0.2810  1.3182
  959TIP3    H227073   0.039   5.107  18.718 -0.3367 -2.3671 -0.7062
  960TIP3   OH227074   0.464   1.793  18.364 -0.0736 -0.3270  0.5707
  960TIP3    H127075   0.484   1.845  18.442  0.1721 -0.8686  0.8740
  960TIP3    H227076   0.427   1.712  18.398 -1.4121  0.0317  0.0682
  961TIP3   OH227077   0.844   2.767  18.134 -0.3783  0.1770  0.0981
  961TIP3    H127078   0.843   2.672  18.127 -1.6897  0.2213 -0.7030
  961TIP3    H227079   0.933   2.792  18.111  0.0161 -0.8610  0.4534
  962TIP3   OH227080   5.553   6.425  17.772 -0.5395  0.4779 -0.2700
  962TIP3    H127081   5.483   6.371  17.734 -1.6482  0.5567  1.5510
  962TIP3    H227082   5.507   6.501  17.810  0.7554  1.5329 -0.7408
  963TIP3   OH227083   0.227   3.506  18.122  0.0307 -0.4542  0.6879
  963TIP3    H127084   0.300   3.464  18.076  0.1313  1.0915 -0.6464
  963TIP3    H227085   0.148   3.470  18.081  0.0762 -0.6999  0.8137
  964TIP3   OH227086   6.139   6.041  18.186 -0.1081  0.0972 -0.0258
  964TIP3    H127087   6.139   6.098  18.262 -2.3458  1.0100 -0.6274
  964TIP3    H227088   6.050   6.006  18.181  0.6761 -1.9670 -0.7819
  965TIP3   OH227089   3.524   5.925  18.748 -0.6060 -0.0438 -0.2008
  965TIP3    H127090   3.503   5.856  18.686  0.2978 -0.0072 -0.5620
  965TIP3    H227091   3.491   5.893  18.832 -0.0095 -1.0149 -0.3256
  966TIP3   OH227092   0.511   0.096  18.864  0.0718 -0.6714  0.4494
  966TIP3    H127093   0.541   0.043  18.789 -1.4063 -0.4601 -0.3182
  966TIP3    H227094   0.541   0.184  18.844 -1.1925 -0.4131 -0.4409
  967TIP3   OH227095   5.752   5.910  18.424 -0.7346 -0.6210 -0.2355
  967TIP3    H127096   5.706   5.832  18.455 -0.7430  0.3084  2.2825
  967TIP3    H227097   5.686   5.980  18.428  0.0316  0.0798  0.3017
  968TIP3   OH227098   3.216   3.245  17.514 -0.5790 -0.2449 -0.4999
  968TIP3    H127099   3.149   3.241  17.582  1.2663 -0.6184  1.4032
  968TIP3    H227100   3.251   3.334  17.519  1.5934 -1.0951  1.2189
  969TIP3   OH227101   0.331   6.482  18.005  0.0090 -0.1955 -0.5737
  969TIP3    H127102   0.266   6.531  18.055  0.0860 -0.6764  0.0072
  969TIP3    H227103   0.343   6.401  18.054  1.4232  0.0955 -0.4073
  970TIP3   OH227104   2.479   3.043  18.863  0.3126  0.3162 -0.1545
  970TIP3    H127105   2.517   3.040  18.951  1.8101  0.7009 -0.7433
  970TIP3    H227106   2.415   3.114  18.866  2.1895  2.1077 -0.0033
  971TIP3   OH227107   3.006   2.451  16.694 -0.5171  0.0100 -0.3885
  971TIP3    H127108   2.982   2.543  16.684  0.8369  0.2220 -2.3016
  971TIP3    H227109   3.000   2.435  16.788 -2.4675  1.5421 -0.1857
  972TIP3   OH227110   7.395   3.098  17.538 -0.0317 -0.2478  0.2048
  972TIP3    H127111   7.461   3.078  17.604  2.4339 -1.2396 -2.3267
  972TIP3    H227112   7.417   3.187  17.508 -1.2204  0.2543  0.7318
  973TIP3   OH227113   4.198   2.764  17.407  0.4360 -0.0812 -0.2106
  973TIP3    H127114   4.204   2.738  17.499 -0.5461 -0.2041 -0.1708
  973TIP3    H227115   4.104   2.760  17.387  0.7382 -1.0541 -1.5067
  974TIP3   OH227116   6.703   2.071  16.869 -0.3361 -0.0114 -0.4664
  974TIP3    H127117   6.679   2.155  16.830 -0.1055  0.0023 -0.5752
  974TIP3    H227118   6.781   2.043  16.822  0.7563  0.6615  0.8665
  975TIP3   OH227119   1.656   6.898  16.786 -0.3235  0.0057 -0.5693
  975TIP3    H127120   1.571   6.925  16.820  0.3141  0.7961  0.4604
  975TIP3    H227121   1.702   6.981  16.768  1.5638 -0.2642  2.3564
  976TIP3   OH227122   1.511   5.206  19.314  0.1277 -0.1996 -0.1489
  976TIP3    H127123   1.541   5.280  19.262  0.4068  0.7651  1.3375
  976TIP3    H227124   1.577   5.197  19.384 -1.1836 -0.2684  1.1261
  977TIP3   OH227125   1.899   4.785  18.202 -0.0740  0.0576  0.3650
  977TIP3    H127126   1.947   4.802  18.121  2.0310 -1.6642  1.1705
  977TIP3    H227127   1.829   4.726  18.175  1.0807 -1.1401 -0.1101
  978TIP3   OH227128   1.019   1.665  17.849  0.3088  0.6371  0.7913
  978TIP3    H127129   0.930   1.648  17.881  0.4564  0.7577  1.2786
  978TIP3    H227130   1.067   1.692  17.927  0.7164  0.7940  0.4853
  979TIP3   OH227131   0.846   6.134  18.645  0.1896 -0.5349  0.0878
  979TIP3    H127132   0.778   6.148  18.711  0.1345 -0.2749 -0.0233
  979TIP3    H227133   0.896   6.215  18.645 -0.2260 -0.2648 -0.6739
  980TIP3   OH227134   2.509   4.962  16.753  0.7373  0.4088  0.3662
  980TIP3    H127135   2.487   4.873  16.782 -0.5623 -0.0475 -1.7651
  980TIP3    H227136   2.580   4.950  16.691 -0.3205  0.6572 -0.9406
  981TIP3   OH227137   1.155   3.836  18.716  0.2761 -0.6344  0.7246
  981TIP3    H127138   1.148   3.865  18.626  2.0360 -1.4209  0.2789
  981TIP3    H227139   1.098   3.895  18.765 -1.6483 -0.9385 -1.0145
  982TIP3   OH227140   3.376   0.959  17.093  1.1771  0.0108  0.2743
  982TIP3    H127141   3.402   1.029  17.152  2.0286  1.5221 -1.7819
  982TIP3    H227142   3.342   1.003  17.016  0.8409 -1.8650 -0.7210
  983TIP3   OH227143   7.288   3.103  19.362 -0.2447  0.2386  0.1364
  983TIP3    H127144   7.273   3.050  19.440 -0.3863  0.6611  0.4042
  983TIP3    H227145   7.200   3.122  19.329 -0.1736 -0.2178 -0.3191
  984TIP3   OH227146   6.619   0.023  19.217  0.3723 -0.1417 -0.1183
  984TIP3    H127147   6.552  -0.001  19.154 -0.7625 -1.1600  1.3851
  984TIP3    H227148   6.637   0.115  19.200 -1.8434  0.3275 -0.2401
  985TIP3   OH227149   1.924   3.538  18.961 -0.3310  0.0620  0.0527
  985TIP3    H127150   1.963   3.567  18.878  0.8179 -0.7893  0.2701
  985TIP3    H227151   1.900   3.620  19.005 -0.2256  0.5550 -0.7799
  986TIP3   OH227152   1.542   1.759  17.280  0.1191  0.0326 -0.2939
  986TIP3    H127153   1.489   1.732  17.205 -0.8601  1.3555 -0.1357
  986TIP3    H227154   1.621   1.796  17.241 -0.6011  1.1753 -0.7438
  987TIP3   OH227155   7.003   1.401  17.903  0.2227 -0.0972 -0.6281
  987TIP3    H127156   6.994   1.426  17.995  1.6734 -0.7789 -0.2790
  987TIP3    H227157   6.931   1.446  17.859 -0.8094 -0.1715  0.9111
  988TIP3   OH227158   1.125   4.623  18.733  0.2504 -0.8114 -0.3969
  988TIP3    H127159   1.100   4.632  18.824  0.7716  1.6799 -0.4258
  988TIP3    H227160   1.044   4.600  18.687 -0.7594  1.1014  0.3066
  989TIP3   OH227161   2.243   7.312  19.284  0.4493  0.4950  0.1415
  989TIP3    H127162   2.334   7.283  19.272  0.1759 -0.3185 -0.0188
  989TIP3    H227163   2.232   7.315  19.379  0.8638  1.3266  0.1732
  990TIP3   OH227164   6.310   4.822  17.661 -0.1137  0.3124 -0.1422
  990TIP3    H127165   6.246   4.829  17.731  1.2515  1.2111  1.0858
  990TIP3    H227166   6.363   4.746  17.685  0.0400  0.3181 -0.4627
  991TIP3   OH227167   2.708   2.986  17.729  0.5207  0.1269 -0.3193
  991TIP3    H127168   2.669   2.909  17.770  2.1010 -0.9883 -0.8051
  991TIP3    H227169   2.634   3.029  17.684 -0.3863 -1.1389 -0.0984
  992TIP3   OH227170   5.818   4.461  16.784 -0.1845  0.2385  0.1195
  992TIP3    H127171   5.844   4.372  16.808 -0.0635  0.8155  2.2576
  992TIP3    H227172   5.728   4.468  16.814 -1.1963  0.0053 -2.5276
  993TIP3   OH227173   5.422   5.024  17.396  0.2679  0.0345  0.1534
  993TIP3    H127174   5.348   5.038  17.337  0.2269  2.2294  0.6464
  993TIP3    H227175   5.499   5.027  17.338  0.0574 -1.6700 -0.2738
  994TIP3   OH227176   4.327   4.253  18.419 -0.1193 -0.1882 -0.0837
  994TIP3    H127177   4.265   4.319  18.450  0.4220 -0.2051  1.0957
  994TIP3    H227178   4.302   4.173  18.466 -0.3203 -0.6600 -0.9620
  995TIP3   OH227179   6.987   4.764  17.920  0.3812  0.3818  0.7188
  995TIP3    H127180   6.936   4.801  17.848 -0.0607 -0.0804  0.7939
  995TIP3    H227181   6.930   4.699  17.960  0.9989 -0.0808  0.8609
  996TIP3   OH227182   7.174   4.895  17.235 -0.3988 -0.2812 -0.4952
  996TIP3    H127183   7.226   4.850  17.302 -1.0364  0.1407  0.2979
  996TIP3    H227184   7.118   4.826  17.199  0.9146 -0.8273 -1.6166
  997TIP3   OH227185   4.947   0.756  18.349 -0.1835  0.2413 -1.4494
  997TIP3    H127186   4.980   0.671  18.379 -1.0272 -0.5860 -2.7604
  997TIP3    H227187   4.945   0.749  18.253 -0.4557  1.6793 -1.5794
  998TIP3   OH227188   1.232   4.832  17.258  0.0834 -0.3198  0.1981
  998TIP3    H127189   1.201   4.875  17.178 -0.8649 -0.3710  0.5191
  998TIP3    H227190   1.295   4.893  17.295  0.0513 -0.0031 -0.2575
  999TIP3   OH227191   3.303   0.717  17.195  0.7371 -0.2703 -0.0064
  999TIP3    H127192   3.248   0.693  17.121  0.1726 -0.2206  0.3981
  999TIP3    H227193   3.342   0.801  17.170  0.7569 -0.3782 -0.3504
 1000TIP3   OH227194   3.376   3.504  16.751 -0.1631  0.4211 -0.1621
 1000TIP3    H127195   3.407   3.594  16.742 -0.1398  0.5925  1.4154
 1000TIP3    H227196   3.298   3.500  16.696  0.6533  0.9571 -1.4303
 1001TIP3   OH227197   4.071   3.930  17.040 -0.0938 -0.1513 -0.1109
 1001TIP3    H127198   4.014   3.853  17.042  0.0082 -0.2201  0.5651
 1001TIP3    H227199   4.159   3.894  17.034 -0.0757 -0.0704 -0.3314
 1002TIP3   OH227200   1.980   4.398  17.508 -0.3902 -0.5537 -0.2666
 1002TIP3    H127201   2.012   4.484  17.535  1.0907 -1.4076  0.8523
 1002TIP3    H227202   1.960   4.408  17.415 -0.3816  1.0251 -0.1251
 1003TIP3   OH227203   6.986   3.159  18.876 -0.2117  0.0206  0.0270
 1003TIP3    H127204   6.920   3.209  18.925 -0.1865  0.3164 -0.2446
 1003TIP3    H227205   6.995   3.078  18.926  0.0502  0.4558  0.6971
 1004TIP3   OH227206   2.489   1.674  18.273  0.1012 -0.3312  0.4945
 1004TIP3    H127207   2.403   1.662  18.233  0.1332  0.2023  0.2595
 1004TIP3    H227208   2.493   1.768  18.293  1.4250  0.0680 -1.3393
 1005TIP3   OH227209   5.641   2.586  16.955  0.3556 -0.4038  0.1206
 1005TIP3    H127210   5.630   2.508  17.011  1.1745 -0.2873  0.4489
 1005TIP3    H227211   5.583   2.570  16.881  0.2006 -1.1416  0.3896
 1006TIP3   OH227212   0.232   1.189  19.062  0.1651  0.1447  0.4611
 1006TIP3    H127213   0.211   1.096  19.055  1.9331 -0.2276 -0.7461
 1006TIP3    H227214   0.260   1.201  19.152 -1.3326 -0.1675  1.0012
 1007TIP3   OH227215   6.396   2.762  17.402 -0.3374 -0.2356  0.3225
 1007TIP3    H127216   6.358   2.674  17.401  0.3170 -0.5755  1.7512
 1007TIP3    H227217   6.322   2.819  17.421 -0.5030 -0.6826  1.0950
 1008TIP3   OH227218   2.384   1.460  18.940 -0.1455 -0.2460 -0.4508
 1008TIP3    H127219   2.457   1.400  18.926 -0.4146 -0.9750  1.1176
 1008TIP3    H227220   2.425   1.546  18.949  0.3275 -0.3302 -1.6689
 1009TIP3   OH227221   1.376   2.218  18.141  0.8319 -0.5574 -0.1035
 1009TIP3    H127222   1.336   2.304  18.157  1.2124 -0.9767  4.4531
 1009TIP3    H227223   1.311   2.170  18.092 -0.8375  1.3108  0.1561
 1010TIP3   OH227224   4.437   0.881  18.270  0.2688  0.7133  0.5191
 1010TIP3    H127225   4.459   0.789  18.256  1.1248  0.9733  0.0882
 1010TIP3    H227226   4.349   0.879  18.307 -0.3241 -0.2127 -0.8505
 1011TIP3   OH227227   6.999   4.913  19.172 -0.9767  0.1142  0.1072
 1011TIP3    H127228   7.086   4.954  19.177 -0.3648 -1.2672  1.3307
 1011TIP3    H227229   6.998   4.850  19.244 -2.0740 -1.6733 -1.4079
 1012TIP3   OH227230   7.229   5.788  18.826 -0.1692  0.0202 -0.0577
 1012TIP3    H127231   7.234   5.713  18.885  0.3495 -0.9032 -1.2403
 1012TIP3    H227232   7.147   5.776  18.779  0.4990 -0.5413 -1.1458
 1013TIP3   OH227233   5.328   6.842  19.128 -0.2759  0.2053 -0.3478
 1013TIP3    H127234   5.404   6.832  19.185  0.4322  0.0728 -1.3038
 1013TIP3    H227235   5.295   6.753  19.115 -0.2560  0.2081 -0.4114
 1014TIP3   OH227236   7.292   6.575  17.517 -0.3339  0.1541 -0.3591
 1014TIP3    H127237   7.361   6.631  17.552 -0.3521 -0.2042  0.2677
 1014TIP3    H227238   7.227   6.571  17.587 -0.7568  0.0869 -0.7545
 1015TIP3   OH227239   4.465   1.852  18.084 -0.2456  0.2154 -0.1523
 1015TIP3    H127240   4.515   1.877  18.006 -1.5198  0.9741 -0.7631
 1015TIP3    H227241   4.377   1.888  18.069 -1.2265 -1.7731  0.5076
 1016TIP3   OH227242   6.920   1.707  18.828  0.0220 -0.1747 -0.1103
 1016TIP3    H127243   6.875   1.708  18.912  0.2052  0.6780 -0.0070
 1016TIP3    H227244   7.013   1.700  18.851  0.0637 -0.0678 -0.2423
 1017TIP3   OH227245   3.083   5.668  18.576  0.3646  1.1540  0.0269
 1017TIP3    H127246   3.104   5.672  18.670 -4.1527 -2.6458  1.5647
 1017TIP3    H227247   2.998   5.711  18.568 -0.2327 -0.2515 -1.9075
 1018TIP3   OH227248   1.206   3.040  18.764  0.4093  0.4609  0.6695
 1018TIP3    H127249   1.136   3.015  18.703  0.8525  1.4747 -0.2806
 1018TIP3    H227250   1.203   3.135  18.768  1.1043  0.4682  1.3850
 1019TIP3   OH227251   7.384   4.445  17.583 -0.0305  0.3471 -0.1401
 1019TIP3    H127252   7.288   4.442  17.586 -0.1397 -0.1230 -2.4063
 1019TIP3    H227253   7.412   4.375  17.642 -1.0626  0.3986  0.4424
 1020TIP3   OH227254   7.003   7.626  19.345  0.5543  0.4006  0.3029
 1020TIP3    H127255   7.011   7.641  19.251 -0.3768  1.0811  0.3053
 1020TIP3    H227256   6.919   7.581  19.355  1.2077 -0.7620  0.7192
 1021TIP3   OH227257   7.499   5.005  19.587  0.1089 -0.4697  0.2885
 1021TIP3    H127258   7.571   4.942  19.584 -1.2476 -2.2696  2.3966
 1021TIP3    H227259   7.498   5.035  19.678 -0.9807  0.5310 -0.0404
 1022TIP3   OH227260   0.071   3.411  17.623 -0.0801  0.0833  0.4204
 1022TIP3    H127261  -0.013   3.432  17.664 -0.4704 -1.0510  0.2488
 1022TIP3    H227262   0.053   3.412  17.529  0.0504 -0.3323  0.3870
 1023TIP3   OH227263   1.940   0.201  17.629 -0.6424  0.1640 -0.2914
 1023TIP3    H127264   1.889   0.133  17.673 -0.9504  0.7889  0.3369
 1023TIP3    H227265   2.026   0.197  17.670 -0.1868 -0.8127 -1.2725
 1024TIP3   OH227266   1.320   0.542  17.684 -0.2242  0.0409  0.8941
 1024TIP3    H127267   1.368   0.608  17.733  2.1467  0.0101 -1.1629
 1024TIP3    H227268   1.287   0.589  17.607  0.2614 -0.8260  0.1319
 1025TIP3   OH227269   6.937   7.654  16.562 -0.4618  0.3480  0.1072
 1025TIP3    H127270   6.843   7.664  16.575 -0.7903  0.5726 -2.1067
 1025TIP3    H227271   6.951   7.560  16.561 -1.2250  0.1783 -2.5787
 1026TIP3   OH227272   2.309   4.627  16.950  0.0198 -0.3655 -0.0603
 1026TIP3    H127273   2.399   4.612  16.923 -0.0102 -0.1604 -0.2775
 1026TIP3    H227274   2.309   4.612  17.045  0.5061  0.6760  0.1219
 1027TIP3   OH227275   1.580   4.028  18.047 -0.2567  0.2150 -0.0074
 1027TIP3    H127276   1.649   3.990  17.993 -0.0133 -0.1238  0.5310
 1027TIP3    H227277   1.627   4.068  18.120 -0.5401  1.1818 -0.3442
 1028TIP3   OH227278   6.372   1.680  18.925  0.0238  0.0895  0.3575
 1028TIP3    H127279   6.423   1.632  18.989  0.5142  0.9454  0.6144
 1028TIP3    H227280   6.416   1.764  18.916  0.0079 -0.0274 -1.1502
 1029TIP3   OH227281   3.308   6.929  18.037 -0.0120 -0.7725  0.3432
 1029TIP3    H127282   3.384   6.893  17.990  0.1501  0.7582 -0.6254
 1029TIP3    H227283   3.278   6.856  18.092  0.8305 -2.0955 -0.8698
 1030TIP3   OH227284   7.579   4.789  16.704  0.3278  0.0191  0.3276
 1030TIP3    H127285   7.671   4.777  16.726  0.1176  1.0997  1.9688
 1030TIP3    H227286   7.580   4.822  16.613  1.3657 -2.3128 -0.5706
 1031TIP3   OH227287   0.435   5.104  18.650  0.6896 -0.1205 -0.5716
 1031TIP3    H127288   0.404   5.171  18.590  0.6564  0.8548  0.4954
 1031TIP3    H227289   0.357   5.074  18.696  0.2857 -2.6843 -2.6792
 1032TIP3   OH227290   3.397   3.091  17.367  0.3662  0.2610 -0.5497
 1032TIP3    H127291   3.334   3.157  17.393 -0.5202 -1.2715  1.4614
 1032TIP3    H227292   3.377   3.075  17.274 -1.4125  0.6762 -0.2818
 1033TIP3   OH227293   3.889   4.735  18.151  0.2495  0.0560 -0.0297
 1033TIP3    H127294   3.958   4.785  18.110  0.7377 -0.2942  0.3565
 1033TIP3    H227295   3.842   4.693  18.078  2.4558 -2.3579 -0.2010
 1034TIP3   OH227296   1.335   6.278  17.700  0.1504  0.8905 -0.1866
 1034TIP3    H127297   1.250   6.254  17.665  0.7014  0.3631 -1.2232
 1034TIP3    H227298   1.323   6.367  17.735 -0.8712  0.7180 -0.0756
 1035TIP3   OH227299   0.188   3.733  17.423 -0.5226  0.5731 -0.0037
 1035TIP3    H127300   0.190   3.643  17.393 -0.1328  0.6150 -0.1131
 1035TIP3    H227301   0.200   3.785  17.344 -1.7427  0.7567 -0.0854
 1036TIP3   OH227302   2.480   3.728  18.306 -0.1932  0.0698 -0.3145
 1036TIP3    H127303   2.410   3.788  18.281 -0.9593 -0.3761  0.7108
 1036TIP3    H227304   2.437   3.660  18.357  1.1213  0.2653  1.1263
 1037TIP3   OH227305   0.768   7.351  17.777 -0.3575  0.1867 -0.6128
 1037TIP3    H127306   0.853   7.386  17.802  0.6198 -1.2766 -1.6819
 1037TIP3    H227307   0.705   7.410  17.817  1.1597  2.2364 -1.0826
 1038TIP3   OH227308   3.154   5.317  16.741 -0.0684 -0.1314 -0.0887
 1038TIP3    H127309   3.099   5.305  16.818  3.2119 -2.1055  2.1691
 1038TIP3    H227310   3.162   5.412  16.731  1.4454  0.2802  3.6902
 1039TIP3   OH227311   0.072   5.409  19.287 -0.3515  0.0217  0.0645
 1039TIP3    H127312   0.079   5.345  19.216 -0.8136  0.4666 -0.3890
 1039TIP3    H227313   0.056   5.492  19.243  0.6648  0.5379  0.6167
 1040TIP3   OH227314   4.416   5.233  16.920  0.0565 -0.4453 -0.3587
 1040TIP3    H127315   4.381   5.225  16.831  0.5448  0.4500 -0.6419
 1040TIP3    H227316   4.339   5.223  16.976 -0.1184 -1.9142 -0.8369
 1041TIP3   OH227317   3.688   4.321  18.008  0.3268 -0.0190 -0.1130
 1041TIP3    H127318   3.626   4.391  17.987 -2.0778 -2.1334 -0.5579
 1041TIP3    H227319   3.724   4.294  17.924  0.0773 -0.3170 -0.1265
 1042TIP3   OH227320   1.550   1.167  16.365 -0.2027 -0.4318  0.0733
 1042TIP3    H127321   1.458   1.177  16.338 -0.0827 -1.9346 -1.0240
 1042TIP3    H227322   1.583   1.257  16.370 -1.6032  0.1138  0.0103
 1043TIP3   OH227323   4.781   2.455  18.185 -0.5382  0.0932 -0.4536
 1043TIP3    H127324   4.771   2.491  18.273  0.3823  1.2165 -0.7790
 1043TIP3    H227325   4.756   2.363  18.193  0.2844 -0.0226  1.1511
 1044TIP3   OH227326   2.270   3.677  17.419 -0.0299  0.5134 -0.1431
 1044TIP3    H127327   2.187   3.714  17.387 -0.5564 -0.2481  0.3032
 1044TIP3    H227328   2.308   3.634  17.343 -0.5362  0.0132 -0.1214
 1045TIP3   OH227329   1.782   3.814  18.640 -0.0001  0.2747  0.4263
 1045TIP3    H127330   1.749   3.811  18.730 -1.2668 -1.5955 -0.0466
 1045TIP3    H227331   1.871   3.848  18.648  0.8796 -2.2473  2.7326
 1046TIP3   OH227332   4.227   6.720  18.001  0.0990 -0.2148  0.0451
 1046TIP3    H127333   4.201   6.639  17.956  0.5927 -0.8840  0.9284
 1046TIP3    H227334   4.278   6.690  18.076  1.1075  0.9637 -0.1446
 1047TIP3   OH227335   0.365   0.530  18.389 -0.1216 -0.0375 -0.3521
 1047TIP3    H127336   0.372   0.607  18.333 -1.6943  0.2376 -0.2133
 1047TIP3    H227337   0.373   0.456  18.329 -2.9023  0.2318 -1.2249
 1048TIP3   OH227338   1.090   0.401  19.033 -0.3564 -0.1974  0.2530
 1048TIP3    H127339   1.082   0.321  19.086 -0.1785 -0.0795  0.4617
 1048TIP3    H227340   1.125   0.466  19.094 -0.9146  0.1582  0.1972
 1049TIP3   OH227341   0.692   1.836  17.659  0.3484  0.1370  0.0524
 1049TIP3    H127342   0.787   1.835  17.648  0.3014  1.6690 -0.7122
 1049TIP3    H227343   0.666   1.744  17.648  1.8303 -0.5057  1.4128
 1050TIP3   OH227344   0.304   5.501  19.387  0.1694  0.0981 -0.3565
 1050TIP3    H127345   0.218   5.460  19.387 -0.5149  1.4436 -1.7206
 1050TIP3    H227346   0.339   5.484  19.475 -1.4803 -0.4755  0.2148
 1051TIP3   OH227347   7.007   2.885  17.667  0.4095 -0.2402  0.0276
 1051TIP3    H127348   6.967   2.803  17.696 -0.5921  0.1427 -0.2228
 1051TIP3    H227349   6.981   2.949  17.733  2.7055 -0.4461  1.2274
 1052TIP3   OH227350   1.036   0.703  17.974 -0.0630  0.3694  0.2490
 1052TIP3    H127351   1.064   0.706  18.065 -0.1122 -0.6097  0.3038
 1052TIP3    H227352   0.961   0.645  17.974 -1.1806  1.7495 -0.1491
 1053TIP3   OH227353   3.336   4.835  18.445  0.3936 -0.0864 -0.6087
 1053TIP3    H127354   3.425   4.813  18.474  0.3218 -0.2020 -0.4717
 1053TIP3    H227355   3.340   4.927  18.421  0.5500 -0.0902 -0.5989
 1054TIP3   OH227356   2.656   2.480  18.336 -0.0683  0.1244 -0.1261
 1054TIP3    H127357   2.574   2.525  18.315 -0.9838 -1.3859  0.0775
 1054TIP3    H227358   2.642   2.443  18.423  1.2239  0.6899  0.3507
 1055TIP3   OH227359   6.125   3.330  18.793 -0.4235  0.0713  0.2933
 1055TIP3    H127360   6.094   3.326  18.883 -1.0324  0.1175  0.0890
 1055TIP3    H227361   6.088   3.251  18.752  0.9196 -0.6539  0.4065
 1056TIP3   OH227362   6.429   6.642  16.924  0.2703 -0.4162  0.1657
 1056TIP3    H127363   6.418   6.693  16.844  1.7094 -0.2181  0.0816
 1056TIP3    H227364   6.345   6.597  16.935 -0.4164  0.6060 -0.7035
 1057TIP3   OH227365   0.620   5.849  18.030 -0.1725 -0.3744  0.1404
 1057TIP3    H127366   0.545   5.876  17.978 -2.1844 -0.2932  2.8975
 1057TIP3    H227367   0.693   5.902  17.997 -1.5453  0.3932 -1.8211
 1058TIP3   OH227368   5.798   5.966  17.941 -0.1088 -0.6018  0.0527
 1058TIP3    H127369   5.705   5.959  17.963 -0.0663  0.3151  0.5670
 1058TIP3    H227370   5.840   6.000  18.020  0.7520 -1.4675 -0.0088
 1059TIP3   OH227371   6.687   7.085  17.810 -0.2488  0.3323  0.2286
 1059TIP3    H127372   6.664   7.156  17.869 -0.8421  0.3695 -0.0386
 1059TIP3    H227373   6.752   7.123  17.751  0.6999  0.1617  1.1346
 1060TIP3   OH227374   4.357   1.385  19.447 -0.3555 -0.4462 -0.5436
 1060TIP3    H127375   4.312   1.395  19.532  0.8051  0.4337 -0.0082
 1060TIP3    H227376   4.384   1.293  19.445  2.4529  0.2123  1.5636
 1061TIP3   OH227377   6.306   3.475  17.289 -0.2460 -0.0166  0.3581
 1061TIP3    H127378   6.226   3.517  17.321  0.0551  1.1187 -0.3343
 1061TIP3    H227379   6.277   3.420  17.216 -0.5286 -0.4278  0.7729
 1062TIP3   OH227380   3.349   6.124  17.183 -0.5176  0.0627  0.2669
 1062TIP3    H127381   3.333   6.117  17.277 -0.7685 -1.6888  0.1324
 1062TIP3    H227382   3.411   6.053  17.164 -2.1250 -1.0409 -1.2217
 1063TIP3   OH227383   4.272   6.445  18.357 -0.3277 -0.1900  0.0064
 1063TIP3    H127384   4.206   6.466  18.423 -0.6758 -0.9128 -0.1106
 1063TIP3    H227385   4.293   6.530  18.318  1.1870  0.5604  2.2313
 1064TIP3   OH227386   3.164   0.987  17.346  0.0340 -0.1161  0.5115
 1064TIP3    H127387   3.119   0.911  17.309  0.2434  0.1734 -0.3704
 1064TIP3    H227388   3.163   1.052  17.275  1.5665  0.0041  0.5784
 1065TIP3   OH227389   2.511   5.023  18.201  0.0414 -0.3406  0.6761
 1065TIP3    H127390   2.540   5.080  18.129  0.1915 -2.0627 -0.6770
 1065TIP3    H227391   2.575   5.038  18.270 -0.4219  1.7798  0.7126
 1066TIP3   OH227392   2.023   4.512  17.809  0.2300 -0.0636  0.0738
 1066TIP3    H127393   2.098   4.545  17.860  0.7543 -0.7751 -0.2302
 1066TIP3    H227394   2.018   4.571  17.734  1.2806 -0.7613 -0.5617
 1067TIP3   OH227395   4.472   6.693  18.813  0.2782  0.9826 -0.3407
 1067TIP3    H127396   4.534   6.645  18.869  1.6915 -0.4898 -2.9720
 1067TIP3    H227397   4.388   6.649  18.828  1.0819 -0.8677 -0.9264
 1068TIP3   OH227398   1.572   1.277  19.277  0.3758  0.4109 -0.0423
 1068TIP3    H127399   1.577   1.204  19.216  0.5632  0.4007 -0.0146
 1068TIP3    H227400   1.661   1.312  19.279  0.0710  1.3042 -0.8783
 1069TIP3   OH227401   0.639   5.949  19.394  0.2964 -0.5507  0.2192
 1069TIP3    H127402   0.723   5.904  19.381  0.3988 -0.3678  0.2490
 1069TIP3    H227403   0.663   6.036  19.425  0.1243 -0.1658 -0.7168
 1070TIP3   OH227404   7.162   6.814  16.589 -0.6887 -0.9616 -0.2429
 1070TIP3    H127405   7.215   6.839  16.514  0.0200 -0.4400  0.4216
 1070TIP3    H227406   7.166   6.888  16.649 -2.6511 -0.6532 -0.4084
 1071TIP3   OH227407   3.621   6.919  18.807 -0.3201 -0.6619 -0.4315
 1071TIP3    H127408   3.621   6.919  18.711 -0.9323  1.8659 -0.5219
 1071TIP3    H227409   3.582   6.835  18.831  0.7933 -1.7992 -2.3474
 1072TIP3   OH227410   1.625   5.306  18.396 -0.0228 -0.0062 -0.2559
 1072TIP3    H127411   1.539   5.349  18.391 -0.3812 -0.7997 -1.4535
 1072TIP3    H227412   1.614   5.238  18.462 -0.3910 -0.2213 -0.5306
 1073TIP3   OH227413   7.063   7.331  17.851 -0.0622  0.1979  0.4251
 1073TIP3    H127414   7.114   7.394  17.799  0.1794  1.8254  2.4636
 1073TIP3    H227415   7.012   7.282  17.787  0.6295  1.6867 -1.3661
 1074TIP3   OH227416   1.525   0.981  17.312 -0.0690  0.1817  0.0161
 1074TIP3    H127417   1.475   1.054  17.275 -1.1815 -0.6810 -0.2308
 1074TIP3    H227418   1.526   0.915  17.244 -0.9193 -0.8694  0.9844
 1075TIP3   OH227419   6.583   4.244  16.581 -0.3825 -0.2046 -0.1622
 1075TIP3    H127420   6.535   4.321  16.549  1.0689  1.1237  0.7164
 1075TIP3    H227421   6.651   4.229  16.514  0.3551  0.3199  0.4431
 1076TIP3   OH227422   5.085   5.323  19.089  0.3076 -0.6179 -0.2047
 1076TIP3    H127423   5.054   5.413  19.094 -0.0918 -0.6194 -1.9709
 1076TIP3    H227424   5.180   5.330  19.084  0.2656 -0.2840 -0.5255
 1077TIP3   OH227425   2.341   6.107  18.716 -0.1861  0.5725 -0.4514
 1077TIP3    H127426   2.350   6.058  18.635 -0.6859  0.8023 -0.6498
 1077TIP3    H227427   2.264   6.069  18.759  0.5080 -0.0652  0.2932
 1078TIP3   OH227428   6.265   4.111  18.470 -0.1177 -0.1591 -0.5836
 1078TIP3    H127429   6.274   4.036  18.529  2.7835  1.1563  0.8283
 1078TIP3    H227430   6.234   4.182  18.527 -1.2887  0.1539 -1.5683
 1079TIP3   OH227431   0.622   7.028  16.940 -0.1675  0.1159 -0.0375
 1079TIP3    H127432   0.664   7.096  16.887 -0.3601 -0.0854 -0.4529
 1079TIP3    H227433   0.650   6.946  16.901  0.0154 -0.0485  0.4270
 1080TIP3   OH227434   0.017   0.155  19.241 -0.0845  0.3456 -0.1255
 1080TIP3    H127435  -0.021   0.067  19.242  0.2477  0.1938 -0.4775
 1080TIP3    H227436  -0.055   0.213  19.265  0.0142 -0.1437  1.4999
 1081TIP3   OH227437   5.378   1.596  19.291 -0.3445  0.1126  0.0021
 1081TIP3    H127438   5.401   1.689  19.297  0.7041 -0.1216 -0.2107
 1081TIP3    H227439   5.426   1.565  19.215 -2.7123 -0.0337 -1.5582
 1082TIP3   OH227440   5.427   7.610  18.410 -0.4716 -0.2430 -0.0558
 1082TIP3    H127441   5.385   7.689  18.444  0.2423  0.3337 -0.4975
 1082TIP3    H227442   5.475   7.639  18.332  0.8305 -0.8539  0.4875
 1083TIP3   OH227443   4.774   1.357  18.228  0.2116 -0.0560 -0.0283
 1083TIP3    H127444   4.748   1.439  18.187 -0.0354 -0.0962  0.0474
 1083TIP3    H227445   4.770   1.374  18.322  0.9338  0.0838 -0.0187
 1084TIP3   OH227446   7.657   7.065  17.448  0.4203 -0.0576  0.1952
 1084TIP3    H127447   7.660   7.029  17.536  0.4172 -1.3197 -0.3011
 1084TIP3    H227448   7.661   6.989  17.390 -0.3288  0.6915 -0.8951
 1085TIP3   OH227449   6.235   5.393  18.034  0.1903 -0.1916  0.5868
 1085TIP3    H127450   6.267   5.324  18.093  0.8840 -0.3644  0.0390
 1085TIP3    H227451   6.140   5.386  18.037  0.2381 -2.1174 -0.4839
 1086TIP3   OH227452   1.356   1.600  17.887 -0.5440 -0.2265  0.1330
 1086TIP3    H127453   1.338   1.681  17.937  0.7587  0.8242 -1.0211
 1086TIP3    H227454   1.271   1.576  17.849 -0.6284  1.6785 -1.0137
 1087TIP3   OH227455   3.387   2.133  18.818  0.3324 -0.8974  0.0930
 1087TIP3    H127456   3.319   2.086  18.770  2.7959 -3.7540 -0.9804
 1087TIP3    H227457   3.372   2.225  18.798 -2.9048 -1.4107 -0.3585
 1088TIP3   OH227458   1.432   6.472  17.485  0.1281  0.1007 -0.0682
 1088TIP3    H127459   1.379   6.392  17.484  1.7976 -1.2805  3.5352
 1088TIP3    H227460   1.401   6.521  17.561  1.0765  1.4274 -0.4971
 1089TIP3   OH227461   3.257   5.844  19.237  0.2374  0.5936  0.8987
 1089TIP3    H127462   3.352   5.860  19.239  0.3484  0.0763  0.0886
 1089TIP3    H227463   3.221   5.922  19.196  0.1883  1.2782  2.1896
 1090TIP3   OH227464   7.374   3.989  17.645  0.5117 -0.1838 -0.4412
 1090TIP3    H127465   7.396   4.067  17.697 -1.0542 -0.0945  0.1519
 1090TIP3    H227466   7.433   3.993  17.570  1.5895  0.6748  0.4148
 1091TIP3   OH227467   5.351   6.300  18.206 -0.2106  0.2099 -0.5346
 1091TIP3    H127468   5.305   6.264  18.130 -0.4330 -0.3766 -0.1302
 1091TIP3    H227469   5.283   6.346  18.255 -0.0486  0.6661 -0.7375
 1092TIP3   OH227470   5.858   7.350  17.618  0.1859 -0.6808  0.2669
 1092TIP3    H127471   5.766   7.338  17.641 -0.4775  1.6190 -0.9106
 1092TIP3    H227472   5.877   7.276  17.560 -2.1216  0.7229 -2.5492
 1093TIP3   OH227473   0.352   3.405  17.713  0.0108  0.4646  0.0262
 1093TIP3    H127474   0.259   3.428  17.711  0.1461  1.0915  0.3792
 1093TIP3    H227475   0.377   3.419  17.804  0.7721  1.7139 -0.3426
 1094TIP3   OH227476   3.189   6.405  18.545  0.3488  0.2178 -0.1758
 1094TIP3    H127477   3.264   6.348  18.528 -0.5010 -0.3739 -2.1723
 1094TIP3    H227478   3.227   6.485  18.580  1.8107 -0.4809 -0.1055
 1095TIP3   OH227479   6.231   0.869  18.693 -0.7159  0.4783  0.4054
 1095TIP3    H127480   6.325   0.882  18.706 -0.4715  0.1440 -0.8409
 1095TIP3    H227481   6.214   0.907  18.607 -1.2710 -1.4456 -0.3806
 1096TIP3   OH227482   7.030   1.144  17.298  0.0434 -0.0388  0.2743
 1096TIP3    H127483   6.978   1.086  17.355 -2.1368  0.0817 -1.4797
 1096TIP3    H227484   7.017   1.109  17.210 -0.6266  2.5663 -0.7406
 1097TIP3   OH227485   1.157   2.579  17.379  0.4307  0.2706  0.2069
 1097TIP3    H127486   1.219   2.525  17.330  0.3798  2.3837 -2.3868
 1097TIP3    H227487   1.075   2.531  17.376  0.9941 -0.7396  0.3360
 1098TIP3   OH227488   2.820   5.031  18.336 -0.1595  0.4359  0.3465
 1098TIP3    H127489   2.782   4.957  18.384  0.5067 -0.7552 -0.8985
 1098TIP3    H227490   2.800   5.107  18.390 -3.2287 -0.2576  0.3860
 1099TIP3   OH227491   5.798   5.529  18.511 -0.0275 -0.3011 -0.5502
 1099TIP3    H127492   5.824   5.530  18.419 -0.8615 -1.5170 -0.8247
 1099TIP3    H227493   5.789   5.436  18.532  0.4475 -0.0588  0.8588
 1100TIP3   OH227494   5.536   2.984  19.032  0.0604  0.1555  0.1235
 1100TIP3    H127495   5.544   3.021  18.944 -1.3765  1.1988  0.3929
 1100TIP3    H227496   5.478   2.909  19.021 -1.8238  1.5026  0.4522
 1101TIP3   OH227497   2.533   2.969  18.251 -0.2683 -0.2178  0.3120
 1101TIP3    H127498   2.620   2.964  18.212 -0.1157  2.1931  0.1822
 1101TIP3    H227499   2.474   2.984  18.177 -0.8360 -1.7988  0.4027
 1102TIP3   OH227500   2.051   5.800  18.116  0.1746 -0.3051 -0.4345
 1102TIP3    H127501   1.964   5.826  18.148  0.5724  0.4030  0.1015
 1102TIP3    H227502   2.049   5.705  18.118 -0.6985 -0.3081 -0.7291
 1103TIP3   OH227503   4.130   7.032  18.926 -0.5590 -0.0649 -0.9139
 1103TIP3    H127504   4.199   7.005  18.865  0.9339  1.2328  0.1332
 1103TIP3    H227505   4.086   6.950  18.948  2.6693 -1.5265  0.7791
 1104TIP3   OH227506   2.396   6.866  17.532  0.2564 -0.3034 -0.0168
 1104TIP3    H127507   2.323   6.917  17.567  0.6158  0.2516 -0.0672
 1104TIP3    H227508   2.355   6.808  17.468 -0.4989 -1.7387  1.6699
 1105TIP3   OH227509   6.907   3.647  18.462 -0.3997 -0.2864 -0.3524
 1105TIP3    H127510   6.816   3.618  18.457 -0.4242 -0.0835 -1.1837
 1105TIP3    H227511   6.904   3.724  18.519 -0.6201 -0.7486  0.2781
 1106TIP3   OH227512   6.428   5.061  17.662 -0.4356  0.0027 -0.3814
 1106TIP3    H127513   6.523   5.065  17.648 -0.2604  0.5239  0.8409
 1106TIP3    H227514   6.408   4.967  17.660  0.5821 -0.3398  2.1395
 1107TIP3   OH227515   0.925   7.662  18.931  0.7150 -0.6429  0.0369
 1107TIP3    H127516   0.898   7.723  18.863  0.0586 -0.8545  0.0944
 1107TIP3    H227517   1.020   7.668  18.933  0.5976  1.4189  1.0215
 1108TIP3   OH227518   5.543   4.620  17.290 -0.0562  0.0909  0.0450
 1108TIP3    H127519   5.562   4.694  17.348 -1.6903  0.7043 -0.1426
 1108TIP3    H227520   5.513   4.662  17.209  0.4840 -0.7758 -0.6095
 1109TIP3   OH227521   4.501   1.639  17.620  0.0993  0.5431 -0.8276
 1109TIP3    H127522   4.534   1.693  17.548 -0.7995  0.6452 -1.1768
 1109TIP3    H227523   4.577   1.626  17.676  0.6759  0.9689 -1.4805
 1110TIP3   OH227524   7.551   5.012  18.571 -0.3610  0.8421  0.0375
 1110TIP3    H127525   7.587   4.933  18.612 -0.7835  0.5910 -0.0674
 1110TIP3    H227526   7.543   4.990  18.479  0.1306  1.2389 -0.1006
 1111TIP3   OH227527   7.592   6.181  18.873 -0.0993 -0.6988 -0.0321
 1111TIP3    H127528   7.651   6.117  18.833 -0.4360 -0.6727 -0.5913
 1111TIP3    H227529   7.519   6.129  18.906 -0.6427 -0.5638 -0.9825
 1112TIP3   OH227530   4.477   3.304  18.108 -0.2464  0.0463 -0.2523
 1112TIP3    H127531   4.491   3.221  18.153  1.6065  1.0105  1.0591
 1112TIP3    H227532   4.523   3.294  18.024 -1.6923 -0.8970 -0.9778
 1113TIP3   OH227533   6.543   4.502  19.431 -0.5125 -0.1964  0.2092
 1113TIP3    H127534   6.622   4.460  19.399 -1.7616 -1.3239 -1.5771
 1113TIP3    H227535   6.514   4.447  19.504  0.3362  0.2498  0.9016
 1114TIP3   OH227536   0.393   4.321  19.202  0.2263  0.2269 -0.2755
 1114TIP3    H127537   0.478   4.343  19.241  0.6711 -1.5034 -0.1922
 1114TIP3    H227538   0.359   4.250  19.257 -1.0785  0.5909 -0.5797
 1115TIP3   OH227539   3.346   1.249  18.936  0.2093  0.1577  0.1459
 1115TIP3    H127540   3.420   1.195  18.962  0.1580 -0.0645 -0.1665
 1115TIP3    H227541   3.373   1.338  18.956 -0.3826 -0.1048  2.3450
 1116TIP3   OH227542   1.568   6.036  19.047  0.3194 -0.1267  0.3176
 1116TIP3    H127543   1.591   6.076  18.963  0.9987 -0.5875  0.2814
 1116TIP3    H227544   1.506   6.098  19.086 -0.4717 -0.1857 -0.7721
 1117TIP3   OH227545   4.083   0.642  18.780 -0.4454  0.2846  0.1303
 1117TIP3    H127546   4.114   0.597  18.858 -0.3401  0.2189  0.0517
 1117TIP3    H227547   3.991   0.618  18.772  0.2305 -2.1436 -1.4420
 1118TIP3   OH227548   4.909   6.566  18.080  0.1743  0.3806 -0.1408
 1118TIP3    H127549   4.894   6.652  18.040  2.0435  1.5116  1.3438
 1118TIP3    H227550   4.994   6.538  18.045  0.0938 -0.3222  0.2110
 1119TIP3   OH227551   5.987   7.634  17.342 -0.3130  0.0392  0.0694
 1119TIP3    H127552   6.076   7.604  17.361  0.3458  2.0283  0.3305
 1119TIP3    H227553   5.942   7.632  17.426 -1.1681 -2.8094 -0.3680
 1120TIP3   OH227554   1.195   5.653  16.992 -0.3235 -0.4896  0.5682
 1120TIP3    H127555   1.278   5.699  17.004  0.1088 -0.8117 -0.9603
 1120TIP3    H227556   1.130   5.712  17.030  0.3565  0.8396 -0.2422
 1121TIP3   OH227557   5.488   3.721  18.409  0.7490  0.2811 -0.2874
 1121TIP3    H127558   5.458   3.754  18.324  1.3232  1.2632 -0.1212
 1121TIP3    H227559   5.578   3.753  18.416  0.5184  0.6886  0.9451
 1122TIP3   OH227560   7.659   3.664  19.002  0.4537  0.0067 -0.1160
 1122TIP3    H127561   7.591   3.676  18.935 -2.2997  0.7617  2.5897
 1122TIP3    H227562   7.710   3.745  18.998  0.9231 -0.3427 -1.8561
 1123TIP3   OH227563   7.558   6.746  17.288  0.2826 -0.2357  0.1226
 1123TIP3    H127564   7.590   6.677  17.347 -1.1149  0.3569  1.6498
 1123TIP3    H227565   7.472   6.769  17.323  0.0427  1.1949 -1.3054
 1124TIP3   OH227566   0.856   3.824  17.286  0.2179  0.0838 -0.1573
 1124TIP3    H127567   0.784   3.845  17.226  1.7943  1.3851 -1.6816
 1124TIP3    H227568   0.905   3.905  17.294  0.3778 -0.1889  2.5628
 1125TIP3   OH227569   7.407   2.467  19.275  0.3184  0.7215  0.1228
 1125TIP3    H127570   7.455   2.470  19.193  0.2518  1.0131  0.0928
 1125TIP3    H227571   7.466   2.422  19.336 -0.3963 -1.2853 -0.5835
 1126TIP3   OH227572   2.060   1.178  18.116  0.3827  0.1509 -0.4410
 1126TIP3    H127573   2.119   1.104  18.129  0.2339  0.5403  3.5323
 1126TIP3    H227574   2.114   1.255  18.135 -0.7479  0.6449  0.9439
 1127TIP3   OH227575   1.507   6.178  19.369  0.5911 -0.2585  0.1782
 1127TIP3    H127576   1.531   6.094  19.407  0.4589  0.6636  2.4348
 1127TIP3    H227577   1.421   6.198  19.405  0.1813  0.4137 -1.0997
 1128TIP3   OH227578   0.302   1.058  18.182 -0.2140 -0.3063 -0.1178
 1128TIP3    H127579   0.207   1.064  18.184 -0.1965 -0.2575  0.8154
 1128TIP3    H227580   0.330   1.137  18.135 -0.6350 -0.4894 -0.6943
 1129TIP3   OH227581   3.252   0.969  17.678  0.0563  0.2627 -0.2064
 1129TIP3    H127582   3.252   0.929  17.590  1.8873  1.7169 -0.9423
 1129TIP3    H227583   3.189   1.040  17.671 -1.8941 -1.2928  0.5761
 1130TIP3   OH227584   0.090   5.718  18.927 -0.0414  0.1993 -0.4278
 1130TIP3    H127585   0.038   5.640  18.908  0.8811 -0.3196 -0.8928
 1130TIP3    H227586   0.156   5.689  18.990  0.5144  0.5206 -0.8519
 1131TIP3   OH227587   1.558   6.503  17.236  0.3369  0.1662  0.5705
 1131TIP3    H127588   1.608   6.584  17.241 -0.2462  0.5405  0.3926
 1131TIP3    H227589   1.528   6.487  17.325 -1.1723  1.1962  0.2910
 1132TIP3   OH227590   2.011   4.281  17.945 -0.5004 -0.4323 -0.6301
 1132TIP3    H127591   2.020   4.370  17.912 -1.6893  0.6782  1.7723
 1132TIP3    H227592   2.080   4.232  17.901  2.0023  2.2856 -0.0270
 1133TIP3   OH227593   5.815   2.614  19.191 -0.1357 -0.0616 -0.1290
 1133TIP3    H127594   5.788   2.705  19.176  3.1472  0.7494 -2.3014
 1133TIP3    H227595   5.845   2.613  19.282 -2.8258  0.1560  0.8534
 1134TIP3   OH227596   3.494   6.411  17.461 -0.0140  0.3684  0.5370
 1134TIP3    H127597   3.551   6.361  17.402  1.2440  2.4082 -0.1011
 1134TIP3    H227598   3.554   6.470  17.507 -1.1434 -0.2507  2.9349
 1135TIP3   OH227599   3.295   6.662  16.857  0.4962 -0.3078 -0.4074
 1135TIP3    H127600   3.376   6.614  16.844 -0.4421 -2.1035  0.0491
 1135TIP3    H227601   3.256   6.667  16.770  1.2622  0.8961 -0.6905
 1136TIP3   OH227602   6.186   6.643  17.140 -0.2368 -0.1636 -0.3729
 1136TIP3    H127603   6.203   6.569  17.081 -2.3420  0.4470 -1.8607
 1136TIP3    H227604   6.141   6.605  17.215 -3.1688 -0.2743 -2.0410
 1137TIP3   OH227605   5.473   3.721  16.989 -0.6299  0.2699 -0.2043
 1137TIP3    H127606   5.432   3.637  16.970  0.4270 -0.0861 -1.0138
 1137TIP3    H227607   5.400   3.781  17.004 -1.5268 -0.0896 -2.6260
 1138TIP3   OH227608   1.499   5.106  18.930 -0.2684  0.0037  0.1303
 1138TIP3    H127609   1.413   5.141  18.909 -1.1034 -1.5566  0.7905
 1138TIP3    H227610   1.559   5.180  18.919 -2.0133  1.8696  2.2695
 1139TIP3   OH227611   5.903   4.746  16.820  0.7188  0.3947  0.4904
 1139TIP3    H127612   5.873   4.655  16.816  1.5588  0.1033 -3.1529
 1139TIP3    H227613   5.999   4.739  16.821  0.8305  1.1566 -1.2418
 1140TIP3   OH227614   3.757   4.692  17.933  0.3249 -0.3916  0.4742
 1140TIP3    H127615   3.676   4.643  17.944  0.6175 -0.7523  1.0752
 1140TIP3    H227616   3.795   4.659  17.851 -1.6438  1.9793 -1.5679
 1141TIP3   OH227617   6.166   7.362  18.496 -0.1432  0.2704  0.1334
 1141TIP3    H127618   6.256   7.391  18.504 -0.6581  2.0541 -0.0186
 1141TIP3    H227619   6.120   7.407  18.568 -1.0758  0.1432 -0.3648
 1142TIP3   OH227620   7.089   1.454  18.951  0.1877 -0.1006 -0.5973
 1142TIP3    H127621   7.148   1.392  18.908  1.3645 -0.6997  1.7318
 1142TIP3    H227622   7.135   1.538  18.946  0.4700 -0.2322 -0.2686
 1143TIP3   OH227623   1.154   3.541  19.026 -0.0635  0.0786  0.0264
 1143TIP3    H127624   1.211   3.512  19.097 -0.1413  2.0691  0.9664
 1143TIP3    H227625   1.207   3.603  18.976 -0.7487  0.4479 -0.2647
 1144TIP3   OH227626   3.265   6.527  17.386 -0.2502 -0.2008  0.2475
 1144TIP3    H127627   3.303   6.508  17.472 -1.1183 -0.6039  0.5591
 1144TIP3    H227628   3.315   6.472  17.325 -0.8404 -1.3362  0.7616
 1145TIP3   OH227629   4.880   2.806  17.150  0.3213 -0.3001  0.3108
 1145TIP3    H127630   4.929   2.808  17.232 -0.0745  1.0805  0.5303
 1145TIP3    H227631   4.791   2.831  17.174  0.4188  1.0957 -0.6667
 1146TIP3   OH227632   3.520   5.569  18.407  0.0677  0.0617  0.2895
 1146TIP3    H127633   3.486   5.502  18.348 -0.3990  0.5399  0.0071
 1146TIP3    H227634   3.531   5.524  18.491  1.4339 -0.8130 -0.3271
 1147TIP3   OH227635   5.201   2.582  17.154 -0.2729  0.0546 -0.1224
 1147TIP3    H127636   5.161   2.597  17.239  1.1130  1.2664  0.3612
 1147TIP3    H227637   5.230   2.491  17.157 -1.5845 -0.3709  0.0967
 1148TIP3   OH227638   7.653   2.692  18.400 -0.3227 -0.7070  0.2291
 1148TIP3    H127639   7.668   2.731  18.486  0.2236 -0.4350  0.0108
 1148TIP3    H227640   7.558   2.699  18.388 -0.6431 -2.2608  1.5225
 1149TIP3   OH227641   3.998   0.435  18.175  0.0832  0.0566 -0.1140
 1149TIP3    H127642   3.921   0.492  18.172  0.1986  0.1764 -1.2658
 1149TIP3    H227643   3.967   0.355  18.218 -1.2002 -0.6187 -2.1510
 1150TIP3   OH227644   5.961   2.217  17.896 -0.1783  0.2891  0.2692
 1150TIP3    H127645   5.920   2.297  17.862  0.3168  0.4815  0.1252
 1150TIP3    H227646   5.927   2.208  17.985 -0.7775  0.2777  0.0481
 1151TIP3   OH227647   6.074   2.085  19.178 -0.0398 -0.1584  0.7833
 1151TIP3    H127648   6.077   2.031  19.099  1.5004  2.2482 -0.9336
 1151TIP3    H227649   5.993   2.135  19.171  0.4761  0.6332  0.2582
 1152TIP3   OH227650   2.374   6.903  18.016 -0.3262 -0.6764  0.6744
 1152TIP3    H127651   2.317   6.972  18.052 -0.2152 -0.2881  0.1090
 1152TIP3    H227652   2.314   6.838  17.981 -0.4661  0.6094 -1.6275
 1153TIP3   OH227653   6.440   4.050  18.199  0.1554  0.1392 -0.0434
 1153TIP3    H127654   6.394   4.052  18.283 -0.2537 -1.8078 -0.1585
 1153TIP3    H227655   6.400   3.976  18.152  1.5736  0.0848 -1.2318
 1154TIP3   OH227656   2.313   3.148  17.079 -0.2817  0.0359  0.5700
 1154TIP3    H127657   2.235   3.142  17.134 -0.9196  2.0285 -0.0389
 1154TIP3    H227658   2.315   3.065  17.032 -1.5424 -0.4046  1.2389
 1155TIP3   OH227659   7.071   5.942  16.965  0.0788  0.8059  0.0006
 1155TIP3    H127660   7.103   5.992  16.889 -1.5986  2.5988  0.3889
 1155TIP3    H227661   7.063   6.007  17.034 -0.3092 -0.4218  1.1467
 1156TIP3   OH227662   0.892   1.971  18.182  0.3812  0.0759  0.2870
 1156TIP3    H127663   0.860   2.027  18.252  0.7487 -0.2434  0.7108
 1156TIP3    H227664   0.865   2.016  18.101  2.0128  1.6692  0.5746
 1157TIP3   OH227665   7.289   1.799  17.608  0.0757  0.7717 -0.1141
 1157TIP3    H127666   7.352   1.776  17.540  0.0338 -0.9959  0.4007
 1157TIP3    H227667   7.340   1.800  17.689  0.0793  2.6570 -0.0809
 1158TIP3   OH227668   6.887   3.449  18.941 -0.2139  0.5212  0.3875
 1158TIP3    H127669   6.818   3.434  18.876 -1.9865  3.5729  1.3862
 1158TIP3    H227670   6.849   3.421  19.024  0.7368 -0.1333  0.6188
 1159TIP3   OH227671   0.036   0.605  19.565  1.2959 -0.2162  0.2999
 1159TIP3    H127672   0.027   0.647  19.479  0.0010 -0.3237  0.3715
 1159TIP3    H227673  -0.054   0.595  19.596  1.7506 -0.1634  1.6832
 1160TIP3   OH227674   1.369   5.046  17.398  0.4006  0.0864  0.1305
 1160TIP3    H127675   1.450   5.050  17.347  0.3836 -1.9198 -0.1228
 1160TIP3    H227676   1.388   5.094  17.478  1.6329  0.1452 -0.1873
 1161TIP3   OH227677   1.904   6.409  18.793  0.3824 -0.1240 -0.2931
 1161TIP3    H127678   1.872   6.436  18.707  3.3048  1.0203 -1.1669
 1161TIP3    H227679   1.861   6.469  18.855 -0.4442  0.1903 -1.1523
 1162TIP3   OH227680   1.709   4.001  17.238 -0.2123  0.7188  0.2682
 1162TIP3    H127681   1.708   4.097  17.238 -0.0439  0.8163 -3.0121
 1162TIP3    H227682   1.799   3.978  17.217 -0.0720 -0.2529  1.7469
 1163TIP3   OH227683   3.403   4.913  17.969 -1.2030 -0.1592  0.0580
 1163TIP3    H127684   3.317   4.875  17.987 -1.2194  0.3662  1.1692
 1163TIP3    H227685   3.449   4.910  18.052 -0.6738  0.8925 -0.1718
 1164TIP3   OH227686   5.856   2.866  18.064  0.2344 -0.1979  0.1650
 1164TIP3    H127687   5.803   2.944  18.047 -1.4231 -1.5734 -1.2762
 1164TIP3    H227688   5.929   2.873  18.003  0.1381  0.2431  0.0966
 1165TIP3   OH227689   4.274   6.882  17.740  0.0744 -0.4347  0.5865
 1165TIP3    H127690   4.196   6.921  17.781  0.2194  0.5102 -0.0004
 1165TIP3    H227691   4.319   6.838  17.812  0.3968  1.2967  1.5067
 1166TIP3   OH227692   2.258   1.448  19.291 -0.1649  0.3666 -0.4630
 1166TIP3    H127693   2.340   1.400  19.277 -0.1189  0.1902  0.3365
 1166TIP3    H227694   2.285   1.529  19.334 -0.5079 -0.3425  1.1878
 1167TIP3   OH227695   2.740   5.025  17.755 -0.0328  0.0628 -0.3036
 1167TIP3    H127696   2.832   5.030  17.782 -0.6733  0.5136  2.0453
 1167TIP3    H227697   2.729   4.935  17.725  1.3598  0.2402 -1.4661
 1168TIP3   OH227698   7.014   4.331  17.910  0.2198 -0.4560  0.1844
 1168TIP3    H127699   6.974   4.409  17.949  0.5290  0.0569 -0.4918
 1168TIP3    H227700   7.086   4.309  17.970  0.5291  0.1653  0.0571
 1169TIP3   OH227701   2.743   4.954  17.262  0.3452  0.0760  0.2683
 1169TIP3    H127702   2.757   5.012  17.188  1.1481  0.1918  0.4910
 1169TIP3    H227703   2.717   5.011  17.334  3.8144  0.6640  1.2735
 1170TIP3   OH227704   7.450   2.712  17.114 -0.4285 -0.2831 -0.5179
 1170TIP3    H127705   7.460   2.755  17.029 -1.3940  0.5091 -0.2534
 1170TIP3    H227706   7.400   2.774  17.166  0.4279 -0.6265  0.7488
 1171TIP3   OH227707   4.906   5.193  18.901  0.1240 -0.7208  0.4870
 1171TIP3    H127708   4.962   5.235  18.966  2.3091  1.1456 -2.3385
 1171TIP3    H227709   4.942   5.104  18.892  1.7157 -0.0365 -0.1944
 1172TIP3   OH227710   4.898   3.912  18.008 -0.2418  0.2813  0.3901
 1172TIP3    H127711   4.833   3.982  18.005 -0.6129 -0.0586  0.4485
 1172TIP3    H227712   4.972   3.951  18.055  0.3282  1.2567 -1.2122
 1173TIP3   OH227713   7.277   7.329  18.447 -0.0601  0.0170 -0.1107
 1173TIP3    H127714   7.315   7.395  18.389 -1.4913 -0.4749 -1.6998
 1173TIP3    H227715   7.344   7.313  18.513 -0.1427  4.0243  1.2092
 1174TIP3   OH227716   6.153   4.238  19.578  0.5415 -0.2574 -0.4330
 1174TIP3    H127717   6.065   4.276  19.586  0.7041 -0.1268  1.0938
 1174TIP3    H227718   6.140   4.157  19.529 -0.5477 -0.5861  0.3628
 1175TIP3   OH227719   6.780   4.336  18.345  0.2452  0.6665 -0.3059
 1175TIP3    H127720   6.863   4.296  18.318 -0.4257 -1.1929  0.2821
 1175TIP3    H227721   6.805   4.425  18.371  2.0601  0.1507 -0.1012
 1176TIP3   OH227722   1.403   0.711  18.246 -0.0209  0.2711 -0.1048
 1176TIP3    H127723   1.327   0.767  18.262 -0.6882 -0.5118 -0.3964
 1176TIP3    H227724   1.422   0.671  18.331 -0.3942 -0.0743 -0.1807
 1177TIP3   OH227725   4.819   0.683  18.715  0.0793 -0.3412  0.3961
 1177TIP3    H127726   4.789   0.731  18.637 -0.7843 -1.0723  0.2576
 1177TIP3    H227727   4.759   0.609  18.722  0.2830 -0.4093  1.6462
 1178TIP3   OH227728   6.959   5.314  16.232 -0.3607 -0.2672  0.5478
 1178TIP3    H127729   6.904   5.256  16.286 -1.0654 -2.2378 -2.0733
 1178TIP3    H227730   7.005   5.255  16.173  1.1679  1.7062 -0.3386
 1179TIP3   OH227731   0.916   2.727  19.331 -0.0674  0.0495  0.1253
 1179TIP3    H127732   0.998   2.777  19.337  0.3769 -0.0879 -2.9138
 1179TIP3    H227733   0.944   2.635  19.330 -0.4960 -0.1123  1.2246
 1180TIP3   OH227734   3.649   0.184  17.178  0.1052  0.7429  0.5240
 1180TIP3    H127735   3.710   0.115  17.152 -3.0337 -1.5674 -1.3798
 1180TIP3    H227736   3.696   0.265  17.160  2.3052 -0.8679 -1.6948
 1181TIP3   OH227737   2.535   5.486  18.600  0.1793 -0.6381 -0.7165
 1181TIP3    H127738   2.574   5.447  18.678 -0.7035  1.1306  0.6656
 1181TIP3    H227739   2.569   5.575  18.598 -1.6930  0.1032 -0.9681
 1182TIP3   OH227740   0.009   1.954  17.236  0.4907 -0.7987  0.2146
 1182TIP3    H127741   0.094   1.986  17.266  0.2433  0.9771 -0.7958
 1182TIP3    H227742   0.017   1.950  17.141 -0.7181  0.0286  0.0458
 1183TIP3   OH227743   2.435   2.118  18.734  0.6427 -0.5270  0.1107
 1183TIP3    H127744   2.354   2.090  18.777  0.9314 -0.4612  0.7057
 1183TIP3    H227745   2.410   2.195  18.682  0.6301  0.4538  1.5175
 1184TIP3   OH227746   6.411   0.161  18.020  0.6015  0.8900 -0.5590
 1184TIP3    H127747   6.453   0.091  17.969 -0.1017  0.2689 -0.3061
 1184TIP3    H227748   6.357   0.207  17.956  0.3299  0.6009 -0.5432
 1185TIP3   OH227749   6.338   5.574  17.424 -0.0843  0.1469  0.5276
 1185TIP3    H127750   6.346   5.485  17.460 -0.8214 -0.5207 -0.8668
 1185TIP3    H227751   6.304   5.561  17.335 -0.7772  1.8612  0.4989
 1186TIP3   OH227752   0.640   0.779  19.073  0.4166 -0.3799 -0.2579
 1186TIP3    H127753   0.699   0.831  19.127  0.0733 -0.4974  0.2333
 1186TIP3    H227754   0.681   0.692  19.070 -1.1128 -1.3232  2.4731
 1187TIP3   OH227755   0.377   6.493  18.332 -0.0161 -0.5656 -0.9455
 1187TIP3    H127756   0.412   6.483  18.420  0.7918 -2.5125 -1.4392
 1187TIP3    H227757   0.396   6.410  18.289  0.3008  0.5907 -3.1988
 1188TIP3   OH227758   3.127   7.363  18.328  0.1758 -0.0424 -1.0984
 1188TIP3    H127759   3.220   7.384  18.330  0.0655  0.4751 -1.2575
 1188TIP3    H227760   3.122   7.279  18.284  0.6349 -0.4291 -0.4252
 1189TIP3   OH227761   5.698   0.882  18.883 -0.2628  0.2899  0.4746
 1189TIP3    H127762   5.666   0.797  18.911 -1.0932  0.9899  1.7112
 1189TIP3    H227763   5.785   0.890  18.923  0.4461 -0.5544 -0.8290
 1190TIP3   OH227764   2.146   1.476  17.268 -0.2725  0.4604 -0.4655
 1190TIP3    H127765   2.149   1.571  17.273  1.6973  0.4548 -0.7918
 1190TIP3    H227766   2.186   1.455  17.183 -0.5925 -0.6612 -0.3629
 1191TIP3   OH227767   1.116   1.972  17.649  0.4136 -0.4476  0.1607
 1191TIP3    H127768   1.117   2.050  17.705  1.3538 -0.5876  0.3398
 1191TIP3    H227769   1.207   1.957  17.626  0.1308 -0.8834 -0.7425
 1192TIP3   OH227770   6.597   6.004  17.758 -0.3469 -0.1928  0.5829
 1192TIP3    H127771   6.594   6.005  17.853 -2.0214  1.4527  0.5659
 1192TIP3    H227772   6.690   6.012  17.737  0.0968 -1.1415  2.0538
 1193TIP3   OH227773   2.979   5.965  16.435 -0.2717 -0.1195 -0.2128
 1193TIP3    H127774   2.991   6.057  16.459 -1.9795  0.1808 -0.3550
 1193TIP3    H227775   2.898   5.939  16.480 -0.7495 -1.0280 -1.5397
 1194TIP3   OH227776   7.503   6.169  17.390 -0.2650 -0.6326 -0.0107
 1194TIP3    H127777   7.513   6.234  17.320  1.2565 -0.8066  0.0334
 1194TIP3    H227778   7.443   6.211  17.452 -0.2958  0.2108 -0.5895
 1195TIP3   OH227779   6.260   3.640  18.295 -0.1251 -0.5683  0.0567
 1195TIP3    H127780   6.237   3.733  18.297 -0.2282 -0.5896 -0.1268
 1195TIP3    H227781   6.349   3.639  18.260 -0.4754 -0.6009 -0.8671
 1196TIP3   OH227782   1.964   2.475  17.339 -0.0845 -1.3720  0.2339
 1196TIP3    H127783   1.917   2.546  17.382  0.7416 -1.5084  1.3927
 1196TIP3    H227784   1.955   2.495  17.245  0.1059  0.2557  0.5240
 1197TIP3   OH227785   0.071   0.132  16.930  0.6155 -0.3798  0.4456
 1197TIP3    H127786   0.061   0.058  16.871  1.5061 -1.2496  1.3631
 1197TIP3    H227787   0.149   0.178  16.898  0.5437 -0.3031  0.3785
 1198TIP3   OH227788   7.327   2.084  18.343  0.4968  0.3979  0.1718
 1198TIP3    H127789   7.358   2.165  18.303 -0.5843  1.3196  1.1305
 1198TIP3    H227790   7.408   2.036  18.364  1.1719  1.4092 -0.0201
 1199TIP3   OH227791   7.282   2.794  17.325 -0.1997  0.1540 -0.1940
 1199TIP3    H127792   7.246   2.712  17.360  0.8529 -0.7681 -1.1761
 1199TIP3    H227793   7.220   2.861  17.353 -1.0460 -0.9606  0.7202
 1200TIP3   OH227794   0.800   4.600  16.724  0.1942 -0.3226 -0.3133
 1200TIP3    H127795   0.801   4.641  16.638 -1.8631 -1.7090 -1.0813
 1200TIP3    H227796   0.733   4.531  16.717  0.3208 -0.8068  2.2382
 1201TIP3   OH227797   4.960   6.814  18.989  0.1922  0.8496 -0.1183
 1201TIP3    H127798   5.004   6.815  19.074  0.4841 -3.7954  0.0204
 1201TIP3    H227799   4.867   6.806  19.010  0.2605 -0.2498 -0.1603
 1202TIP3   OH227800   2.404   0.161  17.344  0.0825 -0.1759  0.0460
 1202TIP3    H127801   2.490   0.184  17.380  0.4038 -1.0319 -0.1464
 1202TIP3    H227802   2.411   0.183  17.251  0.2709 -0.6991 -0.0678
 1203TIP3   OH227803   0.773   5.898  16.855  0.4312 -0.4904  0.1479
 1203TIP3    H127804   0.866   5.878  16.854  0.2885 -1.1733  0.2024
 1203TIP3    H227805   0.732   5.825  16.809  0.0773  0.7012 -1.5530
 1204TIP3   OH227806   4.680   6.612  18.979  0.2007  0.1823  0.1582
 1204TIP3    H127807   4.762   6.567  18.999  1.2566  2.4314  1.3017
 1204TIP3    H227808   4.619   6.582  19.047  0.7996  0.3043  0.7559
 1205TIP3   OH227809   4.004   0.612  19.129 -0.3895  0.4256 -0.0375
 1205TIP3    H127810   3.919   0.570  19.112 -0.6162  1.1608 -0.7641
 1205TIP3    H227811   4.068   0.547  19.101 -0.4721 -1.9901  4.4050
 1206TIP3   OH227812   0.704   6.259  18.192  0.0188  0.1447 -0.2272
 1206TIP3    H127813   0.719   6.212  18.274 -0.0181  0.8791  0.2136
 1206TIP3    H227814   0.762   6.335  18.197 -0.5629  0.6233 -0.5133
 1207TIP3   OH227815   2.592   4.319  18.364 -0.1590  0.0520 -0.2553
 1207TIP3    H127816   2.515   4.284  18.409  1.6294 -1.7751  1.6257
 1207TIP3    H227817   2.666   4.273  18.404  1.9498  1.8207 -1.8572
 1208TIP3   OH227818   6.935   5.991  18.706  0.0669  0.4932  0.0893
 1208TIP3    H127819   6.911   5.915  18.652 -0.9543  1.1982 -0.5028
 1208TIP3    H227820   7.015   6.025  18.666 -0.3903  0.6940 -0.6757
 1209TIP3   OH227821   5.175   0.994  18.154 -0.4486 -0.4068 -0.0356
 1209TIP3    H127822   5.094   1.003  18.204  0.1667 -0.7859  1.0426
 1209TIP3    H227823   5.197   1.084  18.128 -0.6599 -0.1758  0.5668
 1210TIP3   OH227824   6.724   1.331  17.270 -0.2135  0.6430  0.0012
 1210TIP3    H127825   6.668   1.408  17.280 -0.7464  0.2489  0.0810
 1210TIP3    H227826   6.669   1.257  17.294  0.0084  0.1430 -0.9532
 1211TIP3   OH227827   6.601   3.430  17.985 -0.2987 -0.3360 -0.1649
 1211TIP3    H127828   6.667   3.429  17.917  0.1344 -0.6372  0.2509
 1211TIP3    H227829   6.526   3.383  17.947  0.0853 -0.8525 -0.2838
 1212TIP3   OH227830   6.040   4.826  18.598 -0.0217 -0.0811 -0.2634
 1212TIP3    H127831   6.017   4.877  18.675  1.5058 -0.0686  0.2287
 1212TIP3    H227832   6.035   4.735  18.627  2.0668 -0.0526  0.3863
 1213TIP3   OH227833   3.278   7.370  18.807 -0.1123  0.0561 -0.1042
 1213TIP3    H127834   3.217   7.436  18.837  0.7746  1.0960 -0.5309
 1213TIP3    H227835   3.354   7.379  18.865 -0.1523 -0.8980  0.1177
 1214TIP3   OH227836   6.277   1.307  19.252 -0.7156 -0.4319 -0.0165
 1214TIP3    H127837   6.343   1.375  19.237  0.3295 -1.3783  0.1834
 1214TIP3    H227838   6.205   1.330  19.193  0.0566  0.2768 -0.7117
 1215TIP3   OH227839   0.442   3.890  17.922 -0.0863  0.0366  0.6453
 1215TIP3    H127840   0.506   3.898  17.852 -0.4670 -0.2924  0.2542
 1215TIP3    H227841   0.454   3.800  17.955 -0.1251  0.0840  0.7916
 1216TIP3   OH227842   4.823   2.444  16.631 -0.0399 -0.0194  0.1678
 1216TIP3    H127843   4.823   2.390  16.552 -0.1416  0.1553  0.0458
 1216TIP3    H227844   4.781   2.390  16.698 -2.7754  0.8839 -0.6529
 1217TIP3   OH227845   2.023   3.559  17.478  0.0366  0.0207 -0.1968
 1217TIP3    H127846   2.071   3.532  17.400 -1.3803 -0.9691 -0.7731
 1217TIP3    H227847   2.001   3.651  17.463 -0.4072 -0.2202 -1.0810
 1218TIP3   OH227848   3.519   4.940  17.312  0.2942 -0.1084  0.3546
 1218TIP3    H127849   3.488   4.857  17.349 -0.5470 -0.7675 -1.6347
 1218TIP3    H227850   3.501   4.931  17.218 -0.0249  2.4250  0.1159
 1219TIP3   OH227851   1.715   1.359  18.233 -0.6127  0.5931  0.0696
 1219TIP3    H127852   1.787   1.420  18.249 -0.4720  0.3381  0.4084
 1219TIP3    H227853   1.651   1.411  18.185 -0.1549  0.7873 -0.3349
 1220TIP3   OH227854   2.630   5.572  16.769  0.4359 -0.1355 -0.1660
 1220TIP3    H127855   2.548   5.566  16.721  0.8870 -1.5007 -0.8229
 1220TIP3    H227856   2.689   5.621  16.712  0.2345  0.4134  0.0924
 1221TIP3   OH227857   3.152   1.623  18.403 -0.5705 -0.0811  0.2205
 1221TIP3    H127858   3.155   1.682  18.328 -1.2813  0.2182  0.4214
 1221TIP3    H227859   3.154   1.535  18.365  0.2015  0.0653 -0.0938
 1222TIP3   OH227860   5.520   6.971  17.770  0.0130 -0.2734 -0.2476
 1222TIP3    H127861   5.577   7.029  17.821 -0.1427 -1.5217  1.4785
 1222TIP3    H227862   5.512   6.892  17.825 -1.0335 -1.2891 -1.7754
 1223TIP3   OH227863   0.764   6.197  19.397  0.1596  0.0788  0.7164
 1223TIP3    H127864   0.784   6.291  19.407 -1.1024  0.6453 -1.4144
 1223TIP3    H227865   0.830   6.165  19.336 -1.3115  0.4253 -1.1613
 1224TIP3   OH227866   0.167   1.869  18.289 -0.1872 -0.7463  0.4391
 1224TIP3    H127867   0.236   1.923  18.252 -1.3695  1.5194  1.2950
 1224TIP3    H227868   0.186   1.866  18.383 -0.7223 -0.9145  0.5465
 1225TIP3   OH227869   3.054   6.972  17.179 -0.1441  0.2384 -0.0758
 1225TIP3    H127870   2.959   6.980  17.185 -0.1928  0.7076 -1.1482
 1225TIP3    H227871   3.069   6.882  17.149 -0.3137  0.4290 -0.7647
 1226TIP3   OH227872   1.659   6.592  17.973  0.0566 -0.0646 -0.3193
 1226TIP3    H127873   1.616   6.513  18.005  0.0127  0.3587  0.7493
 1226TIP3    H227874   1.726   6.562  17.913  0.8986 -1.0178  1.0372
 1227TIP3   OH227875   7.090   4.561  17.726 -0.5989  0.8900  0.2497
 1227TIP3    H127876   7.067   4.468  17.721  0.5912  0.5956 -0.1302
 1227TIP3    H227877   7.044   4.593  17.803 -0.8455 -0.0771  0.5186
 1228TIP3   OH227878   7.302   6.444  17.278 -0.3856 -0.1820  0.1395
 1228TIP3    H127879   7.308   6.487  17.364  1.2029 -1.9892  1.0059
 1228TIP3    H227880   7.249   6.366  17.294 -0.0235 -0.5674 -0.4979
 1229TIP3   OH227881   5.839   2.208  17.419  0.3102 -0.0519 -0.2311
 1229TIP3    H127882   5.872   2.159  17.494 -1.7615 -2.8110 -0.9849
 1229TIP3    H227883   5.749   2.231  17.442 -0.6287 -1.5984 -2.0733
 1230TIP3   OH227884   2.813   2.943  18.189  0.3127 -0.5939  0.4338
 1230TIP3    H127885   2.807   2.858  18.233  1.3771 -0.7200  0.3643
 1230TIP3    H227886   2.851   3.001  18.255 -1.9227  0.2806  1.0510
 1231TIP3   OH227887   0.401   7.209  18.269 -0.6686 -0.0868 -0.9270
 1231TIP3    H127888   0.379   7.249  18.184  0.2097  0.2846 -0.9959
 1231TIP3    H227889   0.449   7.130  18.246 -2.6983 -1.4298 -0.7969
 1232TIP3   OH227890   0.997   6.644  17.082  0.2597  0.3075 -0.0219
 1232TIP3    H127891   1.058   6.606  17.018  0.4587  0.5061  0.0497
 1232TIP3    H227892   1.049   6.709  17.129  0.8606 -1.5310  2.0427
 1233TIP3   OH227893   1.803   2.117  19.214 -0.9459 -0.2769  0.3897
 1233TIP3    H127894   1.766   2.141  19.299 -0.1864  0.0540  0.6346
 1233TIP3    H227895   1.846   2.033  19.230 -0.9570 -0.2995  0.2961
 1234TIP3   OH227896   1.852   6.530  19.044  0.1448  0.0916  0.1228
 1234TIP3    H127897   1.903   6.610  19.058 -0.3596  0.4850 -0.2560
 1234TIP3    H227898   1.761   6.558  19.052 -0.2184  0.2860 -3.2668
 1235TIP3   OH227899   3.450   7.600  17.628  0.2909  0.2947 -0.2407
 1235TIP3    H127900   3.506   7.577  17.554  1.1858  0.8331  0.2549
 1235TIP3    H227901   3.504   7.658  17.682  0.1027 -1.0474  1.4659
 1236TIP3   OH227902   7.250   6.937  17.687 -0.3028 -0.3827 -0.1824
 1236TIP3    H127903   7.291   6.874  17.627 -0.7095 -2.1875  1.3331
 1236TIP3    H227904   7.286   7.022  17.662  0.3551 -1.2143 -2.2535
 1237TIP3   OH227905   5.068   4.465  18.977 -0.0015 -0.3997 -0.4037
 1237TIP3    H127906   5.052   4.468  19.072 -0.3260 -0.2308 -0.4601
 1237TIP3    H227907   5.160   4.487  18.968 -0.5443  2.3359 -0.2825
 1238TIP3   OH227908   6.030   6.408  19.042 -0.0579  0.4018  0.0418
 1238TIP3    H127909   6.021   6.401  19.137  0.6236 -0.9493  0.0279
 1238TIP3    H227910   6.083   6.487  19.029  0.2803  0.3120  0.8056
 1239TIP3   OH227911   2.542   1.334  17.605  0.5086 -0.4370  0.5872
 1239TIP3    H127912   2.636   1.344  17.590  0.5086  0.2643  0.9942
 1239TIP3    H227913   2.536   1.293  17.692  0.4499 -1.3585  0.1590
 1240TIP3   OH227914   3.314   5.111  16.677  0.1058  0.2489  0.4468
 1240TIP3    H127915   3.261   5.190  16.682 -0.1375  0.1983 -0.8925
 1240TIP3    H227916   3.381   5.131  16.612 -0.2549 -0.8048 -0.2719
 1241TIP3   OH227917   6.452   0.458  17.696  0.2955 -0.1687 -0.3061
 1241TIP3    H127918   6.526   0.480  17.751 -1.5206  1.8871  1.4632
 1241TIP3    H227919   6.460   0.516  17.620 -0.5030  1.5460  0.8511
 1242TIP3   OH227920   5.470   3.831  18.143 -0.2488 -0.0350 -0.6020
 1242TIP3    H127921   5.442   3.868  18.059 -0.8718  0.3303 -0.2408
 1242TIP3    H227922   5.529   3.759  18.120  0.0510  0.4358 -1.3409
 1243TIP3   OH227923   5.846   4.049  18.595 -0.2643  0.6760  0.7649
 1243TIP3    H127924   5.903   3.988  18.642  0.0497 -1.0311 -1.6316
 1243TIP3    H227925   5.790   3.992  18.541 -2.3057  2.4178  0.9237
 1244TIP3   OH227926   0.192   0.288  17.664  0.1233  0.5108  0.2818
 1244TIP3    H127927   0.270   0.334  17.632 -1.0180  2.2500 -0.1939
 1244TIP3    H227928   0.123   0.312  17.601 -0.6229 -1.6770  0.1957
 1245TIP3   OH227929   0.326   0.945  17.124  0.3220 -0.1564 -0.5637
 1245TIP3    H127930   0.365   0.984  17.202  0.5144 -1.3342 -0.0509
 1245TIP3    H227931   0.396   0.892  17.086 -1.0308 -3.3732  1.1028
 1246TIP3   OH227932   5.777   5.028  17.322 -0.4144  0.2984 -0.1397
 1246TIP3    H127933   5.762   5.114  17.283 -2.5074 -0.0297 -0.2069
 1246TIP3    H227934   5.723   4.968  17.269 -0.1277 -0.8139  0.7781
 1247TIP3   OH227935   2.373   3.271  18.616  0.1259  0.1814  0.0151
 1247TIP3    H127936   2.337   3.267  18.704  1.0650  0.5980  0.4335
 1247TIP3    H227937   2.304   3.235  18.560 -0.4671 -0.1165  0.9154
 1248TIP3   OH227938   3.174   5.524  17.764  0.1225 -0.4536 -0.3755
 1248TIP3    H127939   3.264   5.540  17.792  0.1033  0.5155 -0.8516
 1248TIP3    H227940   3.148   5.445  17.813  1.0096 -0.3851  0.2335
 1249TIP3   OH227941   3.029   0.750  17.298  0.6493 -0.2534 -0.0423
 1249TIP3    H127942   3.025   0.714  17.386 -0.0515  0.9428  0.4263
 1249TIP3    H227943   3.078   0.684  17.248  1.0049 -0.9709  1.2081
 1250TIP3   OH227944   1.408   2.911  17.618 -0.0409 -0.2554 -0.0560
 1250TIP3    H127945   1.354   2.831  17.618  0.1874 -0.4108  0.0671
 1250TIP3    H227946   1.362   2.970  17.677 -0.2220 -0.2867 -0.1617
 1251TIP3   OH227947   2.190   0.584  16.552 -0.3144 -0.2294 -0.3379
 1251TIP3    H127948   2.201   0.511  16.612 -0.6891 -1.2206 -1.4309
 1251TIP3    H227949   2.114   0.632  16.586  0.0243 -0.2515  0.4642
 1252TIP3   OH227950   4.880   3.661  19.072  0.3856 -0.3837  0.3764
 1252TIP3    H127951   4.816   3.704  19.128 -0.4034 -0.4705 -0.4195
 1252TIP3    H227952   4.827   3.609  19.012  1.2727 -1.5509  0.5751
 1253TIP3   OH227953   0.587   5.027  19.050  0.4160  0.3843  0.1425
 1253TIP3    H127954   0.600   4.940  19.088 -2.3124  0.5965  1.7944
 1253TIP3    H227955   0.504   5.057  19.086  0.4206  2.9942 -1.7422
 1254TIP3   OH227956   2.602   1.842  19.208 -0.0933 -1.0637  0.8607
 1254TIP3    H127957   2.663   1.877  19.143 -1.6412  1.7112  0.7390
 1254TIP3    H227958   2.649   1.846  19.291 -1.0498  5.1492  1.6078
 1255TIP3   OH227959   6.665   6.099  17.457  0.1147 -0.1292 -0.2666
 1255TIP3    H127960   6.643   6.055  17.539 -0.7145 -0.4759 -0.6634
 1255TIP3    H227961   6.619   6.049  17.390 -1.3057  1.6102 -0.6931
 1256TIP3   OH227962   4.178   5.626  16.943 -0.1765  1.0319  0.5005
 1256TIP3    H127963   4.087   5.600  16.956 -0.1380  0.5348 -0.1554
 1256TIP3    H227964   4.198   5.598  16.854  0.9565  0.0876  1.0150
 1257TIP3   OH227965   3.891   0.244  18.330  0.6063  0.2850 -0.3583
 1257TIP3    H127966   3.968   0.191  18.350  0.8668  0.2957 -1.2810
 1257TIP3    H227967   3.873   0.292  18.411  1.0748 -0.3286  0.1174
 1258TIP3   OH227968   1.989   0.992  18.547  0.1572 -0.3000 -0.0651
 1258TIP3    H127969   1.947   1.004  18.462  1.6429 -0.0375 -0.7994
 1258TIP3    H227970   1.924   1.020  18.610 -0.8275 -0.0868 -1.1402
 1259TIP3   OH227971   5.299   2.950  18.623 -0.7329 -0.2826 -0.9245
 1259TIP3    H127972   5.292   2.901  18.541  0.6808  1.5075 -2.1924
 1259TIP3    H227973   5.393   2.962  18.636 -0.7603 -2.1536  2.0673
 1260TIP3   OH227974   0.783   7.535  16.830 -0.1889  0.5565  0.4544
 1260TIP3    H127975   0.753   7.453  16.792  1.8956  0.5097 -1.2644
 1260TIP3    H227976   0.753   7.602  16.769 -0.4239  0.9218  0.9654
 1261TIP3   OH227977   2.456   7.118  17.766 -0.8088  0.5551 -0.4214
 1261TIP3    H127978   2.371   7.102  17.724 -0.5134  2.2255 -1.8101
 1261TIP3    H227979   2.479   7.035  17.807 -1.9332 -0.7088 -2.1839
 1262TIP3   OH227980   2.195   1.328  18.364 -0.3295  0.7192 -0.1407
 1262TIP3    H127981   2.263   1.261  18.359 -0.4552  0.6666 -1.4692
 1262TIP3    H227982   2.218   1.380  18.441  0.3928 -0.1718  0.2554
 1263TIP3   OH227983   2.595   6.855  17.758  0.0124 -0.8184 -0.1075
 1263TIP3    H127984   2.544   6.828  17.681  0.4702 -2.3014  0.0713
 1263TIP3    H227985   2.672   6.899  17.722  0.2716 -1.5911 -0.5098
 1264TIP3   OH227986   4.183   0.416  19.086 -0.4346  0.1067  0.2931
 1264TIP3    H127987   4.232   0.410  19.005  2.4649 -1.7938  1.9946
 1264TIP3    H227988   4.228   0.355  19.146 -2.0193  1.8215  3.5007
 1265TIP3   OH227989   0.566   0.058  18.128 -0.0406 -0.2773 -1.1705
 1265TIP3    H127990   0.505   0.048  18.201  2.2551 -0.7557  0.8107
 1265TIP3    H227991   0.596   0.149  18.136  1.4783 -0.8185 -0.4048
 1266TIP3   OH227992   1.581   5.205  17.550 -0.0766 -0.0926  0.2858
 1266TIP3    H127993   1.653   5.190  17.489 -0.8564  1.6173 -1.1375
 1266TIP3    H227994   1.600   5.290  17.590  0.4335 -1.1843  2.5442
 1267TIP3   OH227995   6.220   1.429  18.813 -0.2464 -0.0566 -0.1686
 1267TIP3    H127996   6.267   1.485  18.874  0.7005 -1.0303  0.0303
 1267TIP3    H227997   6.285   1.364  18.786 -1.4248 -1.3027 -0.0703
 1268TIP3   OH227998   2.534   7.260  19.322 -0.3190 -0.1442 -0.0745
 1268TIP3    H127999   2.593   7.215  19.382 -0.2953  0.1098  0.0949
 1268TIP3    H228000   2.591   7.305  19.260 -0.3386 -0.0687 -0.0377
 1269TIP3   OH228001   5.423   5.114  17.022  0.2745  0.2971  0.3519
 1269TIP3    H128002   5.450   5.189  17.075 -0.7750  1.7329 -1.0422
 1269TIP3    H228003   5.351   5.147  16.969 -2.6656 -2.6690  2.1379
 1270TIP3   OH228004   4.762   6.913  17.284  0.4754 -0.0064  0.0260
 1270TIP3    H128005   4.768   6.911  17.380  0.6817  3.4392  0.2283
 1270TIP3    H228006   4.669   6.907  17.266  0.2721  1.1158  0.6100
 1271TIP3   OH228007   6.686   7.204  17.355  0.5563 -0.6895 -0.4055
 1271TIP3    H128008   6.769   7.202  17.403  0.1139  0.2515  0.4415
 1271TIP3    H228009   6.630   7.142  17.403  0.2441 -0.0526  0.0736
 1272TIP3   OH228010   4.071   7.313  17.906  0.1678 -0.2568 -0.4902
 1272TIP3    H128011   4.066   7.377  17.834 -1.3836  1.0005  0.6712
 1272TIP3    H228012   4.122   7.357  17.973 -1.2216 -0.0318  0.4641
 1273TIP3   OH228013   7.577   6.855  18.283  0.2717  0.2505  0.5225
 1273TIP3    H128014   7.653   6.913  18.295 -0.2239  0.7489  1.3320
 1273TIP3    H228015   7.509   6.893  18.339  0.0414 -1.3373  1.3617
 1274TIP3   OH228016   5.034   5.557  17.529 -0.8013 -0.3370 -0.1318
 1274TIP3    H128017   5.082   5.474  17.524  1.8713  1.1676 -1.2165
 1274TIP3    H228018   4.988   5.564  17.445  0.4154  0.0633 -0.7818
 1275TIP3   OH228019   4.844   0.200  17.610 -0.0443 -0.3687  0.3027
 1275TIP3    H128020   4.917   0.208  17.548  1.2300  0.6104  1.8372
 1275TIP3    H228021   4.856   0.113  17.649 -1.0038 -1.0967 -0.9460
 1276TIP3   OH228022   2.496   4.668  17.509 -0.0483  0.9735 -0.1183
 1276TIP3    H128023   2.415   4.642  17.464  0.2576 -0.3948  0.0766
 1276TIP3    H228024   2.490   4.625  17.594  1.4567 -0.1992 -0.5763
 1277TIP3   OH228025   4.908   3.542  16.705 -0.4430 -0.2409  0.5780
 1277TIP3    H128026   4.829   3.593  16.686 -0.4078 -0.5738 -0.5465
 1277TIP3    H228027   4.977   3.585  16.654 -0.1256 -0.5861  0.7156
 1278TIP3   OH228028   2.520   2.791  19.172  0.2370  0.3362 -0.2775
 1278TIP3    H128029   2.565   2.790  19.088  0.3272 -1.3316 -0.2468
 1278TIP3    H228030   2.580   2.745  19.232 -0.3972  0.3309  0.3697
 1279TIP3   OH228031   3.440   5.370  18.154  0.2971 -0.4016  0.7206
 1279TIP3    H128032   3.450   5.307  18.082 -0.7230 -0.1818  0.3638
 1279TIP3    H228033   3.349   5.398  18.148  0.5279  0.5295  1.3637
 1280TIP3   OH228034   2.587   3.772  17.809  0.1428 -0.1688  0.0687
 1280TIP3    H128035   2.591   3.705  17.876  1.3580 -1.3706 -1.1220
 1280TIP3    H228036   2.519   3.743  17.749 -2.3154  1.8853  1.6764
 1281TIP3   OH228037   6.676   5.813  18.652 -0.1246 -0.4811 -0.0721
 1281TIP3    H128038   6.728   5.761  18.591  3.3721  2.8414 -0.2914
 1281TIP3    H228039   6.638   5.883  18.599 -0.5369  0.0705  0.9148
 1282TIP3   OH228040   6.461   4.424  18.756 -0.5127  0.2601  0.1373
 1282TIP3    H128041   6.492   4.423  18.846  3.4334 -0.5908 -1.0604
 1282TIP3    H228042   6.474   4.515  18.727 -2.1104  0.6200  0.4544
 1283TIP3   OH228043   1.839   4.865  18.560  0.1090 -0.2256 -0.6661
 1283TIP3    H128044   1.781   4.792  18.540  0.7782 -0.8783 -0.2938
 1283TIP3    H228045   1.791   4.943  18.531 -0.7186 -0.7869 -0.8409
 1284TIP3   OH228046   7.258   1.056  17.084  0.6897 -0.0751  0.3508
 1284TIP3    H128047   7.277   0.996  17.156  1.5564 -1.7022 -1.1608
 1284TIP3    H228048   7.166   1.039  17.061  0.5963  0.0103  0.6575
 1285TIP3   OH228049   6.002   4.946  18.142 -0.5220  0.5669  0.1043
 1285TIP3    H128050   6.056   4.890  18.198  0.5757  0.5953 -0.8972
 1285TIP3    H228051   5.915   4.943  18.182 -0.3860 -1.4808  0.3275
 1286TIP3   OH228052   7.498   5.762  18.175 -0.7542  0.1637 -0.2131
 1286TIP3    H128053   7.526   5.689  18.231  0.2348 -0.9977 -2.1394
 1286TIP3    H228054   7.574   5.820  18.171 -0.3897 -0.3712 -1.2943
 1287TIP3   OH228055   1.794   6.984  17.398  0.1966  0.4811 -0.2607
 1287TIP3    H128056   1.887   6.966  17.409  0.2748  0.2133 -1.2451
 1287TIP3    H228057   1.754   6.955  17.479  1.1711  2.1822  0.9003
 1288TIP3   OH228058   3.596   4.193  17.476 -0.1416  0.5965  0.2739
 1288TIP3    H128059   3.525   4.183  17.412 -0.6558 -0.0423  0.9332
 1288TIP3    H228060   3.629   4.281  17.461  0.2215  0.2164 -1.3544
 1289TIP3   OH228061   2.907   4.579  17.584  0.1800 -0.2307  0.0717
 1289TIP3    H128062   2.990   4.605  17.621 -0.0059  2.4973 -1.1692
 1289TIP3    H228063   2.908   4.614  17.495 -2.0780 -0.5323 -0.1513
 1290TIP3   OH228064   2.083   6.398  17.886  0.0206  0.3368 -0.5018
 1290TIP3    H128065   2.140   6.439  17.822  0.1868  1.2735  0.2137
 1290TIP3    H228066   2.082   6.305  17.863  0.1258  0.6446 -1.7955
 1291TIP3   OH228067   7.462   1.922  19.154  0.2106 -0.6115 -0.1226
 1291TIP3    H128068   7.511   1.882  19.082  0.2101 -1.6659  0.4404
 1291TIP3    H228069   7.525   1.926  19.226  0.3179  0.7726 -0.2794
 1292TIP3   OH228070   5.997   2.025  17.089  0.2487  0.1113  0.1697
 1292TIP3    H128071   5.908   2.059  17.093  1.5625  4.3301 -0.5571
 1292TIP3    H228072   6.018   2.022  16.995  1.9043  3.0334  0.2963
 1293TIP3   OH228073   3.998   4.279  19.225  0.0031  0.4146  0.0305
 1293TIP3    H128074   3.961   4.264  19.138 -0.3341 -0.4534  0.3103
 1293TIP3    H228075   4.041   4.197  19.247 -0.1076  0.5504  0.7696
 1294TIP3   OH228076   5.282   7.363  18.405 -0.1153  0.2177  0.1460
 1294TIP3    H128077   5.335   7.437  18.434 -0.0774  0.8413 -1.3954
 1294TIP3    H228078   5.329   7.286  18.437  0.2593  0.8325  1.1157
 1295TIP3   OH228079   5.901   0.370  17.383 -0.4240  0.2473 -0.2294
 1295TIP3    H128080   5.877   0.440  17.323  0.5336  0.6294 -0.1754
 1295TIP3    H228081   5.932   0.299  17.327  1.3494  0.9399 -0.1826
 1296TIP3   OH228082   7.365   6.038  18.934  0.2507  0.0079  0.6144
 1296TIP3    H128083   7.338   5.951  18.903  0.0629 -0.4527  1.9783
 1296TIP3    H228084   7.284   6.086  18.946  0.3678  0.4685 -0.3647
 1297TIP3   OH228085   2.121   2.665  18.994 -0.2742 -0.2905  0.1637
 1297TIP3    H128086   2.175   2.664  19.073 -1.1629 -0.5331  0.7859
 1297TIP3    H228087   2.037   2.702  19.023 -0.0406  1.3428 -1.0635
 1298TIP3   OH228088   0.326   0.023  19.256 -0.5546 -0.7039 -0.0762
 1298TIP3    H128089   0.304   0.102  19.305 -0.3000  0.0699 -1.1662
 1298TIP3    H228090   0.242  -0.011  19.227 -0.9819 -2.6929  3.0596
 1299TIP3   OH228091   2.621   4.482  19.193  0.2431  0.2077  0.0899
 1299TIP3    H128092   2.635   4.517  19.281 -1.4175  1.3907 -0.0706
 1299TIP3    H228093   2.677   4.535  19.136 -0.6464  1.2129  0.1270
 1300TIP3   OH228094   1.459   1.849  16.760  0.2136 -0.0220 -0.0026
 1300TIP3    H128095   1.454   1.945  16.761  0.6190  0.0201 -1.2464
 1300TIP3    H228096   1.531   1.829  16.820 -0.6514  0.3676  1.2236
 1301TIP3   OH228097   0.260   3.269  16.750 -0.0444 -0.1373  0.2324
 1301TIP3    H128098   0.201   3.337  16.717  0.5949  0.1057 -0.4597
 1301TIP3    H228099   0.313   3.314  16.815 -0.5282 -0.3198  0.7517
 1302TIP3   OH228100   7.000   1.962  17.284  0.0726  0.4544  0.2174
 1302TIP3    H128101   7.031   1.957  17.374 -1.5293  0.9510  0.8140
 1302TIP3    H228102   7.075   1.997  17.235  2.0312 -2.6076  0.7397
 1303TIP3   OH228103   7.043   6.278  19.479  0.5820  0.1028  0.0055
 1303TIP3    H128104   6.950   6.255  19.490  0.6597 -0.9092 -1.2328
 1303TIP3    H228105   7.041   6.367  19.444  0.1412  0.6232  1.2968
 1304TIP3   OH228106   5.513   7.372  18.981 -0.8277  0.3116 -0.2206
 1304TIP3    H128107   5.508   7.276  18.989  0.9825  0.2054 -0.1081
 1304TIP3    H228108   5.516   7.402  19.072  0.3607  0.3517 -0.2651
 1305TIP3   OH228109   7.575   4.814  17.562  0.2389  0.1722  0.2775
 1305TIP3    H128110   7.542   4.737  17.514  3.6973 -0.8524 -0.7550
 1305TIP3    H228111   7.621   4.865  17.496  0.6641  1.5054  1.5630
 1306TIP3   OH228112   1.087   4.447  17.973 -0.7095  0.3111  0.9375
 1306TIP3    H128113   1.091   4.513  17.903  0.6882  0.0219  0.7215
 1306TIP3    H228114   1.003   4.404  17.960 -0.2638 -0.0763 -0.8996
 1307TIP3   OH228115   5.529   3.650  17.922  0.7134 -0.2353 -0.2064
 1307TIP3    H128116   5.536   3.623  17.830 -0.7593 -0.3402 -0.3024
 1307TIP3    H228117   5.574   3.581  17.971  1.2410 -0.3339 -0.8223
 1308TIP3   OH228118   7.172   5.526  18.069 -0.2345  0.1654 -0.5288
 1308TIP3    H128119   7.099   5.573  18.111 -0.2113 -0.3072  0.0658
 1308TIP3    H228120   7.131   5.476  17.999 -0.8236 -1.6203  1.0084
 1309TIP3   OH228121   7.434   0.197  18.930 -0.3023  0.7643  0.0026
 1309TIP3    H128122   7.482   0.272  18.895 -0.5474  0.9882  0.1412
 1309TIP3    H228123   7.379   0.168  18.857  1.2791 -0.5783 -0.7376
 1310TIP3   OH228124   0.003   0.472  16.450  0.1403 -0.2940 -0.1612
 1310TIP3    H128125  -0.031   0.416  16.380 -0.0810 -0.5225  0.1270
 1310TIP3    H228126   0.031   0.411  16.518  0.9380 -0.0996 -0.3053
 1311TIP3   OH228127   3.977   0.431  17.416  0.1480  0.2019  0.0195
 1311TIP3    H128128   4.035   0.364  17.383  0.3954 -0.4216  1.6116
 1311TIP3    H228129   4.032   0.485  17.473 -0.6240  0.0711  0.9263
 1312TIP3   OH228130   6.252   7.271  17.956  0.6410 -0.0934  0.1522
 1312TIP3    H128131   6.246   7.205  17.888  1.8462 -0.4178  0.3434
 1312TIP3    H228132   6.164   7.310  17.959 -0.6057 -2.7167  1.0931
 1313TIP3   OH228133   0.266   2.105  16.954  0.3098  0.0491 -0.6363
 1313TIP3    H128134   0.213   2.025  16.954  0.9331 -0.3639 -0.6031
 1313TIP3    H228135   0.302   2.110  16.866  1.1604 -0.3009 -0.3179
 1314TIP3   OH228136   3.575   2.477  17.797 -0.0127 -0.2977 -0.1428
 1314TIP3    H128137   3.664   2.510  17.802 -0.7937  2.1188 -0.7297
 1314TIP3    H228138   3.556   2.472  17.703 -0.7641  0.0778 -0.0238
 1315TIP3   OH228139   0.062   2.135  18.438  0.5437 -0.0323 -0.4126
 1315TIP3    H128140   0.128   2.173  18.381  0.3855 -0.4246 -0.8587
 1315TIP3    H228141   0.009   2.210  18.467  1.4170  0.3421  0.2769
 1316TIP3   OH228142   7.493   5.113  17.089 -0.0518  0.1134  0.5792
 1316TIP3    H128143   7.503   5.187  17.029  0.4887  0.1988  0.7676
 1316TIP3    H228144   7.576   5.066  17.083 -0.0173  0.0832  1.2081
 1317TIP3   OH228145   0.662   5.522  17.526 -0.2729  0.2025  0.2116
 1317TIP3    H128146   0.598   5.584  17.490  1.2421  0.8241 -1.5594
 1317TIP3    H228147   0.737   5.577  17.552 -0.8832 -0.3358  3.5748
 1318TIP3   OH228148   2.710   4.107  17.733  0.6281  0.3756  0.1411
 1318TIP3    H128149   2.642   4.158  17.689 -0.1894  0.1179  1.0725
 1318TIP3    H228150   2.736   4.162  17.808  0.6383 -0.0225  0.4325
 1319TIP3   OH228151   2.531   4.265  17.605 -0.4583 -0.0800 -0.5577
 1319TIP3    H128152   2.504   4.349  17.641 -1.7272 -0.2512 -1.0553
 1319TIP3    H228153   2.494   4.264  17.517  0.7588 -0.5705 -1.0850
 1320TIP3   OH228154   4.608   4.509  18.833 -0.2030 -0.5172 -0.5253
 1320TIP3    H128155   4.611   4.520  18.928  0.3485  1.3808 -0.7294
 1320TIP3    H228156   4.532   4.453  18.818 -0.2449 -0.9194  1.0359
 1321TIP3   OH228157   1.296   2.719  18.294 -0.4450  0.1654 -0.0558
 1321TIP3    H128158   1.261   2.796  18.249 -0.5518  0.2764  0.2167
 1321TIP3    H228159   1.308   2.748  18.384  0.9730  0.3373 -0.2700
 1322TIP3   OH228160   0.889   3.766  18.192 -0.2429  0.0334  0.4463
 1322TIP3    H128161   0.863   3.824  18.264 -2.3373  0.0405 -0.2408
 1322TIP3    H228162   0.905   3.826  18.119  1.7536  0.0146  0.8091
 1323TIP3   OH228163   0.875   6.769  17.647  0.0079 -1.0993 -0.3097
 1323TIP3    H128164   0.852   6.834  17.581 -0.8663 -0.9370  0.1476
 1323TIP3    H228165   0.793   6.747  17.691  0.3823 -2.0704 -0.0474
 1324TIP3   OH228166   4.573   1.459  17.896  0.0404 -0.3469 -0.4841
 1324TIP3    H128167   4.569   1.485  17.989 -0.1468 -1.3622 -0.1994
 1324TIP3    H228168   4.483   1.465  17.865  0.1195  0.1019 -0.6427
 1325TIP3   OH228169   3.121   5.711  18.843  0.2316 -0.2241 -0.0768
 1325TIP3    H128170   3.182   5.671  18.905  1.9159  0.1151 -1.4480
 1325TIP3    H228171   3.118   5.803  18.868  0.2073 -0.2594  0.0504
 1326TIP3   OH228172   7.539   1.718  17.185  0.2938 -0.3343 -0.0575
 1326TIP3    H128173   7.538   1.736  17.091 -0.1297  0.4457  0.0822
 1326TIP3    H228174   7.594   1.788  17.222  0.0918 -0.3693  0.3171
 1327TIP3   OH228175   5.734   4.114  17.292 -0.2779 -0.1142  0.2015
 1327TIP3    H128176   5.691   4.087  17.373 -0.9931  1.0293  0.2277
 1327TIP3    H228177   5.702   4.203  17.277  0.3151 -0.0909 -1.0167
 1328TIP3   OH228178   2.352   4.835  18.299 -0.1698  0.2102 -0.1950
 1328TIP3    H128179   2.269   4.882  18.290  0.8591  2.0363 -0.6166
 1328TIP3    H228180   2.412   4.879  18.239  0.9605 -1.4861 -0.3997
 1329TIP3   OH228181   3.488   4.419  18.806 -0.2338  0.1479 -0.8194
 1329TIP3    H128182   3.461   4.335  18.843  1.2241  0.5364  1.2953
 1329TIP3    H228183   3.546   4.395  18.734 -1.2741 -0.6299 -1.4345
 1330TIP3   OH228184   6.171   1.086  16.452 -0.4046 -0.2030  0.0398
 1330TIP3    H128185   6.146   0.995  16.472 -0.9970  0.3212  1.9473
 1330TIP3    H228186   6.261   1.094  16.485 -0.3986 -0.0534 -0.0118
 1331TIP3   OH228187   5.310   6.559  19.094  0.4896  0.3356 -0.5678
 1331TIP3    H128188   5.272   6.503  19.162 -1.4174 -0.9093 -2.5283
 1331TIP3    H228189   5.313   6.504  19.016  2.4136  1.7714 -1.6097
 1332TIP3   OH228190   3.248   1.609  17.692 -0.4931 -0.0584 -0.4828
 1332TIP3    H128191   3.281   1.584  17.606 -1.2622 -0.9112 -0.5473
 1332TIP3    H228192   3.201   1.691  17.678 -0.1557  0.0863 -0.7692
 1333TIP3   OH228193   6.459   4.924  16.839 -0.1457  0.2645 -0.5630
 1333TIP3    H128194   6.391   4.984  16.808 -0.7119  0.5070  1.0609
 1333TIP3    H228195   6.412   4.842  16.855  0.1046  0.1872 -0.2173
 1334TIP3   OH228196   0.660   5.303  16.710 -0.4928 -0.2295  0.1842
 1334TIP3    H128197   0.706   5.247  16.773 -0.6850 -0.5145  0.0711
 1334TIP3    H228198   0.680   5.392  16.738 -1.7496 -0.3310  1.5463
 1335TIP3   OH228199   7.027   5.514  18.462 -0.8916  0.0134  0.2172
 1335TIP3    H128200   7.122   5.503  18.465 -0.9257 -0.7781 -1.0047
 1335TIP3    H228201   6.997   5.487  18.549  0.0661  1.2477  0.9684
 1336TIP3   OH228202   3.256   6.103  16.621  0.4480  0.8080 -0.4696
 1336TIP3    H128203   3.264   6.145  16.707  2.7256  0.6486 -0.5452
 1336TIP3    H228204   3.305   6.161  16.562  0.1639  0.1389 -1.3734
 1337TIP3   OH228205   4.532   4.925  18.372 -0.0279  0.1463  0.0817
 1337TIP3    H128206   4.589   4.984  18.421  1.3335 -0.7927 -0.3333
 1337TIP3    H228207   4.469   4.894  18.437  0.1318  0.9289  0.6270
 1338TIP3   OH228208   2.464   0.928  18.488  0.3313 -0.2390  0.5128
 1338TIP3    H128209   2.556   0.934  18.517  0.6037  0.2976 -0.4215
 1338TIP3    H228210   2.450   0.834  18.475  0.0574 -0.5655  2.7487
 1339TIP3   OH228211   3.148   0.657  19.098 -0.6211 -0.2477 -0.1939
 1339TIP3    H128212   3.162   0.564  19.118  0.1303  0.0800  0.9452
 1339TIP3    H228213   3.171   0.665  19.006  0.2985 -1.0144 -0.0538
 1340TIP3   OH228214   1.790   1.191  18.022  0.0878  0.1556  0.0106
 1340TIP3    H128215   1.884   1.201  18.042  0.3986 -0.1613 -1.2053
 1340TIP3    H228216   1.746   1.246  18.086  1.1346  0.6912  0.3008
 1341TIP3   OH228217   6.980   6.948  17.759  0.1318 -0.1306 -0.2543
 1341TIP3    H128218   7.073   6.946  17.736  0.1787 -0.6142 -0.0378
 1341TIP3    H228219   6.950   7.034  17.731  1.2947  1.1712  2.1854
 1342TIP3   OH228220   7.597   3.782  17.977  0.0074  0.4059  0.3777
 1342TIP3    H128221   7.563   3.811  17.892  0.0588 -0.1520  0.1666
 1342TIP3    H228222   7.534   3.717  18.007  1.0115 -0.8439 -0.1406
 1343TIP3   OH228223   6.506   2.662  18.601 -0.1561  0.0664 -0.1715
 1343TIP3    H128224   6.491   2.713  18.521 -1.9418 -0.5239 -0.2547
 1343TIP3    H228225   6.461   2.711  18.670 -0.9913 -0.8103 -0.0645
 1344TIP3   OH228226   0.561   3.601  18.761 -0.1240  0.8469  0.3645
 1344TIP3    H128227   0.503   3.615  18.836  0.9015  0.4507  1.2558
 1344TIP3    H228228   0.535   3.516  18.726 -0.1741  0.7321  0.6755
 1345TIP3   OH228229   0.358   7.362  18.024  0.1417  0.0402 -0.1026
 1345TIP3    H128230   0.437   7.408  17.997  0.1542  0.3316  0.4094
 1345TIP3    H228231   0.308   7.350  17.943  0.3847  0.4829 -0.3218
 1346TIP3   OH228232   1.161   2.362  17.013  0.0880  0.9941  0.2077
 1346TIP3    H128233   1.229   2.358  16.947 -1.2141  1.5284 -1.2234
 1346TIP3    H228234   1.206   2.393  17.092  1.6699  0.3184 -0.3914
 1347TIP3   OH228235   1.316   1.654  18.253 -0.2153  0.1510  0.0719
 1347TIP3    H128236   1.312   1.578  18.310 -0.8919  0.0851 -0.0514
 1347TIP3    H228237   1.387   1.707  18.288  1.8030 -1.5802 -1.1587
 1348TIP3   OH228238   6.982   1.668  19.418  0.5767  0.6272  0.5911
 1348TIP3    H128239   7.025   1.622  19.346 -0.8693 -2.2236  1.3901
 1348TIP3    H228240   7.053   1.706  19.468  1.9310 -0.8793 -0.0868
 1349TIP3   OH228241   7.435   3.543  17.946 -0.1418  0.4899 -0.2419
 1349TIP3    H128242   7.345   3.528  17.975 -0.3881  0.0245 -1.1939
 1349TIP3    H228243   7.425   3.594  17.865  0.3838 -0.3539 -0.8647
 1350TIP3   OH228244   0.569   6.648  18.022 -0.5804  0.0290  0.8586
 1350TIP3    H128245   0.493   6.599  18.054 -2.8284  1.7774 -1.4191
 1350TIP3    H228246   0.535   6.736  18.005  1.3917  0.3503 -2.1731
 1351TIP3   OH228247   5.527   2.826  19.604 -0.1276 -0.1734 -0.1070
 1351TIP3    H128248   5.470   2.847  19.530  0.5552 -0.4812 -0.7342
 1351TIP3    H228249   5.561   2.739  19.584  0.6548  0.0494  0.1901
 1352TIP3   OH228250   7.086   6.983  17.426 -0.3362 -0.2549  0.2762
 1352TIP3    H128251   7.064   7.066  17.467  0.6720  0.3005 -0.2838
 1352TIP3    H228252   7.003   6.935  17.425 -1.8284  2.0742 -2.5090
 1353TIP3   OH228253   7.536   3.507  19.199 -0.6302 -0.0141  0.4016
 1353TIP3    H128254   7.510   3.562  19.126  0.4245 -0.3599 -0.2619
 1353TIP3    H228255   7.464   3.445  19.210 -1.4554  0.9694  0.6282
 1354TIP3   OH228256   6.012   0.443  19.135  0.1342 -0.1128 -0.0843
 1354TIP3    H128257   5.991   0.372  19.074  1.5199  0.2964 -1.1032
 1354TIP3    H228258   5.928   0.481  19.159 -0.4349  0.0688 -2.1960
 1355TIP3   OH228259   6.162   0.019  19.292 -0.0871  0.4360 -0.4558
 1355TIP3    H128260   6.171   0.089  19.357  0.5102 -0.2713  0.2582
 1355TIP3    H228261   6.196  -0.059  19.337  0.9292  0.0476 -1.8384
 1356TIP3   OH228262   7.471   5.677  18.694  0.0270  0.5242 -0.4283
 1356TIP3    H128263   7.529   5.656  18.767  1.4328  0.1738 -1.5946
 1356TIP3    H228264   7.396   5.721  18.735 -0.6164 -2.1236  1.5335
 1357TIP3   OH228265   6.638   1.313  17.949 -0.0829 -0.3550  0.1894
 1357TIP3    H128266   6.563   1.296  18.005 -0.1432 -1.4725 -0.2008
 1357TIP3    H228267   6.641   1.238  17.889  2.3946 -1.2605  1.3240
 1358TIP3   OH228268   5.212   6.528  16.801 -0.2488 -0.0102  0.0695
 1358TIP3    H128269   5.207   6.435  16.823 -0.7018 -0.3009 -1.1685
 1358TIP3    H228270   5.130   6.545  16.754  0.9518  0.3770 -1.9617
 1359TIP3   OH228271   5.459   0.865  18.118 -0.0523 -0.3445 -0.0910
 1359TIP3    H128272   5.527   0.917  18.161 -0.1250 -0.7311  0.5051
 1359TIP3    H228273   5.490   0.854  18.028  0.7868 -0.7145  0.2363
 1360TIP3   OH228274   4.623   4.812  18.761  0.1222  0.3270 -0.5835
 1360TIP3    H128275   4.575   4.731  18.742  1.4210 -0.1441 -2.0747
 1360TIP3    H228276   4.694   4.784  18.819 -0.3851  0.7264  0.2565
 1361TIP3   OH228277   3.489   4.895  16.815 -0.5228  0.5459 -0.3928
 1361TIP3    H128278   3.417   4.931  16.764 -1.4418 -0.5681  0.0837
 1361TIP3    H228279   3.555   4.870  16.750 -0.3420  2.0063 -0.7984
 1362TIP3   OH228280   3.428   6.288  18.532 -0.5086 -0.0309  0.1064
 1362TIP3    H128281   3.467   6.211  18.491  1.1665  1.0974 -0.5346
 1362TIP3    H228282   3.460   6.286  18.622 -1.0938 -0.4861  0.3069
 1363TIP3   OH228283   2.436   0.296  17.088  0.7772  0.1289 -0.4917
 1363TIP3    H128284   2.361   0.350  17.064 -0.2883 -0.8796  0.4724
 1363TIP3    H228285   2.432   0.221  17.028 -0.6372 -1.3112  1.2950
 1364TIP3   OH228286   7.339   4.529  16.442  0.3052  0.9024  0.2017
 1364TIP3    H128287   7.365   4.487  16.524  1.0598  0.6890 -0.1270
 1364TIP3    H228288   7.398   4.490  16.377 -0.8573  0.4212 -0.5900
 1365TIP3   OH228289   7.125   0.236  18.964 -0.2940  0.3188  0.9289
 1365TIP3    H128290   7.079   0.153  18.977 -2.3473  0.9149 -1.5740
 1365TIP3    H228291   7.197   0.214  18.905  1.2600 -0.1803  2.9068
 1366TIP3   OH228292   1.603   3.213  18.284 -0.0694  0.0279 -0.3797
 1366TIP3    H128293   1.550   3.279  18.331  0.9273  0.0343  0.7732
 1366TIP3    H228294   1.679   3.200  18.340 -1.1915 -3.6960  0.5573
 1367TIP3   OH228295   3.153   1.064  18.363  0.0486  0.3283  0.3233
 1367TIP3    H128296   3.237   1.074  18.319  0.1731 -0.8560  0.2629
 1367TIP3    H228297   3.089   1.061  18.291  0.0817  0.0580  0.3040
 1368TIP3   OH228298   2.498   2.878  17.363  0.4108 -0.1076 -0.1021
 1368TIP3    H128299   2.407   2.907  17.370  0.2659 -0.6948  0.6466
 1368TIP3    H228300   2.502   2.832  17.279 -0.1876 -0.7127  0.1855
 1369TIP3   OH228301   1.552   7.353  17.564 -0.2006 -0.1838  0.1536
 1369TIP3    H128302   1.502   7.383  17.640 -1.2438 -1.1498 -0.1239
 1369TIP3    H228303   1.518   7.406  17.491  1.1775  1.1282  0.4037
 1370TIP3   OH228304   0.205   7.354  16.395 -0.3076 -0.8771  0.0875
 1370TIP3    H128305   0.147   7.326  16.466  0.1666 -0.5183  0.6195
 1370TIP3    H228306   0.235   7.273  16.355 -0.0312 -1.0973  0.7353
 1371TIP3   OH228307   3.772   1.710  19.130 -0.2464 -0.2668  0.5018
 1371TIP3    H128308   3.792   1.803  19.128 -1.0994 -0.0908 -0.3598
 1371TIP3    H228309   3.831   1.671  19.065 -0.5178 -0.1922  0.2083
 1372TIP3   OH228310   3.964   1.050  17.797 -0.5149 -0.3117  0.1140
 1372TIP3    H128311   3.906   1.117  17.833 -0.4036 -0.0539 -0.1891
 1372TIP3    H228312   4.033   1.099  17.752 -0.5424 -0.6335 -0.2838
 1373TIP3   OH228313   5.711   3.036  19.480  0.0570 -0.0037  0.2203
 1373TIP3    H128314   5.682   2.999  19.563  0.3375 -2.6132 -0.7438
 1373TIP3    H228315   5.633   3.035  19.425  0.0315  1.0757  0.2189
 1374TIP3   OH228316   3.147   3.453  17.277 -0.1750  0.1280  0.4747
 1374TIP3    H128317   3.219   3.483  17.333  0.2981  0.4588 -0.2986
 1374TIP3    H228318   3.191   3.408  17.205 -0.8052 -0.8120  0.6654
 1375TIP3   OH228319   7.119   6.753  19.317  0.1682  0.0684 -0.1686
 1375TIP3    H128320   7.206   6.792  19.306  0.8869 -1.0954  1.0976
 1375TIP3    H228321   7.088   6.785  19.401 -0.7028  0.5578 -0.6540
 1376TIP3   OH228322   0.371   2.418  17.111 -0.2033  0.1705 -0.4461
 1376TIP3    H128323   0.321   2.393  17.034 -1.2902  0.3276  0.1827
 1376TIP3    H228324   0.367   2.341  17.168  0.5072  0.0891 -0.4954
 1377TIP3   OH228325   4.044   3.192  17.407 -0.9621 -0.1681  0.3008
 1377TIP3    H128326   4.021   3.254  17.476 -0.2736  0.0133  0.3676
 1377TIP3    H228327   4.139   3.190  17.406 -0.9671 -0.5267 -0.3267
 1378TIP3   OH228328   1.977   0.270  17.936  0.0835 -0.5259  0.2560
 1378TIP3    H128329   2.028   0.349  17.956  0.0309 -0.8773  1.8362
 1378TIP3    H228330   2.029   0.225  17.869  0.1732  0.7793 -0.5893
 1379TIP3   OH228331   0.271   0.500  18.653  0.4805  0.0047 -0.2329
 1379TIP3    H128332   0.344   0.529  18.709  0.8009  0.0167 -0.6558
 1379TIP3    H228333   0.295   0.530  18.565  0.2328 -0.4801 -0.4682
 1380TIP3   OH228334   3.430   5.784  17.943 -0.0475  0.3174 -0.2928
 1380TIP3    H128335   3.353   5.775  17.999 -0.3922  1.4908 -0.5548
 1380TIP3    H228336   3.418   5.868  17.898  1.2308  0.3723 -0.5735
 1381TIP3   OH228337   5.311   3.331  18.993 -0.2838  0.2247 -0.2091
 1381TIP3    H128338   5.249   3.308  18.923 -0.6219  0.2888  0.0701
 1381TIP3    H228339   5.322   3.426  18.986  0.4227  0.1128 -0.7825
 1382TIP3   OH228340   7.073   1.887  19.092 -0.6859  0.3005  0.2846
 1382TIP3    H128341   7.026   1.950  19.037 -1.2753  0.0741  0.5192
 1382TIP3    H228342   7.006   1.823  19.118 -0.6578  0.9241  2.0402
 1383TIP3   OH228343   6.561   2.793  19.251  0.3678 -0.6038  0.1733
 1383TIP3    H128344   6.485   2.760  19.204 -0.3063  1.2619 -0.1063
 1383TIP3    H228345   6.599   2.715  19.292 -0.2657 -1.9483 -1.6522
 1384TIP3   OH228346   7.010   4.247  18.242 -0.5926  0.1064 -0.3346
 1384TIP3    H128347   7.090   4.272  18.196 -0.5843 -0.1744 -0.4791
 1384TIP3    H228348   6.973   4.177  18.188 -1.0524  0.3870 -0.3849
 1385TIP3   OH228349   2.341   3.263  16.713 -0.1748  0.1370 -0.5100
 1385TIP3    H128350   2.261   3.220  16.743 -0.0103 -0.1646 -0.4912
 1385TIP3    H228351   2.399   3.190  16.690  0.2965  0.3458  0.0105
 1386TIP3   OH228352   7.173   2.830  18.453  0.0535  0.0311  0.8234
 1386TIP3    H128353   7.098   2.781  18.419  0.7793 -0.2628 -0.4096
 1386TIP3    H228354   7.135   2.910  18.490 -0.8780 -0.1336  0.2527
 1387TIP3   OH228355   3.683   3.802  18.198 -0.6427 -0.2546 -0.0508
 1387TIP3    H128356   3.744   3.803  18.124 -1.5692 -0.2973 -0.8284
 1387TIP3    H228357   3.686   3.711  18.229  0.0567 -0.1410  0.2430
 1388TIP3   OH228358   6.121   4.454  17.842 -0.3011 -0.1339  0.2234
 1388TIP3    H128359   6.059   4.390  17.807  0.2473 -0.5595 -0.0057
 1388TIP3    H228360   6.140   4.511  17.767 -3.7885  2.8482  1.3574
 1389TIP3   OH228361   0.396   7.397  17.109  0.2236 -0.0310 -0.0085
 1389TIP3    H128362   0.423   7.488  17.093  1.4497 -0.2983  0.4439
 1389TIP3    H228363   0.432   7.348  17.035 -0.5780 -0.1338 -0.3383
 1390TIP3   OH228364   2.972   6.994  17.662  0.8501 -0.0046  0.1141
 1390TIP3    H128365   3.010   6.938  17.595  0.2048 -2.1592  1.4440
 1390TIP3    H228366   3.013   6.965  17.744  0.0765  1.0857  0.9301
 1391TIP3   OH228367   0.622   4.797  19.186 -0.1630  0.4357  0.2953
 1391TIP3    H128368   0.546   4.758  19.229  0.2107  1.0658  1.5651
 1391TIP3    H228369   0.678   4.723  19.164 -1.8192 -0.2336 -2.1772
 1392TIP3   OH228370   4.116   5.921  16.816  0.4447  0.0635 -0.5290
 1392TIP3    H128371   4.147   5.849  16.871  0.9430  0.5975 -0.1016
 1392TIP3    H228372   4.052   5.880  16.758 -1.5251 -0.1729  1.6820
 1393TIP3   OH228373   3.529   3.102  17.624  0.2857 -0.1863  0.3982
 1393TIP3    H128374   3.591   3.175  17.625 -1.0608  0.9891  1.2618
 1393TIP3    H228375   3.484   3.111  17.540 -0.8843  0.9000  1.1069
 1394TIP3   OH228376   0.943   6.691  16.775  0.4357 -0.6325 -0.3084
 1394TIP3    H128377   0.929   6.605  16.735 -0.5151 -0.0918 -1.2130
 1394TIP3    H228378   0.955   6.750  16.700  1.8786 -0.0931  0.3193
 1395TIP3   OH228379   7.308   0.330  17.154  0.2246  0.6079 -0.2642
 1395TIP3    H128380   7.344   0.414  17.127  2.4765 -0.3547 -0.5319
 1395TIP3    H228381   7.233   0.316  17.096  1.1330  1.4517 -1.6936
 1396TIP3   OH228382   3.247   6.351  18.019  0.3398  1.0065  0.1281
 1396TIP3    H128383   3.176   6.295  17.988  0.7735  0.8677 -0.6393
 1396TIP3    H228384   3.218   6.381  18.105 -0.4851  0.6657 -0.0214
 1397TIP3   OH228385   7.070   7.439  17.077  0.1852 -0.1042 -0.0620
 1397TIP3    H128386   7.002   7.437  17.011  0.4532  0.2890 -0.3547
 1397TIP3    H228387   7.032   7.394  17.153 -0.0373 -0.7760 -0.5584
 1398TIP3   OH228388   1.415   6.963  18.184 -0.2474  0.3009 -0.0621
 1398TIP3    H128389   1.393   6.891  18.126 -1.5680 -0.6824  1.5652
 1398TIP3    H228390   1.331   6.999  18.212  0.0979 -1.2340  3.5302
 1399TIP3   OH228391   4.431   6.973  18.886  0.2291 -0.0669 -0.0209
 1399TIP3    H128392   4.455   6.988  18.977 -0.5070 -0.1451  0.1913
 1399TIP3    H228393   4.454   6.882  18.870  0.4702 -0.0195  0.0507
 1400TIP3   OH228394   6.242   3.861  18.601  0.5227  0.0160  0.2637
 1400TIP3    H128395   6.181   3.854  18.674 -0.2364 -0.2120 -0.3822
 1400TIP3    H228396   6.311   3.798  18.621 -0.8394 -1.7469 -0.3060
 1401TIP3   OH228397   3.026   5.824  16.904  0.0818 -0.0348 -0.1737
 1401TIP3    H128398   3.013   5.918  16.915  0.4377  0.1861 -1.4626
 1401TIP3    H228399   2.993   5.786  16.985 -1.6834  1.0637 -0.3189
 1402TIP3   OH228400   2.976   3.348  18.053 -0.1339  0.0988 -0.0066
 1402TIP3    H128401   3.023   3.268  18.076  0.1751  0.6718  1.4655
 1402TIP3    H228402   2.884   3.323  18.053  0.0453 -0.6881 -1.4749
 1403TIP3   OH228403   5.698   3.543  18.703  0.8456 -0.5760  0.1826
 1403TIP3    H128404   5.734   3.574  18.620 -0.1220 -0.2492 -0.1303
 1403TIP3    H228405   5.603   3.548  18.691  0.6120  2.1212  2.2327
 1404TIP3   OH228406   4.663   2.222  18.820  0.4221 -0.3297  0.1647
 1404TIP3    H128407   4.718   2.223  18.742  2.3730  1.8090  1.4410
 1404TIP3    H228408   4.582   2.265  18.793  0.9953  0.2214 -0.7370
 1405TIP3   OH228409   2.866   7.450  19.203 -0.1580  0.1262 -0.0172
 1405TIP3    H128410   2.803   7.399  19.152 -0.2123 -2.1966  2.1917
 1405TIP3    H228411   2.926   7.385  19.239  0.8476  1.8301  1.5294
 1406TIP3   OH228412   0.077   2.087  18.811 -0.4388 -0.1491 -0.1450
 1406TIP3    H128413   0.085   2.040  18.894 -0.9953 -0.9500 -0.5386
 1406TIP3    H228414   0.018   2.160  18.830 -0.7657 -0.4755  0.1065
 1407TIP3   OH228415   3.673   2.289  19.230  0.5361 -0.2961 -0.0233
 1407TIP3    H128416   3.585   2.314  19.203  0.5577 -0.9274 -0.6932
 1407TIP3    H228417   3.670   2.194  19.239  1.0868 -0.3006  0.1601
 1408TIP3   OH228418   1.131   3.294  18.879  0.2701 -0.7564  0.0048
 1408TIP3    H128419   1.158   3.302  18.971 -3.1473  0.5518  1.0368
 1408TIP3    H228420   1.127   3.384  18.847  0.5146 -1.1425 -1.1383
 1409TIP3   OH228421   3.417   3.444  18.191  0.0002 -0.1450  0.0607
 1409TIP3    H128422   3.421   3.539  18.180  1.2752 -0.2028 -0.0132
 1409TIP3    H228423   3.452   3.429  18.278 -1.4904 -0.4616  0.6446
 1410TIP3   OH228424   7.288   3.488  18.833  0.1570 -0.3024  0.0002
 1410TIP3    H128425   7.319   3.573  18.866  0.0501 -0.0681 -0.4867
 1410TIP3    H228426   7.283   3.432  18.911 -0.2514  0.2835  0.4030
 1411TIP3   OH228427   6.639   6.371  17.388  0.0625 -0.3921  0.7125
 1411TIP3    H128428   6.669   6.288  17.425  0.2604 -0.3901  0.5579
 1411TIP3    H228429   6.550   6.353  17.358 -0.5518 -0.0722  2.2582
 1412TIP3   OH228430   6.058   7.103  18.057  0.1490 -0.4142 -0.7746
 1412TIP3    H128431   6.021   7.178  18.011  0.7613  0.8445  0.6903
 1412TIP3    H228432   6.055   7.128  18.150  0.4255 -2.1868 -0.2382
 1413TIP3   OH228433   7.432   5.026  17.999 -0.3006  0.0945  0.3764
 1413TIP3    H128434   7.419   4.936  18.028  1.0560 -0.5530 -0.9315
 1413TIP3    H228435   7.390   5.030  17.913  2.0363 -0.1113 -0.8280
 1414TIP3   OH228436   2.709   6.933  16.653  0.1638  0.3734 -0.1024
 1414TIP3    H128437   2.667   6.998  16.596  0.4065  0.2323 -0.4491
 1414TIP3    H228438   2.681   6.848  16.618  0.2777  0.2862  0.0161
 1415TIP3   OH228439   6.354   1.618  17.120  0.1196 -0.5215  0.6541
 1415TIP3    H128440   6.268   1.576  17.127 -0.7536  1.0021 -0.2467
 1415TIP3    H228441   6.334   1.709  17.097  1.9429  0.2016  1.6902
 1416TIP3   OH228442   6.903   3.694  19.104 -0.3056 -0.0442 -0.8005
 1416TIP3    H128443   6.942   3.692  19.017 -2.1491 -0.0140 -1.6568
 1416TIP3    H228444   6.819   3.650  19.094 -0.1134 -0.9996  1.2218
 1417TIP3   OH228445   1.182   5.665  18.128 -0.4326 -0.3595  0.1405
 1417TIP3    H128446   1.201   5.728  18.058  1.8380 -0.8259  0.2311
 1417TIP3    H228447   1.173   5.581  18.083  0.4074 -0.5561  0.3114
 1418TIP3   OH228448   2.673   0.695  17.585  0.5495 -0.1647 -0.3283
 1418TIP3    H128449   2.580   0.703  17.564  0.6899 -1.5146 -1.5953
 1418TIP3    H228450   2.675   0.681  17.680 -0.5528 -0.5150 -0.3495
 1419TIP3   OH228451   6.133   7.075  18.735 -0.1346  0.0477 -0.2423
 1419TIP3    H128452   6.081   7.001  18.767 -2.0143  0.9641 -0.9898
 1419TIP3    H228453   6.093   7.097  18.651  0.4777  1.8177 -0.1000
 1420TIP3   OH228454   4.358   5.522  18.363  0.3888 -0.3799  0.0687
 1420TIP3    H128455   4.284   5.548  18.308  0.0368 -0.0543  0.6853
 1420TIP3    H228456   4.341   5.563  18.447  0.9956 -0.7546  0.3828
 1421TIP3   OH228457   1.213   5.687  17.321 -0.1817 -0.3324 -0.4120
 1421TIP3    H128458   1.120   5.670  17.305  0.0613 -0.8211 -1.3276
 1421TIP3    H228459   1.218   5.783  17.327 -0.8090 -0.3188  0.1334
 1422TIP3   OH228460   2.534   0.102  18.842  0.2295 -0.0734 -0.0599
 1422TIP3    H128461   2.548   0.127  18.751  0.8629  1.2342  0.3706
 1422TIP3    H228462   2.486   0.176  18.880 -1.9852 -1.5514  0.1621
 1423TIP3   OH228463   3.453   1.357  19.324 -0.4141  0.6618  0.2682
 1423TIP3    H128464   3.487   1.268  19.318 -2.8928 -0.3405 -0.0968
 1423TIP3    H228465   3.468   1.383  19.415 -0.2908 -0.4020  0.5630
 1424TIP3   OH228466   5.425   4.153  18.503 -0.4750  0.4868 -0.3856
 1424TIP3    H128467   5.400   4.111  18.584  0.0347  0.4281 -0.2567
 1424TIP3    H228468   5.486   4.222  18.529 -0.3894  0.5363 -0.7037
 1425TIP3   OH228469   4.047   2.243  19.207  0.3674  0.1612 -0.6510
 1425TIP3    H128470   4.097   2.319  19.234  1.1708 -0.1101 -1.3371
 1425TIP3    H228471   3.955   2.271  19.216  0.5366  0.0639  2.2933
 1426TIP3   OH228472   1.036   5.898  16.714  0.0628 -0.1174 -0.1262
 1426TIP3    H128473   1.032   5.805  16.695  0.5544 -0.0077 -0.8067
 1426TIP3    H228474   0.980   5.939  16.649 -0.4713  0.0367  0.4202
 1427TIP3   OH228475   0.659   5.667  16.760  0.5004  0.1863 -0.1417
 1427TIP3    H128476   0.576   5.631  16.728  1.3064 -2.4729  0.4946
 1427TIP3    H228477   0.675   5.621  16.842  1.5659  2.2618  0.8880
 1428TIP3   OH228478   4.720   3.373  17.332  0.6923  0.2906  0.2391
 1428TIP3    H128479   4.813   3.378  17.354  0.5169 -1.7319  1.6399
 1428TIP3    H228480   4.704   3.280  17.317 -0.9617  0.6993 -0.7621
 1429TIP3   OH228481   2.627   3.484  17.345  0.4501  0.2236 -0.0663
 1429TIP3    H128482   2.683   3.559  17.363  0.8709  0.0436 -0.6076
 1429TIP3    H228483   2.654   3.418  17.410 -1.9899  1.5262  2.4984
 1430TIP3   OH228484   1.981   6.984  17.151 -0.3338 -0.4127 -0.4973
 1430TIP3    H128485   2.025   6.906  17.119 -1.6561 -2.4525  2.2212
 1430TIP3    H228486   1.993   6.982  17.246 -0.6792  2.5835 -0.2796
 1431TIP3   OH228487   7.103   2.350  18.267  0.3499  0.6129 -0.5704
 1431TIP3    H128488   7.150   2.306  18.338  2.1155  1.4626 -1.1595
 1431TIP3    H228489   7.069   2.279  18.213  1.7455 -0.0703 -0.6056
 1432TIP3   OH228490   0.004   5.418  16.666 -0.2701  0.0481 -0.1006
 1432TIP3    H128491   0.098   5.430  16.676  0.0648 -2.5937  0.6842
 1432TIP3    H228492  -0.011   5.420  16.572  0.8846 -1.2722 -0.3325
 1433TIP3   OH228493   2.262   6.697  17.381 -0.5700  0.0079 -0.0051
 1433TIP3    H128494   2.191   6.634  17.371 -0.3475 -0.2844  0.2499
 1433TIP3    H228495   2.297   6.707  17.293  0.6144 -1.6633  0.2312
 1434TIP3   OH228496   3.546   6.639  19.109 -0.2908 -0.5060  0.4574
 1434TIP3    H128497   3.502   6.647  19.024  0.8742 -0.5638 -0.1671
 1434TIP3    H228498   3.572   6.547  19.113 -0.8470 -0.6432  1.1527
 1435TIP3   OH228499   4.815   5.394  17.361 -0.3961 -0.5229  0.1419
 1435TIP3    H128500   4.792   5.364  17.449 -2.2311 -0.8234 -0.3908
 1435TIP3    H228501   4.810   5.316  17.307  0.7473 -0.3452 -0.2495
 1436TIP3   OH228502   7.503   2.141  17.944 -0.0721 -0.7496 -0.3205
 1436TIP3    H128503   7.542   2.193  17.874 -1.5427 -0.7296 -1.1748
 1436TIP3    H228504   7.539   2.053  17.931  0.3513 -0.5407 -0.5643
 1437TIP3   OH228505   1.563   5.704  19.263  0.3068 -0.2787 -0.3195
 1437TIP3    H128506   1.626   5.771  19.291 -0.9993  0.3294  1.2813
 1437TIP3    H228507   1.525   5.739  19.183 -0.3310  0.8970  0.4792
 1438TIP3   OH228508   5.073   4.298  17.558  0.0467 -0.2947  0.1695
 1438TIP3    H128509   5.067   4.240  17.482 -1.7679 -0.0932  0.1200
 1438TIP3    H228510   5.139   4.364  17.533  1.3616 -1.6803 -0.1820
 1439TIP3   OH228511   0.894   5.840  19.364 -0.3534  0.0657  0.3204
 1439TIP3    H128512   0.957   5.806  19.428 -0.7849 -2.0268 -0.2965
 1439TIP3    H228513   0.858   5.762  19.322 -2.6612  1.2474 -0.0335
 1440TIP3   OH228514   3.432   2.305  19.102 -0.0639 -0.1461 -0.2070
 1440TIP3    H128515   3.397   2.270  19.021 -0.9909 -1.6132  0.7794
 1440TIP3    H228516   3.355   2.333  19.152  0.2195 -1.9369  1.3325
 1441TIP3   OH228517   0.648   6.723  17.776  0.2796  0.1487 -0.0400
 1441TIP3    H128518   0.599   6.801  17.801 -1.4012 -0.5535 -0.9592
 1441TIP3    H228519   0.631   6.660  17.846  1.3831  0.4719  0.5448
 1442TIP3   OH228520   5.587   5.466  18.008  0.0584  0.2370 -0.4222
 1442TIP3    H128521   5.582   5.370  18.006 -0.9592  0.2927 -1.6102
 1442TIP3    H228522   5.571   5.488  18.100 -0.7934 -0.6972 -0.3282
 1443TIP3   OH228523   2.886   6.623  18.383  0.4741 -0.7527  0.5679
 1443TIP3    H128524   2.864   6.562  18.312  0.3070  0.2663 -0.2856
 1443TIP3    H228525   2.981   6.622  18.387  0.6764  1.0582 -1.4621
 1444TIP3   OH228526   3.795   7.678  18.242 -0.3857 -0.0057  0.2451
 1444TIP3    H128527   3.714   7.707  18.200 -0.9864 -0.0393  1.3463
 1444TIP3    H228528   3.833   7.758  18.279 -1.3956 -0.3674  2.1864
 1445TIP3   OH228529   2.473   5.992  19.216  0.3803 -0.0891 -0.2920
 1445TIP3    H128530   2.440   6.071  19.172  1.9011  1.3610  1.0003
 1445TIP3    H228531   2.395   5.942  19.239 -0.6700  1.3123 -0.6742
 1446TIP3   OH228532   7.431   0.255  19.406  0.3622  0.1080  0.0746
 1446TIP3    H128533   7.365   0.244  19.337  1.3274 -1.3671 -0.6801
 1446TIP3    H228534   7.406   0.335  19.451 -1.0196  0.4447 -1.2052
 1447TIP3   OH228535   0.191   7.076  17.788 -0.5192 -0.0983  0.4401
 1447TIP3    H128536   0.238   7.144  17.740 -0.7256  0.5813  1.1857
 1447TIP3    H228537   0.157   7.120  17.865 -2.6620 -0.4798 -0.2205
 1448TIP3   OH228538   1.479   6.710  19.415 -0.0613 -0.1860 -0.4308
 1448TIP3    H128539   1.513   6.706  19.504 -0.0212 -1.5550 -0.4914
 1448TIP3    H228540   1.491   6.801  19.389  2.3223 -0.3031  0.0397
 1449TIP3   OH228541   2.089   5.099  18.952 -0.1122  0.3857  0.6050
 1449TIP3    H128542   2.159   5.067  18.895 -1.0289 -0.1923 -0.2185
 1449TIP3    H228543   2.082   5.193  18.931  0.1713  0.3684  0.4291
 1450TIP3   OH228544   5.551   2.154  17.836 -0.1549 -0.0134 -0.3091
 1450TIP3    H128545   5.495   2.152  17.914  0.4692  0.1707  0.1461
 1450TIP3    H228546   5.639   2.138  17.868 -0.1861 -2.6468 -1.2863
 1451TIP3   OH228547   5.632   6.779  16.561 -0.0757  0.6832  0.2322
 1451TIP3    H128548   5.548   6.787  16.516 -0.0565  2.5890  0.4841
 1451TIP3    H228549   5.619   6.707  16.622 -0.9878 -0.1144 -0.8439
 1452TIP3   OH228550   4.335   4.605  17.985 -0.1930 -0.7243 -0.1579
 1452TIP3    H128551   4.375   4.520  17.996  0.5705 -0.2736  0.6320
 1452TIP3    H228552   4.360   4.655  18.063 -1.1416  0.0216 -0.3011
 1453TIP3   OH228553   7.537   1.686  17.470  0.5712 -0.6652  0.7356
 1453TIP3    H128554   7.521   1.692  17.376  0.6283 -2.1922  0.6144
 1453TIP3    H228555   7.477   1.618  17.500 -0.6285  0.9176  2.1026
 1454TIP3   OH228556   2.040   0.395  19.121 -0.3148  0.2216  0.3827
 1454TIP3    H128557   1.997   0.430  19.043  0.2550  1.4077  0.5937
 1454TIP3    H228558   2.055   0.303  19.100  0.3461  0.6521 -1.1370
 1455TIP3   OH228559   5.718   0.780  19.390 -0.1375 -0.5493  0.5083
 1455TIP3    H128560   5.804   0.775  19.433  0.3871 -1.6585 -0.6060
 1455TIP3    H228561   5.662   0.721  19.441 -0.6765  1.2139  2.0831
 1456TIP3   OH228562   7.011   6.985  18.108 -0.2777  0.5423  0.2076
 1456TIP3    H128563   7.097   6.950  18.131 -0.4773 -0.1478 -0.0393
 1456TIP3    H228564   7.004   6.971  18.013 -0.4456  1.0791  0.1388
 1457TIP3   OH228565   4.864   3.226  19.439 -0.2367 -0.3566  0.3875
 1457TIP3    H128566   4.941   3.216  19.384  0.1043  0.1316  0.7694
 1457TIP3    H228567   4.801   3.162  19.404 -0.3717  0.5425 -1.1555
 1458TIP3   OH228568   7.406   7.009  18.422  0.0816 -0.3071  0.0296
 1458TIP3    H128569   7.368   6.974  18.502 -0.5400  0.9939  0.3410
 1458TIP3    H228570   7.417   7.102  18.440  3.9269 -0.6165  0.1311
 1459TIP3   OH228571   5.141   1.053  17.663 -0.3192 -0.9248  0.0545
 1459TIP3    H128572   5.073   1.086  17.722  0.4224 -1.0540  1.0075
 1459TIP3    H228573   5.200   1.128  17.650  0.7580 -1.5142  1.3295
 1460TIP3   OH228574   1.489   4.341  16.557  0.2376 -0.2921 -0.9798
 1460TIP3    H128575   1.570   4.391  16.550  1.1288 -1.6360 -0.8011
 1460TIP3    H228576   1.502   4.286  16.634 -0.3394 -1.3876 -1.6373
 1461TIP3   OH228577   5.172   7.525  19.154  0.2928  0.0256 -0.3477
 1461TIP3    H128578   5.158   7.544  19.061  0.4724 -0.1293 -0.4082
 1461TIP3    H228579   5.238   7.588  19.182  1.0479 -0.6385 -0.5996
 1462TIP3   OH228580   1.769   3.993  19.190 -0.0841 -0.3466 -0.0289
 1462TIP3    H128581   1.819   4.036  19.260 -0.7943 -0.2899  0.4551
 1462TIP3    H228582   1.732   4.065  19.139  0.3477 -0.3883 -0.3975
 1463TIP3   OH228583   6.290   6.188  17.036  0.5983  0.3866 -0.0298
 1463TIP3    H128584   6.295   6.098  17.069  0.8217 -0.1084 -1.3372
 1463TIP3    H228585   6.263   6.178  16.945 -0.5778  1.7324  0.1386
 1464TIP3   OH228586   4.590   4.109  16.434 -0.1355  0.7800 -0.0372
 1464TIP3    H128587   4.596   4.030  16.382 -0.4851  0.2846  0.6515
 1464TIP3    H228588   4.581   4.180  16.370 -0.4340  0.2035 -0.6416
 1465TIP3   OH228589   6.446   7.629  19.013 -0.5814 -0.4903 -0.2972
 1465TIP3    H128590   6.422   7.690  18.942 -1.1116 -0.8073 -0.3953
 1465TIP3    H228591   6.422   7.543  18.979 -0.7094 -0.6580  0.2135
 1466TIP3   OH228592   4.615   1.827  17.467  0.1917  0.3126  0.1172
 1466TIP3    H128593   4.659   1.802  17.386 -0.0915 -1.4115  0.4576
 1466TIP3    H228594   4.584   1.917  17.451  0.9108  0.3288 -1.3349
 1467TIP3   OH228595   1.665   4.444  18.229 -0.3885 -0.2470 -0.0026
 1467TIP3    H128596   1.630   4.371  18.280 -0.2362 -0.3586 -0.0598
 1467TIP3    H228597   1.731   4.405  18.172 -2.0476 -0.5105 -1.8496
 1468TIP3   OH228598   6.166   2.910  17.475  0.2033 -0.6326  0.4993
 1468TIP3    H128599   6.148   2.956  17.393 -2.1163  1.8619  2.2443
 1468TIP3    H228600   6.083   2.867  17.497  0.2361  0.1522  2.3206
 1469TIP3   OH228601   0.612   3.088  18.799 -0.1084 -0.1700  0.0888
 1469TIP3    H128602   0.702   3.104  18.826  0.1958  0.6129 -1.2949
 1469TIP3    H228603   0.597   2.996  18.821  0.2672  0.2404  2.3222
 1470TIP3   OH228604   1.343   4.065  17.094 -0.0156  0.0279  0.5438
 1470TIP3    H128605   1.308   3.993  17.042 -0.3604 -0.5761  1.6000
 1470TIP3    H228606   1.414   4.100  17.040  0.6927 -1.6169  0.3440
 1471TIP3   OH228607   3.149   7.079  17.890 -0.3334 -0.4591 -0.4943
 1471TIP3    H128608   3.186   7.011  17.946 -0.9390 -0.3153  0.0944
 1471TIP3    H228609   3.224   7.131  17.862 -0.0395 -0.3968  0.3737
 1472TIP3   OH228610   5.929   6.625  18.232 -0.3172 -0.1608 -0.7875
 1472TIP3    H128611   5.992   6.558  18.206  1.2346  0.6448  0.6831
 1472TIP3    H228612   5.965   6.707  18.200 -1.2723  0.1966 -0.9963
 1473TIP3   OH228613   4.361   3.463  19.418  0.4100 -0.2966 -0.2437
 1473TIP3    H128614   4.337   3.376  19.388 -2.2966  0.0277  0.7047
 1473TIP3    H228615   4.434   3.449  19.478 -0.4835 -2.0147  0.4996
 1474TIP3   OH228616   4.795   5.223  18.270  0.3870  0.4591  0.5025
 1474TIP3    H128617   4.855   5.291  18.301 -0.3857  1.0713  0.6952
 1474TIP3    H228618   4.708   5.261  18.282 -0.0205 -0.2019 -0.2766
 1475TIP3   OH228619   2.014   1.365  17.473  0.4477 -0.0077 -0.0997
 1475TIP3    H128620   1.978   1.452  17.489  0.1589 -0.3426  1.2439
 1475TIP3    H228621   2.091   1.380  17.418 -0.6728  0.8888 -1.4680
 1476TIP3   OH228622   2.101   5.410  17.125  0.1587  0.0076  0.2790
 1476TIP3    H128623   2.114   5.431  17.218 -0.3784  2.4925 -0.1178
 1476TIP3    H228624   2.117   5.493  17.080 -0.1484 -1.0059 -1.8206
 1477TIP3   OH228625   3.460   7.678  17.117 -0.0577 -0.3787 -0.1795
 1477TIP3    H128626   3.522   7.751  17.124 -0.9768  0.5275 -0.9751
 1477TIP3    H228627   3.494   7.611  17.175  1.4546  0.2410 -0.3088
 1478TIP3   OH228628   4.907   4.049  18.993  0.5381 -0.2750  0.3893
 1478TIP3    H128629   4.880   4.132  18.955 -0.7035 -0.7157  0.2763
 1478TIP3    H228630   5.002   4.047  18.981  0.5408  0.9640  0.0886
 1479TIP3   OH228631   5.692   2.030  17.256  0.4747  0.5970 -0.3808
 1479TIP3    H128632   5.736   2.078  17.326 -0.7263  0.7034  0.3158
 1479TIP3    H228633   5.663   1.948  17.297 -2.5493  1.7631  0.0270
 1480TIP3   OH228634   1.836   5.198  18.571  0.1215 -0.0415  0.8382
 1480TIP3    H128635   1.924   5.164  18.550  1.1216  3.8347 -2.5575
 1480TIP3    H228636   1.846   5.238  18.657  0.4389 -2.8486  2.2578
 1481TIP3   OH228637   6.476   0.801  19.453 -0.5855  0.2492  0.0821
 1481TIP3    H128638   6.510   0.849  19.528  0.4740 -0.9770  0.4084
 1481TIP3    H228639   6.422   0.865  19.407  0.0830  1.4994  0.9727
 1482TIP3   OH228640   6.623   0.199  17.816 -0.3260  0.1405 -0.3886
 1482TIP3    H128641   6.631   0.287  17.852 -1.2187  0.0985 -0.0778
 1482TIP3    H228642   6.541   0.200  17.767 -0.1931 -0.4316 -0.6260
 1483TIP3   OH228643   6.895   7.179  18.262 -0.3730 -0.4033 -0.5308
 1483TIP3    H128644   6.961   7.138  18.205  0.5894 -0.0516  0.3061
 1483TIP3    H228645   6.853   7.245  18.207 -0.2434 -0.8350 -1.1591
 1484TIP3   OH228646   5.868   3.519  17.405 -0.5455 -0.0598  0.0161
 1484TIP3    H128647   5.791   3.473  17.438 -1.8680  2.2472  0.4120
 1484TIP3    H228648   5.860   3.516  17.310 -0.8866 -0.2150  0.0502
 1485TIP3   OH228649   4.196   4.062  17.555  0.4837 -0.6039  0.0943
 1485TIP3    H128650   4.153   4.041  17.472 -0.1935  0.9249  0.0343
 1485TIP3    H228651   4.266   4.122  17.532  0.7161 -0.6955  0.5508
 1486TIP3   OH228652   4.424   0.848  19.382 -0.3218 -0.1198 -0.1220
 1486TIP3    H128653   4.413   0.771  19.326 -0.2247 -0.0188 -0.2814
 1486TIP3    H228654   4.487   0.821  19.448  0.1008 -0.0111 -0.4818
 1487TIP3   OH228655   2.133   2.492  17.638  0.0763 -0.1893  0.0032
 1487TIP3    H128656   2.116   2.586  17.634  1.1006  0.0218  0.1361
 1487TIP3    H228657   2.167   2.470  17.551  0.2873 -0.3356  0.1209
 1488TIP3   OH228658   6.168   0.819  16.515 -0.6723 -0.0870  0.3987
 1488TIP3    H128659   6.113   0.741  16.522 -1.5900  0.3284 -1.4773
 1488TIP3    H228660   6.257   0.786  16.524 -1.0424 -1.3697 -0.3435
 1489TIP3   OH228661   7.021   0.510  16.918 -0.9400 -0.7208 -0.5667
 1489TIP3    H128662   6.985   0.514  17.006  0.4248  1.2981 -0.0333
 1489TIP3    H228663   7.087   0.441  16.921 -1.0736 -0.8294 -0.0976
 1490TIP3   OH228664   0.321   4.053  18.112  0.0882 -0.1928  0.4858
 1490TIP3    H128665   0.266   3.976  18.100 -0.4378  0.2671 -0.1763
 1490TIP3    H228666   0.396   4.039  18.054 -0.2976  0.0408 -0.0906
 1491TIP3   OH228667   6.125   5.749  17.264 -0.3568  0.1137  0.1046
 1491TIP3    H128668   6.111   5.777  17.354 -1.1860 -0.2831  0.1035
 1491TIP3    H228669   6.125   5.653  17.268  0.3651  0.0888 -0.2108
 1492TIP3   OH228670   6.789   5.137  19.221 -0.5884  0.2132  0.1502
 1492TIP3    H128671   6.847   5.064  19.201  0.1026  0.5179  0.9624
 1492TIP3    H228672   6.829   5.212  19.179  0.6772  0.7860  2.2685
 1493TIP3   OH228673   3.520   1.735  19.010 -0.2728  0.4140  0.3583
 1493TIP3    H128674   3.602   1.719  19.056 -0.2734  0.8432  0.5120
 1493TIP3    H228675   3.495   1.824  19.035 -1.0167  0.1232  0.6605
 1494TIP3   OH228676   4.658   5.752  18.762 -0.2153 -0.2832  0.7126
 1494TIP3    H128677   4.691   5.757  18.672 -0.9390 -2.0568  0.2961
 1494TIP3    H228678   4.608   5.833  18.774 -2.8871 -1.3620 -1.7129
 1495TIP3   OH228679   0.797   0.605  18.638 -0.5452  0.5540 -0.2692
 1495TIP3    H128680   0.809   0.698  18.617  1.0184  0.3551 -0.3169
 1495TIP3    H228681   0.732   0.575  18.575  0.0949  1.2518 -1.2835
 1496TIP3   OH228682   6.163   0.416  18.779  0.2726 -0.7752 -0.3132
 1496TIP3    H128683   6.096   0.402  18.846 -0.6077 -0.1499 -1.0365
 1496TIP3    H228684   6.246   0.401  18.825 -0.3088 -0.4653  0.8833
 1497TIP3   OH228685   5.681   2.778  17.684  0.0433  0.0635  0.4969
 1497TIP3    H128686   5.645   2.822  17.607  0.1760 -1.9426 -0.7795
 1497TIP3    H228687   5.747   2.839  17.718 -2.9480  2.9328  1.6782
 1498TIP3   OH228688   3.176   0.796  17.881 -0.1179  0.2886  0.2750
 1498TIP3    H128689   3.170   0.721  17.823 -0.8971  0.7767 -0.2933
 1498TIP3    H228690   3.189   0.871  17.823  0.8072  0.5900  0.8404
 1499TIP3   OH228691   1.566   0.318  17.629  0.1118  0.0635  0.1151
 1499TIP3    H128692   1.582   0.347  17.539  1.0888  0.3722  0.3771
 1499TIP3    H228693   1.486   0.363  17.655 -0.4532 -0.4003 -0.7539
 1500TIP3   OH228694   3.585   3.032  17.909 -0.3720 -0.0367 -0.3081
 1500TIP3    H128695   3.653   2.966  17.894 -1.2656 -1.0524  0.0105
 1500TIP3    H228696   3.559   3.059  17.820  2.4354  2.5677 -0.5181
 1501TIP3   OH228697   0.295   5.856  18.196 -0.5621 -0.0869  0.4273
 1501TIP3    H128698   0.349   5.904  18.259  0.1368  0.8256 -0.8174
 1501TIP3    H228699   0.205   5.869  18.226 -0.3012  1.0791  0.7387
 1502TIP3   OH228700   0.846   5.863  18.656 -0.4268 -0.1160 -0.0676
 1502TIP3    H128701   0.857   5.958  18.643 -1.4351  0.1850  1.1038
 1502TIP3    H228702   0.936   5.829  18.657 -0.0256  0.8879 -0.0394
 1503TIP3   OH228703   5.334   0.836  18.824 -0.0888  0.1011  0.0090
 1503TIP3    H128704   5.376   0.900  18.767  1.1657 -0.2909  0.4581
 1503TIP3    H228705   5.374   0.850  18.909 -2.6843  1.3976  1.1453
 1504TIP3   OH228706   5.414   6.422  18.637  0.1579 -0.2671 -0.4553
 1504TIP3    H128707   5.481   6.355  18.623  0.3116 -0.3718  0.6596
 1504TIP3    H228708   5.464   6.502  18.654  0.0473 -0.4872  1.0668
 1505TIP3   OH228709   5.309   1.263  17.570  0.2649  0.3349 -0.2474
 1505TIP3    H128710   5.346   1.300  17.650 -0.1283  1.8883 -0.7596
 1505TIP3    H228711   5.350   1.312  17.499  0.1279 -0.5870 -0.9944
 1506TIP3   OH228712   6.448   3.249  16.864 -0.7799  0.0941 -0.1002
 1506TIP3    H128713   6.450   3.307  16.787 -0.1277  1.8662  1.1849
 1506TIP3    H228714   6.540   3.235  16.886 -0.9592  1.0081  1.3414
 1507TIP3   OH228715   0.335   4.770  18.770 -0.5405  0.0538  0.1722
 1507TIP3    H128716   0.345   4.675  18.778  1.3492  0.1481 -0.6347
 1507TIP3    H228717   0.413   4.798  18.723 -1.2039  1.9900  0.1695
 1508TIP3   OH228718   0.480   7.479  18.975 -0.3852 -0.2781 -0.0891
 1508TIP3    H128719   0.538   7.543  19.017  1.4539 -0.6350 -1.8770
 1508TIP3    H228720   0.431   7.440  19.047  1.1383  0.5307  1.4734
 1509TIP3   OH228721   7.145   2.379  19.203 -0.4635 -0.2635 -0.5721
 1509TIP3    H128722   7.169   2.286  19.192 -1.6119 -0.4111 -2.2243
 1509TIP3    H228723   7.229   2.424  19.216  0.3385 -1.2917 -1.8374
 1510TIP3   OH228724   2.437   4.453  18.695  0.4249 -0.0508  0.3760
 1510TIP3    H128725   2.408   4.496  18.614  0.4801 -0.9090 -0.1121
 1510TIP3    H228726   2.392   4.500  18.765 -1.4195 -0.7318 -0.3020
 1511TIP3   OH228727   0.043   3.733  19.287 -0.2027  0.5454  0.3755
 1511TIP3    H128728   0.109   3.706  19.351  0.4306  1.7848  0.2790
 1511TIP3    H228729   0.007   3.651  19.254 -1.7120 -0.1702  3.4476
 1512TIP3   OH228730   1.429   5.871  16.993 -0.2369  0.2015 -0.3067
 1512TIP3    H128731   1.478   5.893  17.073  0.6533  0.6456 -0.9456
 1512TIP3    H228732   1.481   5.803  16.952 -1.1551 -0.6480 -0.0900
 1513TIP3   OH228733   4.002   6.564  17.378 -0.0527 -0.2765  0.1699
 1513TIP3    H128734   4.033   6.580  17.288  1.7792 -1.7146  0.4833
 1513TIP3    H228735   4.064   6.611  17.433 -2.2075  2.1418  0.7441
 1514TIP3   OH228736   4.148   2.212  17.892 -0.1593  0.1171  0.4394
 1514TIP3    H128737   4.217   2.185  17.953  0.5310  1.6300  0.3653
 1514TIP3    H228738   4.183   2.189  17.806  0.7504  1.7651  0.3158
 1515TIP3   OH228739   7.201   2.555  17.436 -0.0785 -0.1015  0.2902
 1515TIP3    H128740   7.184   2.571  17.529 -0.4081  0.1255  0.1936
 1515TIP3    H228741   7.187   2.461  17.425 -3.0714  0.3142 -0.1410
 1516TIP3   OH228742   5.024   2.360  18.121 -0.4230 -0.2884 -0.1976
 1516TIP3    H128743   4.938   2.398  18.140  1.2310  3.2766  1.0368
 1516TIP3    H228744   5.031   2.363  18.025 -1.4559 -0.1936 -0.2827
 1517TIP3   OH228745   6.629   5.294  16.995  0.1525 -0.2756 -0.0780
 1517TIP3    H128746   6.600   5.369  16.943 -0.1786  0.3871  1.0257
 1517TIP3    H228747   6.722   5.311  17.011 -0.3778  1.0916  2.0105
 1518TIP3   OH228748   5.173   2.718  17.903 -0.1476  0.7374  0.3467
 1518TIP3    H128749   5.144   2.792  17.955  0.8435  0.8958  0.6962
 1518TIP3    H228750   5.199   2.756  17.819 -2.2323  0.4178 -0.4938
 1519TIP3   OH228751   6.255   1.606  17.890 -0.6437  0.0379  0.1416
 1519TIP3    H128752   6.292   1.606  17.978 -1.7611 -0.1398  0.6340
 1519TIP3    H228753   6.197   1.530  17.888 -2.4228  1.3029  0.0823
 1520TIP3   OH228754   5.228   0.258  17.537 -0.2750  0.4120  0.4648
 1520TIP3    H128755   5.240   0.348  17.505  0.3509  0.6237  1.2483
 1520TIP3    H228756   5.155   0.224  17.486  0.0844  1.0472 -0.5062
 1521TIP3   OH228757   6.411   4.603  17.799  0.1773  0.8664 -0.7040
 1521TIP3    H128758   6.352   4.562  17.735 -0.0552  0.1773 -0.0533
 1521TIP3    H228759   6.363   4.601  17.881  1.3920 -0.4044  0.0100
 1522TIP3   OH228760   0.177   5.756  18.650 -0.0319 -0.1639 -0.2554
 1522TIP3    H128761   0.196   5.718  18.736  0.4039 -0.2932 -0.4041
 1522TIP3    H228762   0.262   5.757  18.606 -0.3409 -0.5592 -0.8690
 1523TIP3   OH228763   0.441   5.413  17.871  0.1467  0.2794 -0.0164
 1523TIP3    H128764   0.498   5.469  17.924 -0.9856  1.2920  0.1694
 1523TIP3    H228765   0.354   5.450  17.883 -0.3777 -0.5102 -1.2541
 1524TIP3   OH228766   2.976   0.884  19.543  0.5526  0.0380 -0.0835
 1524TIP3    H128767   3.026   0.965  19.542  1.1403 -0.2958  1.1842
 1524TIP3    H228768   3.022   0.827  19.604 -0.7712 -0.6613  0.3029
 1525TIP3   OH228769   7.278   3.902  18.748  0.4570 -0.1746 -0.0270
 1525TIP3    H128770   7.274   3.851  18.667  0.3518  0.1294 -0.2171
 1525TIP3    H228771   7.209   3.968  18.737  0.5403 -0.0434  0.2482
 1526TIP3   OH228772   0.563   3.081  18.231 -0.1053  0.6986  0.3055
 1526TIP3    H128773   0.526   3.114  18.149  1.9502  0.1405 -0.9277
 1526TIP3    H228774   0.584   3.159  18.281  0.6302  1.1409 -0.6606
 1527TIP3   OH228775   3.743   6.857  19.105 -0.2488  0.1696 -0.1152
 1527TIP3    H128776   3.698   6.875  19.023  0.0532 -1.6615 -0.7221
 1527TIP3    H228777   3.725   6.765  19.123 -0.8367  0.6823  2.2387
 1528TIP3   OH228778   6.265   6.568  19.392  0.2865 -0.2852  0.2092
 1528TIP3    H128779   6.221   6.653  19.398 -0.9278 -0.9918  2.0258
 1528TIP3    H228780   6.210   6.516  19.335  0.6382 -0.1165 -0.2980
 1529TIP3   OH228781   5.134   7.115  19.483 -0.1767  0.2064 -0.1275
 1529TIP3    H128782   5.134   7.165  19.401 -0.1571  0.5972  0.1100
 1529TIP3    H228783   5.088   7.171  19.546  0.3056  0.1558  0.2744
 1530TIP3   OH228784   5.146   1.689  18.383  0.2847 -0.1125  0.1538
 1530TIP3    H128785   5.142   1.783  18.367 -0.1719 -0.1788 -0.1391
 1530TIP3    H228786   5.091   1.675  18.460  0.0832 -0.1842 -0.0041
 1531TIP3   OH228787   1.886   7.337  18.899 -1.0044 -0.1973  0.5484
 1531TIP3    H128788   1.934   7.311  18.819 -0.0489  0.3599  0.9199
 1531TIP3    H228789   1.955   7.363  18.960 -1.7602 -0.1094  1.3786
 1532TIP3   OH228790   2.614   1.328  18.845 -0.1402  0.0384  0.3205
 1532TIP3    H128791   2.595   1.235  18.829 -1.6138  0.1771  1.1091
 1532TIP3    H228792   2.672   1.328  18.921 -1.3167 -0.2197  1.2618
 1533TIP3   OH228793   4.326   6.873  17.377 -0.1479  0.1685  0.1793
 1533TIP3    H128794   4.270   6.861  17.300  0.0979 -2.7450  0.3782
 1533TIP3    H228795   4.390   6.803  17.371  1.2386  1.2249  1.9169
 1534TIP3   OH228796   2.445   6.960  17.086  0.5972 -0.1828  0.0426
 1534TIP3    H128797   2.472   6.997  17.002 -0.3794  2.0386  0.6410
 1534TIP3    H228798   2.457   7.031  17.149  0.7431 -1.6102  1.7100
 1535TIP3   OH228799   1.374   3.324  16.885  0.2777 -0.1141 -0.1985
 1535TIP3    H128800   1.387   3.304  16.978  1.1887 -0.5189 -0.3981
 1535TIP3    H228801   1.450   3.284  16.841 -0.2691 -0.1348 -1.1453
 1536TIP3   OH228802   1.953   5.258  16.951  0.4608 -0.2913  0.6252
 1536TIP3    H128803   1.888   5.204  16.995 -0.8108  0.3683 -0.3410
 1536TIP3    H228804   1.990   5.312  17.020 -0.5206 -0.2090  1.1128
 1537TIP3   OH228805   6.821   0.202  18.881 -0.1612 -0.5619 -0.1490
 1537TIP3    H128806   6.740   0.199  18.831 -0.0569 -1.0724 -0.2962
 1537TIP3    H228807   6.828   0.115  18.920  0.3665 -0.5507 -0.2162
 1538TIP3   OH228808   6.795   2.925  16.835 -0.1422  0.3667 -0.0937
 1538TIP3    H128809   6.862   2.864  16.864 -0.8337 -0.9888 -1.1936
 1538TIP3    H228810   6.783   2.904  16.742 -1.5298  1.0833 -0.1035
 1539TIP3   OH228811   2.996   7.151  19.247  0.2641 -0.7531 -0.1685
 1539TIP3    H128812   3.070   7.191  19.203  1.3137 -0.5738  1.6733
 1539TIP3    H228813   3.029   7.067  19.278 -0.0048 -0.2946  1.4451
 1540TIP3   OH228814   1.154   7.673  18.378 -0.0505 -0.3826  0.3518
 1540TIP3    H128815   1.222   7.668  18.310  1.7474 -1.4339  2.1169
 1540TIP3    H228816   1.122   7.763  18.372  2.1575  0.4553 -0.0139
 1541TIP3   OH228817   4.552   0.850  18.760  0.4022  0.1670  0.4994
 1541TIP3    H128818   4.636   0.892  18.742 -0.1454  0.7416 -0.9380
 1541TIP3    H228819   4.550   0.773  18.702 -1.2042  1.7729 -1.7978
 1542TIP3   OH228820   6.197   5.167  17.767 -0.2563  0.5229 -0.0480
 1542TIP3    H128821   6.284   5.144  17.734 -0.5785  0.5381 -0.9400
 1542TIP3    H228822   6.159   5.084  17.796  0.0950  0.5352  0.4688
 1543TIP3   OH228823   5.695   1.905  18.626  0.2603 -0.1204 -0.4923
 1543TIP3    H128824   5.771   1.962  18.616  0.1900 -0.2312 -1.8438
 1543TIP3    H228825   5.680   1.901  18.721  0.4075  1.9104 -0.3511
 1544TIP3   OH228826   7.116   7.339  17.436 -0.1697  0.0103 -0.0065
 1544TIP3    H128827   7.029   7.308  17.458 -0.3273  0.4814  0.0407
 1544TIP3    H228828   7.130   7.415  17.492  0.5251 -0.4362  0.4536
 1545TIP3   OH228829   1.284   1.221  19.263  0.3106  0.5528  0.7600
 1545TIP3    H128830   1.262   1.221  19.170  0.3473  1.3920  0.7423
 1545TIP3    H228831   1.378   1.204  19.265  0.1627 -0.3020  0.6931
 1546TIP3   OH228832   4.992   3.430  17.397 -0.6962  0.0119  0.2954
 1546TIP3    H128833   5.034   3.466  17.475  0.1691 -0.8852  0.2691
 1546TIP3    H228834   5.060   3.376  17.355 -1.4822 -0.4345 -0.4600
 1547TIP3   OH228835   3.176   3.014  18.385 -0.2382  1.3524  0.2496
 1547TIP3    H128836   3.165   3.039  18.476 -0.7633  1.8909  0.0466
 1547TIP3    H228837   3.176   2.919  18.386 -0.8711  1.3524  0.7440
 1548TIP3   OH228838   6.244   0.633  18.550 -0.4033  0.1459 -0.0031
 1548TIP3    H128839   6.229   0.689  18.626  0.9106 -0.3771  0.6719
 1548TIP3    H228840   6.258   0.546  18.586  2.8003  0.2911 -0.5256
 1549TIP3   OH228841   0.652   4.521  18.524  0.4821 -0.1249  0.5752
 1549TIP3    H128842   0.618   4.451  18.468  1.1617 -0.1542  0.1844
 1549TIP3    H228843   0.599   4.597  18.500 -0.0678 -0.4267  0.7946
 1550TIP3   OH228844   2.930   5.707  17.673 -0.1106  0.0058  0.0315
 1550TIP3    H128845   2.996   5.709  17.742 -1.6347 -1.0262  1.6145
 1550TIP3    H228846   2.969   5.653  17.604  0.4607 -1.1836  1.2340
 1551TIP3   OH228847   2.828   0.279  19.023  0.5213 -0.0319 -0.8733
 1551TIP3    H128848   2.874   0.319  19.096  0.2067 -0.7732 -0.2521
 1551TIP3    H228849   2.746   0.247  19.061  0.8645 -1.4619 -1.2743
 1552TIP3   OH228850   4.170   5.092  17.993  0.8658 -1.0063  0.4656
 1552TIP3    H128851   4.099   5.139  17.950  1.6453  1.6775  1.9201
 1552TIP3    H228852   4.247   5.110  17.940  0.9284 -1.8408  0.2633
 1553TIP3   OH228853   0.093   0.575  19.224 -0.3829  0.0518  0.5456
 1553TIP3    H128854   0.000   0.553  19.219 -0.1413 -0.8163 -0.5546
 1553TIP3    H228855   0.132   0.535  19.146  0.7714  1.1500  0.5240
 1554TIP3   OH228856   6.370   6.866  17.179 -0.6373 -0.3712 -0.1922
 1554TIP3    H128857   6.308   6.833  17.244  0.1598 -1.1874  0.1746
 1554TIP3    H228858   6.384   6.793  17.119 -0.2477 -0.0977 -0.4401
 1555TIP3   OH228859   4.439   1.093  18.900 -0.4957  0.0939 -0.3658
 1555TIP3    H128860   4.521   1.143  18.904 -0.5061  0.0729  0.1728
 1555TIP3    H228861   4.424   1.079  18.807  0.3248 -0.2349 -0.4565
 1556TIP3   OH228862   6.270   5.171  19.141 -0.3102 -0.5438  0.4058
 1556TIP3    H128863   6.280   5.226  19.218  0.1339 -0.2222  0.1261
 1556TIP3    H228864   6.310   5.222  19.070 -1.5218 -0.4254 -0.2221
 1557TIP3   OH228865   4.379   2.479  17.302 -0.2983  0.3888 -0.0718
 1557TIP3    H128866   4.364   2.573  17.308 -3.5383 -0.0230  0.1789
 1557TIP3    H228867   4.392   2.463  17.208  0.0294  1.0467 -0.1458
 1558TIP3   OH228868   7.194   3.615  16.780  0.3213  0.5501 -0.2932
 1558TIP3    H128869   7.222   3.699  16.819 -0.3407  0.8425 -0.4333
 1558TIP3    H228870   7.117   3.590  16.831  0.8198 -0.2494  0.0911
 1559TIP3   OH228871   4.125   0.291  18.691 -0.6769 -0.1547  0.0316
 1559TIP3    H128872   4.199   0.312  18.748 -0.0151 -1.1961 -0.4206
 1559TIP3    H228873   4.147   0.335  18.608 -1.1117  0.4549  0.2336
 1560TIP3   OH228874   1.452   3.460  17.397 -0.3299  0.1510 -0.0860
 1560TIP3    H128875   1.420   3.542  17.435 -4.1202  0.2223 -2.8747
 1560TIP3    H228876   1.536   3.483  17.358 -0.1778  2.0367  1.2012
 1561TIP3   OH228877   5.044   5.210  17.597 -0.3466 -0.1185  0.9666
 1561TIP3    H128878   4.975   5.170  17.544  0.0083  0.0101  0.3978
 1561TIP3    H228879   5.096   5.260  17.534  0.7128 -0.8258  1.2658
 1562TIP3   OH228880   3.701   3.994  18.913  0.1942 -0.0232 -0.4281
 1562TIP3    H128881   3.722   4.018  18.823  1.0411 -0.3774 -0.3341
 1562TIP3    H228882   3.671   4.076  18.953 -0.4969  0.0718 -1.1027
 1563TIP3   OH228883   0.065   4.905  19.408  0.2927  0.1331 -0.3930
 1563TIP3    H128884   0.085   4.815  19.380 -1.1186 -0.4519  0.3539
 1563TIP3    H228885   0.003   4.937  19.343  0.2518  0.3133 -0.2655
 1564TIP3   OH228886   7.453   5.338  16.512  0.2975  0.1850 -0.0922
 1564TIP3    H128887   7.407   5.400  16.568  1.5721  1.2784 -0.2236
 1564TIP3    H228888   7.392   5.264  16.504 -1.0904  1.2345  0.3686
 1565TIP3   OH228889   3.429   3.529  17.163  0.0561  0.0000 -0.0280
 1565TIP3    H128890   3.518   3.495  17.160  0.0029 -0.3733  1.6401
 1565TIP3    H228891   3.375   3.460  17.126  0.4479  0.2276 -1.0461
 1566TIP3   OH228892   2.896   3.463  18.553 -0.2975  0.2224  0.3318
 1566TIP3    H128893   2.812   3.470  18.598  0.4369  2.2729  1.5691
 1566TIP3    H228894   2.957   3.435  18.622  0.4506  1.2071  0.0898
 1567TIP3   OH228895   5.017   2.402  17.857 -0.4242  0.3539 -0.1105
 1567TIP3    H128896   4.954   2.343  17.815 -0.8593  0.1453  0.8114
 1567TIP3    H228897   4.971   2.486  17.864 -0.6336  0.1844  0.6200
 1568TIP3   OH228898   0.395   2.354  19.013  0.2404 -0.3506 -0.0441
 1568TIP3    H128899   0.461   2.369  19.081  1.5367  3.3031 -1.8111
 1568TIP3    H228900   0.353   2.272  19.038  3.1876 -1.1782  3.0187
 1569TIP3   OH228901   2.309   2.894  16.952 -0.0033  0.0167 -0.2567
 1569TIP3    H128902   2.400   2.868  16.945 -0.0799  0.0778 -1.8245
 1569TIP3    H228903   2.284   2.920  16.863 -1.5801 -0.1380  0.1018
 1570TIP3   OH228904   6.279   5.566  17.139 -0.6157  0.0318  0.8075
 1570TIP3    H128905   6.255   5.657  17.152 -1.7235  0.0712 -1.0937
 1570TIP3    H228906   6.270   5.552  17.044 -0.2828 -1.9955  1.0234
 1571TIP3   OH228907   1.902   1.266  18.937  0.4269 -0.3444  0.0043
 1571TIP3    H128908   1.995   1.250  18.920  0.3649 -1.9085  0.9600
 1571TIP3    H228909   1.901   1.313  19.021  0.3194 -1.8203  0.8630
 1572TIP3   OH228910   4.396   7.295  17.724 -0.0309  0.0024 -0.2582
 1572TIP3    H128911   4.337   7.368  17.742 -1.2073 -1.5160  2.6160
 1572TIP3    H228912   4.370   7.265  17.636  0.4339  2.8615 -1.4884
 1573TIP3   OH228913   5.634   0.911  19.178  0.2794 -0.3406 -0.0496
 1573TIP3    H128914   5.692   0.879  19.109 -1.0314 -2.3443 -0.3062
 1573TIP3    H228915   5.672   0.878  19.259  0.0526 -0.8258 -0.1340
 1574TIP3   OH228916   0.645   2.634  16.941  0.4323 -0.1012 -0.2052
 1574TIP3    H128917   0.555   2.656  16.914  0.3013  0.5248  0.6784
 1574TIP3    H228918   0.674   2.568  16.878  0.1104  1.2124 -1.8047
 1575TIP3   OH228919   4.293   4.639  19.156  0.2062  0.2808 -0.6965
 1575TIP3    H128920   4.253   4.571  19.102  1.2455 -0.7933 -0.1551
 1575TIP3    H228921   4.228   4.658  19.223  0.1793 -0.7026 -0.4314
 1576TIP3   OH228922   4.797   4.005  18.507  0.4008 -0.4248 -0.0617
 1576TIP3    H128923   4.758   3.955  18.435 -1.4350  0.1587  0.4676
 1576TIP3    H228924   4.826   4.087  18.466  1.1180 -0.8759 -0.4721
 1577TIP3   OH228925   4.408   1.696  19.624  0.2568 -0.0193  0.0883
 1577TIP3    H128926   4.330   1.694  19.570 -0.0850 -1.0655  0.5975
 1577TIP3    H228927   4.397   1.624  19.686  2.1249 -0.9060 -0.5307
 1578TIP3   OH228928   0.177   6.945  18.107 -0.0993  0.2244  0.5823
 1578TIP3    H128929   0.105   6.994  18.068 -0.2765 -0.1348  0.4572
 1578TIP3    H228930   0.171   6.965  18.201 -1.1778 -0.8405  0.7576
 1579TIP3   OH228931   6.325   3.413  19.083  0.1863  0.3955 -0.2543
 1579TIP3    H128932   6.355   3.451  19.000 -0.6839  0.1776 -0.6796
 1579TIP3    H228933   6.369   3.466  19.150  0.5504  0.8677 -0.8445
 1580TIP3   OH228934   6.829   1.531  18.479 -0.3356  0.2466  0.2377
 1580TIP3    H128935   6.909   1.567  18.440 -0.8827 -2.4222 -3.9040
 1580TIP3    H228936   6.855   1.445  18.512 -1.3012 -0.3209 -0.4326
 1581TIP3   OH228937   3.429   6.704  17.190  0.3012  0.6017  0.1610
 1581TIP3    H128938   3.448   6.628  17.245  1.7874  0.0328 -1.0862
 1581TIP3    H228939   3.334   6.700  17.175 -0.0237  0.3668  2.0410
 1582TIP3   OH228940   2.925   3.614  19.128 -0.2846  0.3169 -0.0309
 1582TIP3    H128941   2.949   3.528  19.163  1.1003  1.3318  1.6715
 1582TIP3    H228942   2.995   3.672  19.157 -0.1617  1.6966 -2.7896
 1583TIP3   OH228943   4.603   2.627  16.979  0.0555  0.1370 -0.6481
 1583TIP3    H128944   4.507   2.625  16.977  0.0602  0.1365 -1.0541
 1583TIP3    H228945   4.627   2.686  16.906  0.3745 -0.3166 -0.9156
 1584TIP3   OH228946   5.075   0.612  18.711  0.3864 -0.3082 -0.0787
 1584TIP3    H128947   5.131   0.673  18.757 -0.2666 -0.6004  1.1392
 1584TIP3    H228948   4.990   0.656  18.706  0.0523 -0.8815  0.3466
 1585TIP3   OH228949   5.830   5.097  17.901  0.1473 -0.2067 -0.1313
 1585TIP3    H128950   5.828   5.013  17.945 -0.9039 -0.1026  0.0574
 1585TIP3    H228951   5.820   5.076  17.808  3.4834 -0.5072 -0.5452
 1586TIP3   OH228952   1.524   4.836  17.151 -0.4995  0.0406  0.0106
 1586TIP3    H128953   1.607   4.870  17.182 -0.0438 -0.9037 -0.1249
 1586TIP3    H228954   1.494   4.779  17.222 -0.2496 -0.8513 -0.5811
 1587TIP3   OH228955   4.023   4.228  16.495  0.5248 -0.6738  0.1526
 1587TIP3    H128956   3.959   4.267  16.436  2.3545  0.2223 -1.3715
 1587TIP3    H228957   3.972   4.174  16.554 -1.7612  1.1654 -0.0169
 1588TIP3   OH228958   3.955   3.692  17.057 -0.1707  0.3685  0.2743
 1588TIP3    H128959   3.984   3.605  17.029  1.9149  1.4425 -1.1335
 1588TIP3    H228960   3.881   3.674  17.116  0.4916 -2.3538  0.4302
 1589TIP3   OH228961   4.843   5.568  17.727  0.2907 -0.3024  0.3776
 1589TIP3    H128962   4.914   5.570  17.663  0.6353 -0.5177  0.7554
 1589TIP3    H228963   4.845   5.479  17.762  0.7303  0.0994  1.3969
 1590TIP3   OH228964   4.908   4.027  17.596 -0.1460  0.1985  0.4889
 1590TIP3    H128965   4.839   4.009  17.532  0.0896 -1.1635  0.5927
 1590TIP3    H228966   4.930   3.942  17.633  1.9663  0.5037  0.0933
 1591TIP3   OH228967   3.360   5.156  18.541 -0.7109  0.3809  0.2286
 1591TIP3    H128968   3.425   5.226  18.530  1.2541 -1.5820 -1.6869
 1591TIP3    H228969   3.338   5.130  18.452 -3.0106 -0.1143  0.8741
 1592TIP3   OH228970   6.480   1.500  19.261 -0.2755 -0.2857 -0.1515
 1592TIP3    H128971   6.508   1.586  19.228  1.0490 -1.4415 -2.3221
 1592TIP3    H228972   6.556   1.468  19.310 -0.0572 -0.9259 -0.8868
 1593TIP3   OH228973   1.893   2.610  18.553  0.0465 -0.1056  0.0151
 1593TIP3    H128974   1.942   2.539  18.512  0.0151  0.3385 -0.8175
 1593TIP3    H228975   1.898   2.592  18.646  0.6909 -0.7765 -0.1405
 1594TIP3   OH228976   2.214   1.363  18.643  0.8733 -0.2166 -0.0639
 1594TIP3    H128977   2.306   1.388  18.648  1.2915 -1.5471 -0.8093
 1594TIP3    H228978   2.214   1.268  18.645 -0.3762 -0.2895 -1.4957
 1595TIP3   OH228979   7.159   3.372  17.401  0.1083 -0.0440 -0.6185
 1595TIP3    H128980   7.067   3.367  17.374  0.4277 -0.4356 -1.6645
 1595TIP3    H228981   7.208   3.381  17.320  1.0335 -0.3755 -0.1125
 1596TIP3   OH228982   5.071   6.635  18.423  0.5439  0.4446  0.3159
 1596TIP3    H128983   5.112   6.689  18.490 -0.0163  3.2561 -1.4496
 1596TIP3    H228984   4.977   6.651  18.433  0.3748 -0.1207 -0.2964
 1597TIP3   OH228985   0.828   0.892  19.649 -1.0954 -0.0370 -0.1412
 1597TIP3    H128986   0.889   0.825  19.680 -1.6004 -0.5155 -0.1673
 1597TIP3    H228987   0.830   0.883  19.554 -1.8981 -0.6874 -0.1091
 1598TIP3   OH228988   6.437   6.786  17.542  0.1238  0.3249 -0.1645
 1598TIP3    H128989   6.345   6.791  17.518 -0.0229  1.0058  0.4723
 1598TIP3    H228990   6.453   6.694  17.561 -1.3933  0.6141  3.2306
 1599TIP3   OH228991   2.790   6.516  18.159 -0.0350  0.1000  0.1081
 1599TIP3    H128992   2.791   6.421  18.149 -0.9154  0.0872  0.0054
 1599TIP3    H228993   2.701   6.541  18.134 -0.4066  0.7538  1.9326
 1600TIP3   OH228994   6.665   1.502  19.008  0.2277  0.5094  0.2043
 1600TIP3    H128995   6.700   1.424  19.051 -0.7790  0.1142  0.3358
 1600TIP3    H228996   6.694   1.494  18.917  0.5871  0.2596  0.3375
 1601TIP3   OH228997   7.061   0.556  18.570 -0.2373  0.1649 -0.1011
 1601TIP3    H128998   6.985   0.564  18.626 -0.4899  0.6218 -0.4930
 1601TIP3    H228999   7.051   0.472  18.526 -1.2208  0.7882 -1.1419
 1602TIP3   OH229000   0.178   4.111  18.501  0.2963  0.1238  0.3907
 1602TIP3    H129001   0.178   4.166  18.580  0.1162 -0.0682  0.5246
 1602TIP3    H229002   0.108   4.048  18.515 -0.8253  1.0938 -0.6179
 1603TIP3   OH229003   2.741   3.800  18.469  0.0438 -0.7734  0.7383
 1603TIP3    H129004   2.817   3.820  18.414 -0.6800  2.3749  0.6927
 1603TIP3    H229005   2.679   3.757  18.409  0.2457  0.3189 -0.2942
 1604TIP3   OH229006   1.093   0.401  18.724 -0.3448 -0.3596 -0.3183
 1604TIP3    H129007   1.155   0.330  18.707 -1.7890 -1.3655 -1.7959
 1604TIP3    H229008   1.054   0.378  18.808 -0.0548 -0.7628 -0.2854
 1605TIP3   OH229009   3.218   3.668  17.846 -0.6476  0.0413  0.3507
 1605TIP3    H129010   3.133   3.710  17.860 -1.5703  0.0133 -3.8815
 1605TIP3    H229011   3.198   3.575  17.835  0.2130 -0.2385  1.0251
 1606TIP3   OH229012   2.695   5.377  17.557 -0.1259  0.6968 -0.4223
 1606TIP3    H129013   2.684   5.461  17.512  1.3728  0.9047 -0.4362
 1606TIP3    H229014   2.694   5.400  17.650  0.3651  0.7477 -0.4269
 1607TIP3   OH229015   7.033   3.049  19.514  0.6581 -0.3702 -0.5259
 1607TIP3    H129016   7.098   3.024  19.579  0.1814 -1.0061 -0.2825
 1607TIP3    H229017   6.969   3.101  19.564  0.0575 -1.2302 -0.3744
 1608TIP3   OH229018   5.189   2.881  18.846 -0.3475 -0.1409 -0.0535
 1608TIP3    H129019   5.275   2.845  18.868 -0.2258  1.1196  1.6862
 1608TIP3    H229020   5.194   2.898  18.752  1.3563  0.0424  0.0418
 1609TIP3   OH229021   3.652   3.123  18.182  0.2169  0.1854  0.0032
 1609TIP3    H129022   3.567   3.136  18.224 -0.2018 -0.0657 -0.7565
 1609TIP3    H229023   3.632   3.079  18.099  1.2359 -2.0859  0.8547
 1610TIP3   OH229024   7.066   4.474  16.397  0.1395  0.2378 -0.0844
 1610TIP3    H129025   7.022   4.540  16.344 -1.9510  0.4850  1.8038
 1610TIP3    H229026   7.159   4.497  16.393 -0.2807  1.8496 -1.3884
 1611TIP3   OH229027   1.875   0.747  18.580  0.3380 -0.6367  0.7375
 1611TIP3    H129028   1.932   0.679  18.544  0.1760 -0.6794  0.5574
 1611TIP3    H229029   1.930   0.825  18.584  1.0685 -1.1926  2.6162
 1612TIP3   OH229030   3.470   3.754  16.821 -0.0305 -0.0770 -0.4729
 1612TIP3    H129031   3.463   3.743  16.916 -0.5922 -0.5639 -0.5683
 1612TIP3    H229032   3.549   3.807  16.809  0.3457 -0.4683  0.2322
 1613TIP3   OH229033   3.497   2.766  18.637  0.7200  0.2067  0.7511
 1613TIP3    H129034   3.506   2.860  18.618  1.5822 -0.2541 -1.4732
 1613TIP3    H229035   3.587   2.734  18.636  0.3055 -1.0420 -1.0719
 1614TIP3   OH229036   6.018   0.280  18.568 -0.3385 -0.5252  0.1114
 1614TIP3    H129037   6.076   0.204  18.559 -1.6424 -1.5590  0.0380
 1614TIP3    H229038   6.004   0.289  18.662 -1.3612 -1.3349  0.0529
 1615TIP3   OH229039   7.505   4.521  19.234  0.0631  0.3573  0.2280
 1615TIP3    H129040   7.478   4.572  19.157  0.9657 -0.4908 -0.6663
 1615TIP3    H229041   7.441   4.449  19.238  1.7329 -1.3361 -1.5657
 1616TIP3   OH229042   6.926   0.762  17.905 -0.0904  0.0856 -0.1765
 1616TIP3    H129043   7.015   0.795  17.921  0.0342 -0.3926  0.1468
 1616TIP3    H229044   6.939   0.684  17.850 -0.0553 -1.6752  2.1742
 1617TIP3   OH229045   4.358   2.602  19.650 -0.1285  0.0338 -0.6154
 1617TIP3    H129046   4.404   2.619  19.732  0.1838 -3.3119  0.0328
 1617TIP3    H229047   4.427   2.582  19.587 -0.4878 -0.0102 -0.9997
 1618TIP3   OH229048   6.092   3.619  17.496 -0.4747  0.1243  0.1271
 1618TIP3    H129049   6.002   3.593  17.481 -1.2087  2.0591  0.8111
 1618TIP3    H229050   6.086   3.710  17.526  1.6434  0.0443  0.9710
 1619TIP3   OH229051   5.058   7.047  18.897 -0.3780 -0.6461 -0.1894
 1619TIP3    H129052   5.015   6.969  18.933  0.3124 -1.1160 -0.3589
 1619TIP3    H229053   4.998   7.079  18.830 -1.7536  0.3089  1.3957
 1620TIP3   OH229054   7.466   1.075  17.516  0.4289 -0.0272 -0.0619
 1620TIP3    H129055   7.447   1.148  17.575 -0.8804 -0.1799 -0.2462
 1620TIP3    H229056   7.380   1.052  17.480  0.6356 -2.3301  0.7654
 1621TIP3   OH229057   2.399   1.687  19.307  0.4304  0.2615 -0.2243
 1621TIP3    H129058   2.396   1.634  19.227  0.2326  2.0556 -1.4632
 1621TIP3    H229059   2.462   1.756  19.288 -1.1074  1.9114  0.3583
 1622TIP3   OH229060   1.497   7.235  18.139  0.3238  0.0886 -0.0596
 1622TIP3    H129061   1.417   7.285  18.120 -0.0103  0.3894  1.8571
 1622TIP3    H229062   1.466   7.144  18.145  0.4085  0.0089 -0.7640
 1623TIP3   OH229063   6.174   0.245  19.454  0.1297  0.4255 -0.2237
 1623TIP3    H129064   6.250   0.248  19.512  1.2167 -1.5196 -1.4182
 1623TIP3    H229065   6.149   0.337  19.442  1.1381  0.9889  1.6410
 1624TIP3   OH229066   3.925   5.136  17.880  0.2251 -0.2314 -0.2833
 1624TIP3    H129067   3.862   5.076  17.918  0.3241  0.5645  1.2612
 1624TIP3    H229068   3.884   5.222  17.889  0.7847  0.1069 -0.8916
 1625TIP3   OH229069   0.129   4.948  19.014 -0.7740 -0.8053  0.4016
 1625TIP3    H129070   0.111   4.983  18.926 -1.7994  0.8813  1.2298
 1625TIP3    H229071   0.206   4.893  19.002 -0.6553 -0.3206 -1.4884
 1626TIP3   OH229072   5.592   0.634  18.992  0.3001 -0.6122 -0.4186
 1626TIP3    H129073   5.499   0.612  18.990  0.8918 -3.3150 -0.8287
 1626TIP3    H229074   5.637   0.557  18.958  2.6764  0.9632 -1.1742
 1627TIP3   OH229075   3.257   0.718  18.841  0.1802 -0.1456  0.2644
 1627TIP3    H129076   3.233   0.805  18.809  0.6691  0.0159  0.3317
 1627TIP3    H229077   3.346   0.728  18.872  0.3279 -0.7319  0.0393
 1628TIP3   OH229078   2.130   5.823  18.392  0.7137  0.1171  0.1411
 1628TIP3    H129079   2.098   5.913  18.402 -0.5744 -0.2508 -0.5313
 1628TIP3    H229080   2.139   5.811  18.298  1.0345 -0.4105  0.2359
 1629TIP3   OH229081   3.158   7.196  16.480  0.8748 -0.0198 -0.0418
 1629TIP3    H129082   3.249   7.168  16.475  1.2067  1.0215  0.0039
 1629TIP3    H229083   3.152   7.272  16.421 -0.2479 -0.7930 -0.9811
 1630TIP3   OH229084   4.175   3.150  18.412  0.6477  0.3311  0.0076
 1630TIP3    H129085   4.089   3.110  18.428  1.6126 -1.4052  1.0812
 1630TIP3    H229086   4.183   3.216  18.481 -0.2501  1.2778 -0.7561
 1631TIP3   OH229087   0.050   1.803  19.276 -0.1116  0.2915 -0.6861
 1631TIP3    H129088   0.111   1.741  19.238  0.7095  0.5255  0.1983
 1631TIP3    H229089  -0.008   1.750  19.330 -0.1046  0.1652 -0.8030
 1632TIP3   OH229090   6.897   4.528  18.045 -0.2976 -0.0820  0.2052
 1632TIP3    H129091   6.902   4.518  18.141  0.0317  1.3501  0.3572
 1632TIP3    H229092   6.803   4.532  18.027 -0.3495  0.9119  0.6310
 1633TIP3   OH229093   7.022   1.857  17.545 -0.2534 -0.1405  0.0251
 1633TIP3    H129094   6.976   1.788  17.592  1.6514  0.0301  2.3240
 1633TIP3    H229095   7.114   1.832  17.550  0.5067  2.4934  0.9129
 1634TIP3   OH229096   7.421   1.140  18.153  0.1347  0.3033  0.2877
 1634TIP3    H129097   7.424   1.045  18.141  1.4367  0.0974  1.8777
 1634TIP3    H229098   7.512   1.168  18.147 -0.3490  1.6898 -1.5319
 1635TIP3   OH229099   7.561   5.911  18.552 -0.4644 -0.7018 -0.5876
 1635TIP3    H129100   7.631   5.971  18.575 -1.1019  0.1987 -0.9343
 1635TIP3    H229101   7.567   5.841  18.617  0.3584 -0.3233 -0.2407
 1636TIP3   OH229102   5.271   3.092  16.549 -0.3298 -0.2264 -0.1174
 1636TIP3    H129103   5.182   3.092  16.583 -0.1546 -2.5953  0.4817
 1636TIP3    H229104   5.307   3.007  16.574  1.3411 -0.2786 -2.3521
 1637TIP3   OH229105   2.688   7.301  19.059 -0.2764 -0.4704  0.4219
 1637TIP3    H129106   2.629   7.347  18.999 -0.4244  0.1239  1.0175
 1637TIP3    H229107   2.695   7.213  19.022  2.4332  0.7612 -2.4913
 1638TIP3   OH229108   1.090   5.021  18.721  0.1827 -0.4682  0.0573
 1638TIP3    H129109   1.111   4.970  18.800 -1.0190  0.8460  1.3018
 1638TIP3    H229110   1.042   4.960  18.665 -0.9563 -0.8295  1.3705
 1639TIP3   OH229111   3.992   6.223  18.724 -0.5710  0.8811  0.2505
 1639TIP3    H129112   3.978   6.140  18.680 -1.8846  1.5796 -0.7204
 1639TIP3    H229113   3.939   6.286  18.675  1.2701  2.5405  0.2237
 1640TIP3   OH229114   0.728   3.514  18.398 -0.3258 -0.0164  0.2673
 1640TIP3    H129115   0.709   3.595  18.351 -0.9933 -1.5697 -2.2663
 1640TIP3    H229116   0.791   3.541  18.466 -0.2164  2.5300 -0.7353
 1641TIP3   OH229117   5.949   7.561  19.164  0.6564 -0.3312  0.1358
 1641TIP3    H129118   5.907   7.619  19.101  0.5022 -0.0874  0.4616
 1641TIP3    H229119   6.009   7.617  19.212 -0.3475 -0.1723  1.2573
 1642TIP3   OH229120   5.387   7.408  18.153 -0.1377 -1.2283 -0.3613
 1642TIP3    H129121   5.343   7.420  18.237  0.7020  1.6831 -0.2337
 1642TIP3    H229122   5.335   7.461  18.092  1.3022 -0.3526 -0.8705
 1643TIP3   OH229123   2.421   5.441  17.751  0.4714 -0.4472 -0.3058
 1643TIP3    H129124   2.377   5.367  17.794 -0.7792 -0.6107 -1.7922
 1643TIP3    H229125   2.453   5.405  17.668  1.2465  0.3107 -0.3546
 1644TIP3   OH229126   4.846   3.625  16.985  0.7981 -0.2501  1.1342
 1644TIP3    H129127   4.793   3.661  16.915 -0.1141 -0.4090  1.7321
 1644TIP3    H229128   4.804   3.655  17.066  0.2331 -2.2709  1.6565
 1645TIP3   OH229129   4.160   3.578  17.352 -0.2269  0.2800 -0.1297
 1645TIP3    H129130   4.196   3.655  17.307  2.8302 -0.9925 -0.1564
 1645TIP3    H229131   4.176   3.506  17.291  0.2938 -0.8715  1.3024
 1646TIP3   OH229132   7.313   6.222  17.613 -0.1480 -0.2650  0.4201
 1646TIP3    H129133   7.346   6.138  17.645  0.8052 -0.4997 -1.0338
 1646TIP3    H229134   7.310   6.278  17.690 -1.6886 -1.8703  1.5952
 1647TIP3   OH229135   0.888   5.002  19.020 -0.0134 -0.1681  0.4534
 1647TIP3    H129136   0.804   5.038  19.048 -0.2946 -0.6541  0.2566
 1647TIP3    H229137   0.865   4.919  18.979  0.3937  0.4085 -1.0155
 1648TIP3   OH229138   1.947   2.449  17.846 -0.7763 -0.1508  0.9930
 1648TIP3    H129139   1.966   2.515  17.913 -0.9487  1.6101 -0.6140
 1648TIP3    H229140   2.022   2.453  17.787 -1.4890 -0.3224  0.0611
 1649TIP3   OH229141   0.264   6.009  19.045 -1.3891  0.2064  0.4163
 1649TIP3    H129142   0.355   5.994  19.072 -0.3421  1.2122 -2.2205
 1649TIP3    H229143   0.213   5.946  19.096  0.7351 -0.1819  2.1883
 1650TIP3   OH229144   3.416   3.724  18.194 -0.2034  0.2991 -0.2402
 1650TIP3    H129145   3.413   3.718  18.289  0.6671 -1.3135 -0.2839
 1650TIP3    H229146   3.502   3.760  18.174  0.6523 -1.7608 -0.4583
 1651TIP3   OH229147   5.588   4.845  17.516  0.2176  0.3268  0.1874
 1651TIP3    H129148   5.547   4.921  17.475 -0.2760  0.2570  0.5467
 1651TIP3    H229149   5.532   4.824  17.591 -0.0224 -0.7782 -0.2711
 1652TIP3   OH229150   2.202   4.845  17.422 -0.4460  0.2741 -0.8326
 1652TIP3    H129151   2.287   4.888  17.421 -0.0658 -0.4739 -0.9170
 1652TIP3    H229152   2.207   4.781  17.351 -1.4112  0.8681 -1.4621
 1653TIP3   OH229153   1.632   5.039  17.776  0.1240 -0.3246 -0.7437
 1653TIP3    H129154   1.618   5.101  17.705 -1.8684  1.6658  1.2183
 1653TIP3    H229155   1.561   4.975  17.766 -0.7820  0.5311 -0.0589
 1654TIP3   OH229156   6.829   3.358  17.276  0.5338  0.0454 -0.7182
 1654TIP3    H129157   6.758   3.298  17.252  0.2243 -0.4827  1.3528
 1654TIP3    H229158   6.785   3.442  17.290  0.9703  0.8866 -3.6439
 1655TIP3   OH229159   3.240   0.890  18.553  0.5899 -0.8906  0.3005
 1655TIP3    H129160   3.230   0.935  18.637  1.6031 -0.1190  0.0199
 1655TIP3    H229161   3.209   0.954  18.488  0.0236 -1.4005  0.0494
 1656TIP3   OH229162   3.281   4.667  16.998 -0.4737 -0.4640  0.0665
 1656TIP3    H129163   3.217   4.597  17.008 -0.3431 -0.7267 -0.8688
 1656TIP3    H229164   3.233   4.738  16.955 -0.4644 -0.1746  0.5225
 1657TIP3   OH229165   5.902   4.236  19.367 -0.0210 -0.3742  0.3852
 1657TIP3    H129166   5.975   4.175  19.371 -0.2015 -0.6070  0.1838
 1657TIP3    H229167   5.826   4.184  19.392 -0.2401 -0.3481 -0.1974
 1658TIP3   OH229168   2.999   4.482  17.176  0.4922  0.0532 -1.0194
 1658TIP3    H129169   3.046   4.426  17.237  2.1130 -0.1388 -2.3915
 1658TIP3    H229170   2.930   4.426  17.140  0.2308 -0.1565 -0.2246
 1659TIP3   OH229171   5.354   6.081  17.214 -0.3202  0.4646  0.2001
 1659TIP3    H129172   5.341   6.091  17.120 -0.6057  0.8113  0.2769
 1659TIP3    H229173   5.417   6.149  17.238 -0.2518  0.3807  0.2594
 1660TIP3   OH229174   5.677   4.263  18.667  0.1837  0.1155 -0.3324
 1660TIP3    H129175   5.753   4.206  18.662 -0.7071 -1.1184 -0.2435
 1660TIP3    H229176   5.688   4.310  18.750  1.7067  1.2632 -1.1360
 1661TIP3   OH229177   5.320   7.440  18.746 -0.0282  0.3503 -0.1477
 1661TIP3    H129178   5.368   7.523  18.742  0.7095 -0.0117  0.8432
 1661TIP3    H229179   5.376   7.382  18.797 -0.1848 -1.0089 -1.4328
 1662TIP3   OH229180   0.736   4.281  19.043  0.6114  0.1492 -0.2140
 1662TIP3    H129181   0.798   4.291  18.970  0.6991 -0.6282 -0.2594
 1662TIP3    H229182   0.742   4.188  19.066 -1.6857 -0.3288 -1.2571
 1663TIP3   OH229183   6.176   2.295  17.743 -0.5613  0.6446 -0.1261
 1663TIP3    H129184   6.150   2.277  17.652  1.2229 -1.5402 -0.2899
 1663TIP3    H229185   6.103   2.264  17.796 -0.2363 -1.3242 -0.7397
 1664TIP3   OH229186   0.408   3.519  18.974 -0.5818 -0.3910  0.3322
 1664TIP3    H129187   0.331   3.477  19.013  0.5400 -1.2588  1.6962
 1664TIP3    H229188   0.476   3.452  18.978  0.4641  0.6224 -0.1301
 1665TIP3   OH229189   6.196   4.561  17.588  0.2674  0.7445 -0.6025
 1665TIP3    H129190   6.126   4.614  17.549  2.1240  2.1336 -2.2866
 1665TIP3    H229191   6.229   4.508  17.515  0.4542 -0.5232  0.3638
 1666TIP3   OH229192   6.273   4.191  17.625 -0.6377  0.2176 -0.0876
 1666TIP3    H129193   6.307   4.101  17.622 -1.5145 -0.0903 -3.2826
 1666TIP3    H229194   6.188   4.183  17.669 -0.6921 -0.5030 -0.3099
 1667TIP3   OH229195   2.177   1.213  18.971 -0.4461  0.1325 -0.1740
 1667TIP3    H129196   2.267   1.245  18.972  0.1770 -1.3311  2.3938
 1667TIP3    H229197   2.185   1.119  18.953 -1.7502  0.4192 -2.5565
 1668TIP3   OH229198   1.004   1.457  18.956  0.6448  0.1014  0.2587
 1668TIP3    H129199   1.070   1.418  18.900  0.4554  0.3334 -0.1283
 1668TIP3    H229200   1.040   1.449  19.045 -0.3254 -2.9244  0.4895
 1669TIP3   OH229201   1.092   5.001  17.713  0.2571  0.1822  0.3153
 1669TIP3    H129202   1.099   4.934  17.644  1.2871  2.2350 -1.7055
 1669TIP3    H229203   1.178   5.044  17.713 -0.4907  1.7517  1.2593
 1670TIP3   OH229204   5.618   5.492  19.298  0.3477 -0.0668 -0.2358
 1670TIP3    H129205   5.548   5.557  19.293  1.7680  1.4003 -2.1106
 1670TIP3    H229206   5.615   5.447  19.214 -0.6084 -2.5705  1.0104
 1671TIP3   OH229207   4.120   3.463  17.865 -0.0469  0.3149 -0.2036
 1671TIP3    H129208   4.115   3.537  17.926 -2.2523 -0.1918  0.3329
 1671TIP3    H229209   4.118   3.504  17.778  1.3141  0.9625  0.0401
 1672TIP3   OH229210   0.801   4.594  18.115 -0.0737 -0.0845  0.0962
 1672TIP3    H129211   0.829   4.618  18.204 -2.9183  1.6123  0.6581
 1672TIP3    H229212   0.838   4.663  18.060 -0.6936  0.5005  0.3997
 1673TIP3   OH229213   6.221   1.324  19.541 -0.0620  0.2869 -0.0031
 1673TIP3    H129214   6.265   1.350  19.461 -0.2526  3.0482  0.6725
 1673TIP3    H229215   6.127   1.329  19.520 -0.1091 -0.6876 -0.0650
 1674TIP3   OH229216   1.950   7.181  16.972  0.4357 -0.6780  0.3048
 1674TIP3    H129217   1.894   7.130  16.913 -1.2266 -1.5799  2.5309
 1674TIP3    H229218   1.977   7.118  17.039  2.1973  0.3343  0.6157
 1675TIP3   OH229219   3.971   2.400  18.657 -0.6795 -0.6817 -0.1370
 1675TIP3    H129220   4.053   2.429  18.617 -0.6341 -0.2042  0.2912
 1675TIP3    H229221   3.928   2.349  18.589  0.0211 -1.0352 -0.3343
 1676TIP3   OH229222   5.493   7.143  18.045  0.0604  0.0833 -0.6611
 1676TIP3    H129223   5.422   7.204  18.024 -0.2780 -0.6837 -1.8161
 1676TIP3    H229224   5.460   7.091  18.117 -0.3187  0.1283 -0.8026
 1677TIP3   OH229225   4.701   4.815  17.572  0.4555  0.5331 -0.4803
 1677TIP3    H129226   4.654   4.848  17.495  0.9003 -0.1200 -1.0435
 1677TIP3    H229227   4.792   4.811  17.543  0.2446 -2.7383 -1.0046
 1678TIP3   OH229228   0.863   0.902  18.880  0.0231 -0.0811  0.5947
 1678TIP3    H129229   0.837   0.890  18.788  1.8298 -0.8970  0.1367
 1678TIP3    H229230   0.892   0.815  18.908  1.0668  0.5122  1.4134
 1679TIP3   OH229231   3.166   2.005  18.663  0.2507  0.0075 -0.2825
 1679TIP3    H129232   3.166   2.055  18.582 -1.2169  0.1988 -0.1901
 1679TIP3    H229233   3.161   1.913  18.635 -3.0623  0.1277 -0.4836
 1680TIP3   OH229234   1.298   2.389  17.784 -0.0313  0.4996  0.3909
 1680TIP3    H129235   1.335   2.407  17.698 -1.7789  2.0726 -0.1211
 1680TIP3    H229236   1.373   2.386  17.843  1.3077 -1.7571 -1.3053
 1681TIP3   OH229237   4.455   0.266  18.367 -0.3993 -0.0072 -0.3228
 1681TIP3    H129238   4.486   0.312  18.290  1.1464 -2.5616 -1.3647
 1681TIP3    H229239   4.472   0.173  18.348  2.7261 -0.7001  4.1023
 1682TIP3   OH229240   6.707   3.233  18.596  0.0091  0.0963 -0.1228
 1682TIP3    H129241   6.629   3.276  18.562 -0.5318 -0.8799 -0.1527
 1682TIP3    H229242   6.740   3.181  18.522  0.4563  0.1763  0.0133
 1683TIP3   OH229243   0.949   7.663  17.008  0.4066 -0.2584  0.2801
 1683TIP3    H129244   1.015   7.594  17.001  0.4194 -0.3490  1.1645
 1683TIP3    H229245   0.876   7.631  16.955  0.3316 -1.0617  0.8429
 1684TIP3   OH229246   2.747   6.283  17.714  0.1123  0.2932 -0.6101
 1684TIP3    H129247   2.772   6.375  17.717  1.5534 -0.0750 -0.3779
 1684TIP3    H229248   2.831   6.236  17.714 -0.5783 -1.0835  1.5259
 1685TIP3   OH229249   5.051   5.401  18.437 -0.1757  0.2257  0.1702
 1685TIP3    H129250   5.043   5.352  18.518 -0.3488 -1.6294 -0.9184
 1685TIP3    H229251   4.962   5.429  18.416 -0.3578 -0.5485 -0.1141
 1686TIP3   OH229252   4.810   2.825  18.080 -0.4763 -1.1210 -0.0235
 1686TIP3    H129253   4.766   2.900  18.039  0.0123 -0.4316  0.6867
 1686TIP3    H229254   4.757   2.806  18.157  0.2777 -0.4925  0.6593
 1687TIP3   OH229255   6.138   7.170  18.322 -0.0396  0.0472 -0.0928
 1687TIP3    H129256   6.135   7.250  18.374  0.6373  1.0515 -1.5227
 1687TIP3    H229257   6.231   7.148  18.317 -0.2622 -1.1731  0.7568
 1688TIP3   OH229258   0.032   6.216  18.011  0.3902 -0.3489 -0.2852
 1688TIP3    H129259   0.106   6.182  17.961  1.1401  1.4569 -0.4380
 1688TIP3    H229260   0.062   6.217  18.102  1.9854  3.6785 -0.6775
 1689TIP3   OH229261   7.492   7.320  19.311  0.4111 -0.1297  0.3219
 1689TIP3    H129262   7.461   7.390  19.368  0.6441  0.9183 -0.7844
 1689TIP3    H229263   7.413   7.281  19.275  0.2939  0.5153 -0.1412
 1690TIP3   OH229264   1.545   7.531  18.090  0.3754 -0.0487 -0.2173
 1690TIP3    H129265   1.531   7.498  18.179  1.5602 -0.9483 -0.3496
 1690TIP3    H229266   1.464   7.577  18.069 -0.4472 -0.9722  0.8193
 1691TIP3   OH229267   2.070   6.792  16.802  0.5256 -0.0539  0.0472
 1691TIP3    H129268   1.977   6.774  16.794  0.4914  0.2390 -0.2281
 1691TIP3    H229269   2.112   6.720  16.756  0.4438 -0.3052  0.3626
 1692TIP3   OH229270   3.401   2.539  18.360 -0.1198  0.0548  0.4589
 1692TIP3    H129271   3.385   2.542  18.455  0.2396 -0.4712  0.5404
 1692TIP3    H229272   3.466   2.469  18.349  0.5886  0.7815 -0.0807
 1693TIP3   OH229273   5.618   1.118  17.259  0.3100 -0.5695  0.1801
 1693TIP3    H129274   5.568   1.131  17.178  0.3396  0.0458  0.2590
 1693TIP3    H229275   5.554   1.092  17.324  0.0370  0.5129  0.3582
 1694TIP3   OH229276   0.370   0.978  16.774 -0.1786  0.1708  0.2213
 1694TIP3    H129277   0.423   0.918  16.827  0.5486  1.4011  0.9333
 1694TIP3    H229278   0.414   1.063  16.783 -0.9573  0.7390 -1.0749
 1695TIP3   OH229279   6.189   3.016  18.922 -0.2081 -0.0284  0.6467
 1695TIP3    H129280   6.117   3.040  18.863 -1.2098 -0.2043  1.7534
 1695TIP3    H229281   6.145   2.986  19.002  1.1037  0.2438  1.5047
 1696TIP3   OH229282   5.005   1.566  18.208  0.1685 -0.2216  0.0844
 1696TIP3    H129283   5.060   1.609  18.274 -0.0865 -0.2788  0.3350
 1696TIP3    H229284   4.975   1.485  18.249 -0.5814  0.0876  0.1699
 1697TIP3   OH229285   7.017   6.697  18.017 -0.1182  0.2408 -0.0195
 1697TIP3    H129286   6.929   6.660  18.027 -0.5914  1.2178 -0.3991
 1697TIP3    H229287   7.073   6.643  18.072 -1.2003  0.4657  1.3328
 1698TIP3   OH229288   7.161   0.768  17.739  0.2062 -0.2767  0.5232
 1698TIP3    H129289   7.110   0.699  17.696 -0.2007  0.0822  0.4163
 1698TIP3    H229290   7.233   0.786  17.679 -0.2629  0.1051  0.0589
 1699TIP3   OH229291   1.849   0.025  17.048  0.0108 -0.1876 -0.2435
 1699TIP3    H129292   1.784  -0.011  17.108  0.7243  1.1653  1.4323
 1699TIP3    H229293   1.798   0.067  16.979 -0.8357 -1.1947 -0.2499
 1700TIP3   OH229294   6.123   1.586  18.490  0.8024 -0.7431  0.0406
 1700TIP3    H129295   6.111   1.679  18.470  0.7831 -0.4971  1.1272
 1700TIP3    H229296   6.213   1.581  18.523 -0.2426 -0.4754  3.2253
 1701TIP3   OH229297   2.188   0.021  17.406  0.0110  0.4568 -0.1124
 1701TIP3    H129298   2.268   0.069  17.386 -0.8067  1.5682 -0.8285
 1701TIP3    H229299   2.117   0.073  17.367 -1.1637 -0.0148  1.2967
 1702TIP3   OH229300   3.952   6.144  18.343  0.0598  0.6066 -0.0455
 1702TIP3    H129301   4.014   6.116  18.276  0.4238  1.1913  0.0380
 1702TIP3    H229302   3.873   6.168  18.295 -1.1099 -2.6206  0.0109
 1703TIP3   OH229303   5.593   5.173  18.720  0.3266  0.0415  0.3134
 1703TIP3    H129304   5.591   5.133  18.807  0.8153 -1.2242 -0.2327
 1703TIP3    H229305   5.507   5.152  18.682  0.2979  0.1682  0.3074
 1704TIP3   OH229306   5.571   0.355  16.927 -0.5984  0.0424  0.1071
 1704TIP3    H129307   5.642   0.294  16.906  1.2389  1.4912  1.7053
 1704TIP3    H229308   5.533   0.377  16.842 -0.6125 -2.4174 -0.6077
 1705TIP3   OH229309   4.370   2.027  18.378 -0.4427 -0.0822 -0.3977
 1705TIP3    H129310   4.292   1.983  18.412 -1.0052 -0.1221 -1.6609
 1705TIP3    H229311   4.440   2.000  18.436 -1.0259 -1.5944 -0.3481
 1706TIP3   OH229312   6.328   6.456  17.973  0.3297 -0.1441 -0.3619
 1706TIP3    H129313   6.357   6.546  17.960 -2.6901  0.8911 -0.6002
 1706TIP3    H229314   6.280   6.435  17.893 -0.6202 -1.2792  0.4701
 1707TIP3   OH229315   1.022   4.811  18.028  0.1625  0.6622  0.3831
 1707TIP3    H129316   0.961   4.835  17.958  0.3863  1.2639  0.3868
 1707TIP3    H229317   1.105   4.796  17.984 -0.6191 -3.3015 -0.0763
 1708TIP3   OH229318   6.399   0.041  17.616 -0.3012  0.0850 -0.4100
 1708TIP3    H129319   6.348   0.072  17.541 -0.6655  0.5045  0.0013
 1708TIP3    H229320   6.351  -0.035  17.648 -1.2000  1.0048  0.5227
 1709TIP3   OH229321   6.143   2.624  18.317  0.1427 -0.2067 -0.2093
 1709TIP3    H129322   6.181   2.607  18.403  0.3151  0.5139 -0.1451
 1709TIP3    H229323   6.102   2.540  18.293  1.4857 -0.9144 -0.1390
 1710TIP3   OH229324   5.698   0.082  18.556 -0.4352 -0.4403  0.1527
 1710TIP3    H129325   5.762   0.025  18.600 -0.2735  0.2153  0.7834
 1710TIP3    H229326   5.702   0.056  18.464  0.3612 -0.7693  0.2718
 1711TIP3   OH229327   1.327   3.442  17.155 -0.0557  0.0317  0.5001
 1711TIP3    H129328   1.368   3.525  17.129 -2.0786  1.1817  0.8298
 1711TIP3    H229329   1.378   3.413  17.231 -0.5378  2.0262  1.6406
 1712TIP3   OH229330   3.149   5.608  16.741  0.1249 -0.0618  0.5393
 1712TIP3    H129331   3.086   5.667  16.783 -0.2709  0.5493 -0.8848
 1712TIP3    H229332   3.189   5.660  16.673 -0.4736 -1.5043 -0.9838
 1713TIP3   OH229333   5.232   7.610  17.548 -0.3276 -0.2756 -0.6194
 1713TIP3    H129334   5.192   7.554  17.481 -0.3997 -0.4669 -0.4181
 1713TIP3    H229335   5.254   7.550  17.620  3.5006 -0.8298 -2.0262
 1714TIP3   OH229336   5.518   6.748  16.988  0.4471 -0.3686 -0.3654
 1714TIP3    H129337   5.516   6.803  16.910  2.5397 -1.2161 -1.0745
 1714TIP3    H229338   5.425   6.729  17.006 -0.2179  1.7699 -1.2016
 1715TIP3   OH229339   2.459   6.312  18.089  0.1760 -0.4445 -0.2924
 1715TIP3    H129340   2.457   6.314  18.185  1.7440 -2.3713 -0.1581
 1715TIP3    H229341   2.396   6.378  18.063 -1.0076 -0.5196  2.0791
 1716TIP3   OH229342   0.625   6.736  18.653  0.3485 -0.0418  0.1955
 1716TIP3    H129343   0.537   6.762  18.626  0.1836 -0.1907  0.5766
 1716TIP3    H229344   0.626   6.752  18.748  0.6896 -0.1629  0.2121
 1717TIP3   OH229345   1.391   0.007  17.517 -0.1645  0.0382 -0.1984
 1717TIP3    H129346   1.450   0.080  17.499 -1.2809  0.9982 -0.1024
 1717TIP3    H229347   1.426  -0.066  17.466  0.6691  0.7899 -0.7211
 1718TIP3   OH229348   1.675   0.205  17.859  0.1177  0.0155  0.0766
 1718TIP3    H129349   1.749   0.263  17.880  0.4233 -0.3043 -0.1034
 1718TIP3    H229350   1.647   0.234  17.772  0.6869 -0.5187 -0.2969
 1719TIP3   OH229351   2.752   5.393  18.787  0.0287 -0.2779  0.4127
 1719TIP3    H129352   2.787   5.396  18.875  2.0428 -1.4181 -0.3025
 1719TIP3    H229353   2.829   5.389  18.730 -1.1858  1.1397 -1.4558
 1720TIP3   OH229354   5.205   5.969  18.799 -0.3660 -0.3116 -0.1110
 1720TIP3    H129355   5.112   5.989  18.794 -0.3065 -0.3167 -2.1265
 1720TIP3    H229356   5.244   6.018  18.726  1.1754 -0.4920  0.5473
 1721TIP3   OH229357   6.454   5.781  18.414 -1.0361 -0.1083 -0.2303
 1721TIP3    H129358   6.532   5.726  18.422 -1.2689 -0.6832 -1.6583
 1721TIP3    H229359   6.487   5.871  18.426 -0.4179 -0.4387  0.6526
 1722TIP3   OH229360   3.012   7.094  18.248 -0.5265 -0.3362  0.7567
 1722TIP3    H129361   2.984   7.123  18.161 -0.6815  2.1329  1.5450
 1722TIP3    H229362   3.013   6.998  18.243  0.7894 -0.2848 -2.3633
 1723TIP3   OH229363   7.338   7.479  19.028 -0.1625  0.6510 -0.0101
 1723TIP3    H129364   7.423   7.440  19.006 -0.6621 -0.2753 -0.3129
 1723TIP3    H229365   7.302   7.421  19.095 -1.0162  0.4438 -0.6366
 1724TIP3   OH229366   5.133   5.559  18.738  0.0432  0.2484 -0.0357
 1724TIP3    H129367   5.224   5.535  18.720 -0.6686 -0.8591 -2.6047
 1724TIP3    H229368   5.133   5.586  18.830  3.2864  2.0577 -0.4277
 1725TIP3   OH229369   3.887   2.697  18.888  0.0398 -0.1452 -0.5380
 1725TIP3    H129370   3.868   2.691  18.794  0.8690  1.8880 -0.8819
 1725TIP3    H229371   3.933   2.780  18.898 -0.8446  0.1333  1.8155
 1726TIP3   OH229372   5.167   1.501  18.816 -0.1677 -0.0978 -0.3771
 1726TIP3    H129373   5.156   1.531  18.906  0.2385  1.5198 -0.8360
 1726TIP3    H229374   5.259   1.473  18.811  0.5007  2.0146 -0.8569
 1727TIP3   OH229375   2.607   2.215  17.484  0.1597  0.3186 -0.5260
 1727TIP3    H129376   2.545   2.170  17.427 -1.4810  1.2292  0.4499
 1727TIP3    H229377   2.635   2.291  17.434  0.3813 -0.0163 -0.9174
 1728TIP3   OH229378   5.641   2.210  18.311  0.5155  0.0861  0.0502
 1728TIP3    H129379   5.645   2.282  18.248  0.6551  0.3174  0.3201
 1728TIP3    H229380   5.608   2.251  18.392  1.4169  0.0267  0.4593
 1729TIP3   OH229381   3.752   6.793  17.296  0.0628  0.1335  0.4163
 1729TIP3    H129382   3.739   6.699  17.289  1.1540  0.0589 -1.3243
 1729TIP3    H229383   3.671   6.827  17.332  0.1047 -1.5866  2.2513
 1730TIP3   OH229384   5.197   3.263  17.327 -0.0223  0.2468  0.0514
 1730TIP3    H129385   5.255   3.202  17.284  0.9993  0.5784  0.9184
 1730TIP3    H229386   5.144   3.209  17.386 -0.4804 -0.0288 -0.5996
 1731TIP3   OH229387   2.061   6.138  17.842  0.6967  0.0928  0.0011
 1731TIP3    H129388   2.006   6.127  17.920 -1.4129 -1.5837 -1.5798
 1731TIP3    H229389   2.127   6.070  17.850  1.6116  1.0624  1.1211
 1732TIP3   OH229390   4.337   0.639  18.626  0.5584  0.8469 -0.0746
 1732TIP3    H129391   4.258   0.644  18.679  1.3511  2.2931  1.0502
 1732TIP3    H229392   4.320   0.695  18.551  0.3424  0.7526 -0.0969
 1733TIP3   OH229393   4.752   6.144  18.646 -0.4010 -0.2435  0.5537
 1733TIP3    H129394   4.732   6.184  18.730 -1.6952 -1.5431  0.9129
 1733TIP3    H229395   4.729   6.211  18.581  0.6617  0.7864  1.2078
 1734TIP3   OH229396   4.861   2.730  18.705  0.3495 -0.0931  0.2922
 1734TIP3    H129397   4.768   2.709  18.705  0.5952 -1.2329 -0.2892
 1734TIP3    H229398   4.868   2.805  18.646 -0.3242  0.6589  1.1447
 1735TIP3   OH229399   5.429   2.006  18.623 -0.1909  0.3802  0.4770
 1735TIP3    H129400   5.518   1.970  18.630 -0.3457 -0.1762 -0.2878
 1735TIP3    H229401   5.376   1.933  18.592 -0.8308  0.8374  0.4831
 1736TIP3   OH229402   2.320   3.271  18.923  0.3072  0.1549 -0.1593
 1736TIP3    H129403   2.260   3.263  18.998 -1.0877  1.2399 -1.1000
 1736TIP3    H229404   2.329   3.365  18.910  1.5004 -0.0173 -0.6224
 1737TIP3   OH229405   6.254   0.345  18.253  0.2296 -0.2130  0.4702
 1737TIP3    H129406   6.327   0.310  18.201 -0.9632 -1.1797 -0.6155
 1737TIP3    H229407   6.222   0.420  18.202 -1.2301 -1.4345 -0.5113
 1738TIP3   OH229408   5.872   4.206  16.874 -0.5147  0.3843  0.0968
 1738TIP3    H129409   5.921   4.173  16.798  0.4149  1.3369  0.2649
 1738TIP3    H229410   5.933   4.199  16.947 -1.4281 -0.6023  0.8077
 1739TIP3   OH229411   5.139   1.921  18.916 -0.1914  0.0157 -0.5156
 1739TIP3    H129412   5.053   1.884  18.899 -0.8172  0.4734  1.3934
 1739TIP3    H229413   5.125   1.982  18.989  1.3807  1.6167 -1.4584
 1740TIP3   OH229414   3.935   0.870  19.087 -0.0751  0.2503 -0.0146
 1740TIP3    H129415   3.961   0.782  19.113  3.6345  1.0502 -0.5009
 1740TIP3    H229416   4.002   0.927  19.126 -1.6993  2.7550 -0.6809
 1741TIP3   OH229417   0.230   6.437  19.494  0.0135  0.0330 -0.2213
 1741TIP3    H129418   0.228   6.485  19.411 -1.3952 -1.8475 -1.3354
 1741TIP3    H229419   0.302   6.375  19.484 -2.1432 -2.4768 -1.5010
 1742TIP3   OH229420   5.882   6.063  18.208  0.4631 -0.6789  0.1121
 1742TIP3    H129421   5.844   6.012  18.279 -0.4275  0.0324  0.1616
 1742TIP3    H229422   5.824   6.138  18.198  0.8129 -0.5361 -1.0757
 1743TIP3   OH229423   4.677   5.108  18.512  0.3447  0.0096  0.4893
 1743TIP3    H129424   4.693   5.156  18.431 -1.7081  0.2352  0.1690
 1743TIP3    H229425   4.764   5.101  18.553  1.3317  0.4050 -1.4119
 1744TIP3   OH229426   3.733   4.580  19.304  0.1287  0.0552  0.3156
 1744TIP3    H129427   3.688   4.530  19.372 -1.3867  0.2118 -0.5293
 1744TIP3    H229428   3.681   4.566  19.225  0.5495  1.7229 -0.3009
 1745TIP3   OH229429   7.584   0.668  16.623 -0.3505  0.3323 -0.2887
 1745TIP3    H129430   7.606   0.600  16.559 -0.6533 -0.3837  0.3610
 1745TIP3    H229431   7.514   0.718  16.582 -1.0166 -0.5445 -0.2471
 1746TIP3   OH229432   5.904   5.020  16.839 -0.0109  0.3066  0.0914
 1746TIP3    H129433   5.901   4.925  16.826  0.9532 -0.1099  2.4146
 1746TIP3    H229434   5.813   5.048  16.835 -0.2079 -0.4880 -1.8571
 1747TIP3   OH229435   6.441   3.932  19.006 -0.2397 -0.3621 -0.0355
 1747TIP3    H129436   6.385   4.010  19.008  0.0185 -0.0574 -2.2306
 1747TIP3    H229437   6.515   3.955  19.061 -0.9982  0.2620  0.7547
 1748TIP3   OH229438   6.711   0.538  18.909  0.1623  0.0956 -0.4462
 1748TIP3    H129439   6.800   0.523  18.941  0.2876  0.0209 -0.8318
 1748TIP3    H229440   6.663   0.570  18.986  0.7198  0.9131 -0.4314
 1749TIP3   OH229441   1.917   1.729  18.239 -0.3972 -0.2584 -0.2822
 1749TIP3    H129442   1.940   1.745  18.330 -0.7305  1.8980 -0.5195
 1749TIP3    H229443   1.973   1.656  18.212  0.0596 -0.6025  1.4822
 1750TIP3   OH229444   0.264   3.464  18.381 -0.3187 -0.0389 -0.6431
 1750TIP3    H129445   0.275   3.550  18.421 -1.2524 -0.1480 -0.1052
 1750TIP3    H229446   0.242   3.482  18.290 -0.9615  0.3269 -0.4272
 1751TIP3   OH229447   0.165   0.676  16.563 -0.4132 -0.2688  0.1413
 1751TIP3    H129448   0.095   0.708  16.620 -0.9708  0.1352 -0.7274
 1751TIP3    H229449   0.122   0.613  16.505 -0.2444  0.5023 -0.8665
 1752TIP3   OH229450   3.208   7.167  18.642 -0.3305 -0.1145  0.0011
 1752TIP3    H129451   3.256   7.230  18.696  0.8476  0.4525 -1.6320
 1752TIP3    H229452   3.131   7.216  18.611 -0.2260  0.0281 -0.0323
 1753TIP3   OH229453   2.157   6.382  18.919 -0.2043  0.1453 -0.2389
 1753TIP3    H129454   2.073   6.427  18.904 -0.5523 -0.6721 -0.8507
 1753TIP3    H229455   2.171   6.331  18.839  0.1938 -0.7868  0.4013
 1754TIP3   OH229456   0.400   4.389  19.567 -0.3883 -0.4550  0.1238
 1754TIP3    H129457   0.361   4.409  19.652 -0.1726 -1.3814  0.4461
 1754TIP3    H229458   0.361   4.306  19.541  2.3012 -2.1731  1.1014
 1755TIP3   OH229459   7.546   3.648  16.883 -0.2261 -0.4314  0.5722
 1755TIP3    H129460   7.606   3.617  16.952 -1.9881 -2.3081  1.3650
 1755TIP3    H229461   7.469   3.678  16.930 -1.8418 -2.5994 -0.5383
 1756TIP3   OH229462   0.595   6.127  17.640 -0.1955  0.1855 -0.6158
 1756TIP3    H129463   0.501   6.120  17.622 -0.7856 -1.6368  2.4898
 1756TIP3    H229464   0.602   6.207  17.692 -0.2895 -0.4212  0.3502
 1757TIP3   OH229465   4.780   0.994  18.771 -0.3729  0.4267  0.5271
 1757TIP3    H129466   4.861   0.952  18.741 -0.5237 -0.5738  1.4434
 1757TIP3    H229467   4.798   1.021  18.861  0.1384  3.5559 -0.4230
 1758TIP3   OH229468   4.560   5.349  17.119  0.0447 -0.1821 -0.0171
 1758TIP3    H129469   4.511   5.306  17.049 -0.5471  0.9415 -0.3170
 1758TIP3    H229470   4.627   5.286  17.144  0.3038 -0.5970 -1.6361
 1759TIP3   OH229471   6.623   6.768  18.893  0.1457  0.4802 -0.4633
 1759TIP3    H129472   6.552   6.714  18.927  0.5946  0.9542  1.3490
 1759TIP3    H229473   6.703   6.725  18.924  0.5810  1.0055 -0.8332
 1760TIP3   OH229474   5.893   0.496  18.501  0.5597 -0.1378 -0.5543
 1760TIP3    H129475   5.942   0.536  18.429  1.1611  0.8977  0.4002
 1760TIP3    H229476   5.951   0.427  18.534  0.5012 -0.2757 -0.7412
 1761TIP3   OH229477   6.315   4.652  19.310  0.1280  0.4447 -0.2970
 1761TIP3    H129478   6.379   4.591  19.349 -0.1971 -0.5984 -1.3474
 1761TIP3    H229479   6.307   4.722  19.375  1.5235  0.0501  0.3489
 1762TIP3   OH229480   4.449   1.446  18.843 -0.4414  0.3623  0.0184
 1762TIP3    H129481   4.519   1.398  18.887  0.6505  1.0746 -0.8485
 1762TIP3    H229482   4.383   1.460  18.910  0.7157  0.5593  1.1659
 1763TIP3   OH229483   6.428   2.143  17.709 -0.1075 -0.2248 -0.2862
 1763TIP3    H129484   6.369   2.215  17.733  0.6331  0.0326  0.8619
 1763TIP3    H229485   6.475   2.175  17.632  0.3118  0.6076  0.2946
 1764TIP3   OH229486   4.385   5.404  19.035 -0.4869  0.1527  0.2568
 1764TIP3    H129487   4.467   5.365  19.006  0.3541  1.6039  0.5953
 1764TIP3    H229488   4.344   5.336  19.089 -0.1691 -1.0786 -1.0040
 1765TIP3   OH229489   5.491   7.105  18.529 -0.1500  0.6801 -0.3612
 1765TIP3    H129490   5.534   7.189  18.510 -1.7775  1.6736  0.2265
 1765TIP3    H229491   5.444   7.120  18.611 -1.9548 -0.2084 -1.1852
 1766TIP3   OH229492   6.208   5.071  16.809  0.6591 -0.2824  0.0492
 1766TIP3    H129493   6.117   5.042  16.800 -0.0230  1.7285  0.0543
 1766TIP3    H229494   6.206   5.135  16.880  2.5699 -2.0370  1.8210
 1767TIP3   OH229495   7.254   1.559  18.608 -0.1674  0.1023 -0.0827
 1767TIP3    H129496   7.327   1.590  18.555 -0.4346 -0.0400 -0.5315
 1767TIP3    H229497   7.212   1.638  18.640  1.1351  0.2213  1.5288
 1768TIP3   OH229498   3.970   2.212  18.927  0.0290  0.3285  0.2888
 1768TIP3    H129499   4.027   2.220  18.851 -0.5223 -0.2486 -0.1946
 1768TIP3    H229500   3.965   2.301  18.963 -1.5756  1.1161 -1.7078
 1769TIP3   OH229501   5.683   4.862  18.638  0.1364  0.3639 -0.3065
 1769TIP3    H129502   5.771   4.886  18.667  0.0867  0.0960  0.0877
 1769TIP3    H229503   5.677   4.768  18.656 -0.1918  0.3598 -0.4290
 1770TIP3   OH229504   2.505   7.072  16.849 -0.1081  0.4394  0.0509
 1770TIP3    H129505   2.558   7.034  16.779  0.4541  0.8371  0.2642
 1770TIP3    H229506   2.414   7.055  16.822  0.1246 -1.0020  0.1039
 1771TIP3   OH229507   7.207   5.742  16.635 -0.2587 -0.2323 -0.4182
 1771TIP3    H129508   7.225   5.648  16.638 -0.1763 -0.2008  0.8285
 1771TIP3    H229509   7.128   5.750  16.583 -1.5398 -1.2299  1.2472
 1772TIP3   OH229510   3.650   2.091  18.668 -0.8042  0.0461  0.1933
 1772TIP3    H129511   3.592   2.072  18.742 -0.3429 -0.3082  0.4700
 1772TIP3    H229512   3.596   2.075  18.591 -0.6640 -1.7600  0.4249
 1773TIP3   OH229513   1.002   0.447  16.791 -0.4353 -0.0259 -0.2150
 1773TIP3    H129514   1.059   0.381  16.751 -1.0147 -1.0283  0.5656
 1773TIP3    H229515   0.947   0.398  16.852 -1.3316  1.0927 -0.0840
 1774TIP3   OH229516   7.210   6.934  18.607 -0.2126  0.0527 -0.7391
 1774TIP3    H129517   7.182   7.024  18.623  0.4831  0.4879 -1.8912
 1774TIP3    H229518   7.159   6.882  18.669 -0.4729  1.2543  0.0807
 1775TIP3   OH229519   7.101   3.239  18.238 -0.0310  0.0295 -0.0511
 1775TIP3    H129520   7.105   3.305  18.307 -0.9570 -0.9909  1.0096
 1775TIP3    H229521   7.171   3.178  18.259 -0.4405 -0.3901  0.1160
 1776TIP3   OH229522   7.318   3.690  19.398  0.1443  0.3315 -1.3514
 1776TIP3    H129523   7.228   3.661  19.384 -0.7630 -0.2621  3.5679
 1776TIP3    H229524   7.368   3.609  19.405 -0.1515  0.2744  1.1814
 1777TIP3   OH229525   0.361   4.496  18.807  0.0378 -0.0271  0.1399
 1777TIP3    H129526   0.328   4.446  18.732 -0.1506  0.4704 -0.1114
 1777TIP3    H229527   0.414   4.433  18.856 -0.3009 -0.5068 -0.1061
 1778TIP3   OH229528   5.024   3.874  18.651  0.3899  0.2441 -0.0567
 1778TIP3    H129529   4.978   3.905  18.573  2.5124 -0.2604 -1.6030
 1778TIP3    H229530   4.982   3.790  18.671 -1.2861  1.1537  0.4114
 1779TIP3   OH229531   1.102   4.575  17.738 -0.5893  0.1979 -0.4567
 1779TIP3    H129532   1.156   4.646  17.705 -0.0525  0.1088  0.2124
 1779TIP3    H229533   1.058   4.540  17.660 -0.6926  1.1126 -0.8154
 1780TIP3   OH229534   1.671   3.831  18.894 -0.2926 -0.3235  0.4101
 1780TIP3    H129535   1.743   3.823  18.957  0.4910 -1.5474 -0.5882
 1780TIP3    H229536   1.602   3.878  18.942  1.0616  0.6522  1.4734
 1781TIP3   OH229537   1.689   2.827  18.092 -0.2489  0.2653 -0.1686
 1781TIP3    H129538   1.645   2.845  18.009 -0.2813 -1.9701 -0.7029
 1781TIP3    H229539   1.635   2.759  18.132 -0.5227  1.6558  1.9828
 1782TIP3   OH229540   3.864   6.536  18.961 -0.2796  0.1370 -0.5536
 1782TIP3    H129541   3.819   6.510  18.881  0.4618 -1.3335 -0.5234
 1782TIP3    H229542   3.906   6.456  18.992  0.9356  1.0799  0.3349
 1783TIP3   OH229543   5.554   5.847  17.845  0.5240  0.6741 -0.2056
 1783TIP3    H129544   5.632   5.793  17.859 -1.1449 -1.5779  1.3699
 1783TIP3    H229545   5.538   5.841  17.751  0.2763 -1.9675 -0.0876
 1784TIP3   OH229546   4.456   6.979  19.170 -0.1410 -0.1587 -0.2025
 1784TIP3    H129547   4.384   6.916  19.182  0.2959 -0.3689  1.5724
 1784TIP3    H229548   4.431   7.054  19.224  0.1718  0.4900 -0.9428
 1785TIP3   OH229549   7.177   3.520  18.039 -0.0510  0.6635  0.1039
 1785TIP3    H129550   7.153   3.493  18.128 -0.0899  1.3093  0.2941
 1785TIP3    H229551   7.098   3.560  18.004 -0.8618 -1.8652 -1.1748
 1786TIP3   OH229552   1.889   0.457  17.482 -0.4333  0.1647  0.2950
 1786TIP3    H129553   1.964   0.507  17.448  0.0301 -1.3747 -1.0887
 1786TIP3    H229554   1.927   0.377  17.517 -1.3182 -0.0291  0.8464
 1787TIP3   OH229555   0.352   1.568  16.453  0.2650  0.0859 -0.0655
 1787TIP3    H129556   0.414   1.506  16.491  1.0552  0.9653  0.1140
 1787TIP3    H229557   0.349   1.545  16.360  0.1428 -0.5441  0.0878
 1788TIP3   OH229558   5.700   0.374  17.644 -0.0308 -0.0181  0.0096
 1788TIP3    H129559   5.703   0.404  17.553 -0.9936 -1.5278 -0.5656
 1788TIP3    H229560   5.628   0.311  17.646 -1.3218  1.3938  2.2950
 1789TIP3   OH229561   1.724   5.944  19.277 -0.1846 -0.0020 -0.4946
 1789TIP3    H129562   1.814   5.977  19.268 -0.4059  1.1141  1.0174
 1789TIP3    H229563   1.672   6.002  19.222 -0.2483  0.7443  0.3251
 1790TIP3   OH229564   4.318   2.080  19.495  0.3600 -0.1079 -0.4197
 1790TIP3    H129565   4.334   2.123  19.579  0.6643  1.1954 -1.1219
 1790TIP3    H229566   4.342   2.145  19.429  0.4594 -1.2261 -1.5324
 1791TIP3   OH229567   1.779   0.006  17.463 -0.1138 -0.1606  0.3339
 1791TIP3    H129568   1.859   0.059  17.466  1.0209 -1.7219 -0.6224
 1791TIP3    H229569   1.750   0.001  17.554  1.2676 -0.0882  0.8030
 1792TIP3   OH229570   1.073   5.728  19.017 -0.0572  0.2415 -0.1948
 1792TIP3    H129571   0.998   5.671  19.034  0.9740 -1.6084 -1.5104
 1792TIP3    H229572   1.141   5.696  19.076  0.3884  0.4058 -0.6140
 1793TIP3   OH229573   0.891   3.015  17.841  0.1925 -0.4432 -0.3679
 1793TIP3    H129574   0.842   3.084  17.884  0.7564 -0.7686  0.8488
 1793TIP3    H229575   0.925   3.056  17.761  1.4021  1.0199  0.8394
 1794TIP3   OH229576   1.303   3.278  18.515  0.1838 -0.0865  0.3158
 1794TIP3    H129577   1.378   3.335  18.501 -0.0744  1.2123  3.3306
 1794TIP3    H229578   1.238   3.335  18.556 -1.7988 -1.6026 -0.5411
 1795TIP3   OH229579   6.222   0.627  19.124 -0.0377 -0.0599  0.0613
 1795TIP3    H129580   6.155   0.561  19.142  0.5843 -0.8218 -0.3609
 1795TIP3    H229581   6.183   0.682  19.056 -1.4177  1.3491  1.8983
 1796TIP3   OH229582   5.736   0.902  17.617  0.3283  0.0294  0.0327
 1796TIP3    H129583   5.825   0.902  17.581  0.3850 -1.6766  0.1248
 1796TIP3    H229584   5.688   0.962  17.559  1.2915  0.2179 -0.6141
 1797TIP3   OH229585   1.112   7.373  18.012  0.2890 -0.4256  0.3419
 1797TIP3    H129586   1.172   7.406  18.079 -1.0412  1.5896  0.6161
 1797TIP3    H229587   1.040   7.335  18.061  0.7891 -1.8394  0.0123
 1798TIP3   OH229588   5.689   3.571  19.453 -0.1063 -0.3037  0.0352
 1798TIP3    H129589   5.748   3.645  19.436 -0.8645 -0.1898 -2.6218
 1798TIP3    H229590   5.747   3.495  19.462  0.5599  0.1827 -0.1026
 1799TIP3   OH229591   3.166   3.491  19.244  0.2046 -0.3700 -0.9450
 1799TIP3    H129592   3.085   3.451  19.275  0.2493 -0.4844 -0.9708
 1799TIP3    H229593   3.234   3.429  19.271  0.3074 -0.1568 -0.7143
 1800TIP3   OH229594   7.300   4.863  19.256 -0.1055 -0.3527  0.2118
 1800TIP3    H129595   7.394   4.847  19.270  0.2236  0.4245 -0.9068
 1800TIP3    H229596   7.279   4.936  19.314 -0.0734 -0.6582  0.6128
 1801TIP3   OH229597   1.531   1.507  19.414 -0.1121  0.2459  0.5552
 1801TIP3    H129598   1.522   1.419  19.378  1.0789  0.8405 -1.3660
 1801TIP3    H229599   1.553   1.494  19.506 -1.7599 -1.3991  0.7638
 1802TIP3   OH229600   1.361   7.042  18.842  0.3270  0.3478  0.0346
 1802TIP3    H129601   1.327   7.066  18.756 -0.1328 -0.9179 -0.1527
 1802TIP3    H229602   1.382   7.126  18.884 -1.0863  1.0661 -0.6359
 1803TIP3   OH229603   6.118   4.917  17.878  0.2969  0.3792 -0.0730
 1803TIP3    H129604   6.077   4.930  17.963 -0.0957  1.2248 -0.3724
 1803TIP3    H229605   6.048   4.884  17.822  0.2998  0.7529 -0.3020
 1804TIP3   OH229606   2.752   0.520  16.554  0.6948 -0.2590 -0.0754
 1804TIP3    H129607   2.833   0.539  16.507 -0.6019 -0.0713 -2.3941
 1804TIP3    H229608   2.702   0.601  16.550  0.1472 -0.5424  0.8127
 1805TIP3   OH229609   3.921   2.754  16.763  0.1036  0.2577  0.0957
 1805TIP3    H129610   3.932   2.667  16.802  1.1065  0.3386  0.0254
 1805TIP3    H229611   3.826   2.768  16.762  0.0067 -0.1568  1.5672
 1806TIP3   OH229612   0.518   0.459  19.370  0.1867  0.0059  0.3358
 1806TIP3    H129613   0.555   0.380  19.409 -0.4883 -0.4720  0.0109
 1806TIP3    H229614   0.436   0.474  19.418  0.8457  1.1537  1.1595
 1807TIP3   OH229615   2.410   5.378  17.389  0.1225  0.3547  0.2371
 1807TIP3    H129616   2.336   5.424  17.349 -0.0792 -0.1346  0.0375
 1807TIP3    H229617   2.475   5.370  17.319  0.4369  0.9277  0.4559
 1808TIP3   OH229618   1.283   0.195  18.775 -0.1910 -0.1696 -0.2226
 1808TIP3    H129619   1.222   0.129  18.742 -1.9875  0.2337  2.0376
 1808TIP3    H229620   1.353   0.144  18.816 -1.3915 -0.7412  1.2001
 1809TIP3   OH229621   3.373   1.444  16.954  0.4826  0.2087  0.7512
 1809TIP3    H129622   3.281   1.426  16.974  0.5142 -0.4525  0.3405
 1809TIP3    H229623   3.397   1.377  16.889  0.6602  1.6342 -0.7326
 1810TIP3   OH229624   5.706   3.497  18.362  0.4440 -0.4638  0.1576
 1810TIP3    H129625   5.790   3.468  18.396  0.8338 -0.1022 -0.4753
 1810TIP3    H229626   5.703   3.590  18.381 -0.8375 -0.8554  2.2537
 1811TIP3   OH229627   3.796   3.406  18.614  0.0334  0.4228  0.2905
 1811TIP3    H129628   3.808   3.498  18.636  0.5458  0.3202  0.4661
 1811TIP3    H229629   3.702   3.395  18.604 -0.0345  0.9529  0.3187
 1812TIP3   OH229630   5.209   3.839  17.321 -0.6340  0.6453  0.1106
 1812TIP3    H129631   5.156   3.882  17.254  0.3207  1.5149 -0.1107
 1812TIP3    H229632   5.234   3.756  17.281  0.0736  1.2331 -0.6999
 1813TIP3   OH229633   4.298   7.070  18.657 -0.1791  0.3212  0.0697
 1813TIP3    H129634   4.292   7.162  18.685 -1.4966 -0.0696  1.1580
 1813TIP3    H229635   4.355   7.029  18.721 -1.7583 -0.1774  1.2220
 1814TIP3   OH229636   4.688   0.793  18.479  0.7234  0.8005 -0.3343
 1814TIP3    H129637   4.728   0.810  18.393  0.2424 -0.9377 -0.9553
 1814TIP3    H229638   4.627   0.721  18.463  0.2300  0.7955  1.3740
 1815TIP3   OH229639   4.272   6.269  18.148 -0.1019 -0.0629 -0.5983
 1815TIP3    H129640   4.192   6.271  18.096 -1.0066  0.0778  0.7634
 1815TIP3    H229641   4.251   6.317  18.228  1.7812  1.2302 -0.7940
 1816TIP3   OH229642   5.699   6.421  18.829 -0.0229  0.2336 -0.0621
 1816TIP3    H129643   5.734   6.400  18.915 -1.1252  0.9182  0.5779
 1816TIP3    H229644   5.688   6.336  18.786 -0.0976 -0.1646  0.7299
 1817TIP3   OH229645   4.545   4.011  19.041  0.2549 -0.1692 -0.5650
 1817TIP3    H129646   4.612   4.076  19.063  1.7742 -1.4612 -1.1761
 1817TIP3    H229647   4.523   4.028  18.950  0.7301 -0.5522 -0.7573
 1818TIP3   OH229648   2.302   7.311  18.223  0.1855  0.5430  0.3368
 1818TIP3    H129649   2.325   7.342  18.136  1.3867  1.7245  1.0439
 1818TIP3    H229650   2.272   7.221  18.210 -0.8569  1.1064 -1.4402
 1819TIP3   OH229651   4.066   2.328  17.540  0.5779 -0.4985 -0.0178
 1819TIP3    H129652   4.155   2.340  17.572 -0.1575  0.9652  1.6903
 1819TIP3    H229653   4.070   2.352  17.448  2.1994 -1.8956 -0.3730
 1820TIP3   OH229654   6.147   6.433  18.188  0.2774  0.5577  0.1032
 1820TIP3    H129655   6.164   6.373  18.260  1.3903  0.6959 -0.0259
 1820TIP3    H229656   6.227   6.433  18.136 -1.1098 -1.0002 -2.2637
 1821TIP3   OH229657   3.416   7.511  16.459  0.2155 -0.0228 -0.0279
 1821TIP3    H129658   3.455   7.510  16.547  0.4012 -2.5041 -0.0760
 1821TIP3    H229659   3.383   7.600  16.449 -1.1997 -0.0241  3.1909
 1822TIP3   OH229660   2.287   4.290  18.422 -0.5234  0.3598 -0.0567
 1822TIP3    H129661   2.292   4.386  18.429  2.4396  0.2327  1.0335
 1822TIP3    H229662   2.267   4.261  18.511 -1.3197 -0.0705 -0.3643
 1823TIP3   OH229663   0.113   3.407  18.904  0.1968 -0.2970 -0.0163
 1823TIP3    H129664   0.157   3.424  18.821 -1.0917 -0.7890 -0.8347
 1823TIP3    H229665   0.039   3.467  18.905  1.1362  0.8885  1.5841
 1824TIP3   OH229666   7.257   2.098  19.194 -0.1526  0.7905 -0.1810
 1824TIP3    H129667   7.188   2.044  19.156  0.6219 -0.2508 -0.1501
 1824TIP3    H229668   7.335   2.043  19.191  0.7060  1.9710 -0.2893
 1825TIP3   OH229669   2.420   5.610  18.357 -0.4295  0.1877 -0.1055
 1825TIP3    H129670   2.366   5.559  18.295 -2.5171  3.2038 -1.0180
 1825TIP3    H229671   2.454   5.545  18.418  0.4019 -2.7886 -3.3986
 1826TIP3   OH229672   0.947   1.767  17.592  0.5889 -0.3298  0.0305
 1826TIP3    H129673   0.975   1.715  17.667 -0.7403 -0.4819  0.4524
 1826TIP3    H229674   0.980   1.855  17.611 -1.2113  0.0747  1.7466
 1827TIP3   OH229675   7.477   3.220  18.019 -0.2146  0.2663 -0.0975
 1827TIP3    H129676   7.527   3.216  17.938  0.0583 -1.3666  0.1140
 1827TIP3    H229677   7.386   3.229  17.991 -0.0720  0.2156 -0.5832
 1828TIP3   OH229678   0.994   2.706  18.449 -0.3619  0.2639  0.2049
 1828TIP3    H129679   1.001   2.696  18.354  1.0521  1.2384  0.1844
 1828TIP3    H229680   1.052   2.639  18.485  1.0794  1.4974  0.2873
 1829TIP3   OH229681   6.649   1.854  17.328  0.9104 -0.3698  0.5242
 1829TIP3    H129682   6.561   1.869  17.363  0.1354 -1.2279 -0.9651
 1829TIP3    H229683   6.659   1.920  17.259  0.8473 -1.2019 -0.2968
 1830TIP3   OH229684   2.258   5.953  17.772 -0.1032  0.1811 -0.5463
 1830TIP3    H129685   2.255   5.871  17.820 -0.0072 -1.1168 -2.6134
 1830TIP3    H229686   2.351   5.968  17.755 -0.1189  0.7285 -0.1574
 1831TIP3   OH229687   1.801   2.423  16.836  0.3262  0.5222  0.1458
 1831TIP3    H129688   1.865   2.421  16.764  1.1129 -2.5894  0.7926
 1831TIP3    H229689   1.733   2.362  16.809 -0.6308  1.1745  1.0179
 1832TIP3   OH229690   6.963   2.712  18.337  0.1257 -0.0728  0.6075
 1832TIP3    H129691   6.973   2.667  18.254  0.7564  1.1781 -0.0321
 1832TIP3    H229692   6.903   2.784  18.319 -0.6840 -0.4959  1.5435
 1833TIP3   OH229693   2.328   5.851  18.604  0.2128  0.2060  1.1113
 1833TIP3    H129694   2.285   5.824  18.684 -0.5492 -1.2331  0.2576
 1833TIP3    H229695   2.257   5.868  18.542  0.7704  1.5874  0.7978
 1834TIP3   OH229696   5.319   7.426  17.734 -0.2299  0.0634 -0.3507
 1834TIP3    H129697   5.297   7.456  17.822  1.4108  0.6226 -0.0982
 1834TIP3    H229698   5.346   7.335  17.745 -0.1989  0.0769 -0.3195
 1835TIP3   OH229699   3.830   7.619  19.037  0.0171  0.2890 -0.5953
 1835TIP3    H129700   3.792   7.534  19.062 -1.6141  1.5768  1.7518
 1835TIP3    H229701   3.754   7.675  19.021  1.0714  1.3356 -2.1744
 1836TIP3   OH229702   0.395   7.560  16.517  0.1605  0.3152  0.1178
 1836TIP3    H129703   0.321   7.615  16.543 -0.3638 -0.3591  0.0589
 1836TIP3    H229704   0.361   7.505  16.447 -0.0984 -1.9455  1.9181
 1837TIP3   OH229705   4.793   5.506  18.424  0.0765 -0.6209  0.2949
 1837TIP3    H129706   4.726   5.567  18.393  0.0595 -0.4099  0.7381
 1837TIP3    H229707   4.830   5.549  18.501  1.1858 -0.4231 -0.3314
 1838TIP3   OH229708   2.977   4.951  17.588  0.0027 -0.0681  0.3411
 1838TIP3    H129709   3.010   4.982  17.673 -0.1032  2.0997 -0.3445
 1838TIP3    H229710   2.891   4.914  17.609 -0.2846  0.9724  1.1481
 1839TIP3   OH229711   7.328   7.592  18.007 -0.1577 -0.0622  0.2970
 1839TIP3    H129712   7.233   7.597  17.994 -0.2579 -1.2053  0.4406
 1839TIP3    H229713   7.338   7.579  18.102  0.0639 -1.1231  0.1432
 1840TIP3   OH229714   2.108   0.717  18.230  0.0290 -0.1115  0.1124
 1840TIP3    H129715   2.016   0.745  18.225 -0.2146 -0.6060  1.3764
 1840TIP3    H229716   2.158   0.798  18.233 -0.2737  0.1820 -1.4387
 1841TIP3   OH229717   0.069   7.593  16.742 -0.0962  0.5159  0.3019
 1841TIP3    H129718   0.036   7.556  16.660  0.4423  0.7185 -0.0129
 1841TIP3    H229719   0.149   7.638  16.717 -1.2264  2.7823  0.4730
 1842TIP3   OH229720   0.050   6.199  18.275 -0.4430 -0.3531 -0.0229
 1842TIP3    H129721  -0.029   6.246  18.302 -0.7093 -1.0728  0.4827
 1842TIP3    H229722   0.107   6.201  18.352 -0.2618 -0.4478 -0.1531
 1843TIP3   OH229723   0.686   5.394  19.366  0.0341 -0.1796  0.5674
 1843TIP3    H129724   0.761   5.336  19.380  0.9264  0.1787 -2.1278
 1843TIP3    H229725   0.615   5.334  19.342  0.2204 -0.3679  0.4692
 1844TIP3   OH229726   3.846   7.131  19.230 -0.0103  0.2224  1.1552
 1844TIP3    H129727   3.873   7.044  19.259  1.5417  0.3902  0.2963
 1844TIP3    H229728   3.761   7.117  19.188 -0.5567 -0.5934  2.4572
 1845TIP3   OH229729   0.261   0.279  19.370 -0.2912  0.0852  0.9051
 1845TIP3    H129730   0.170   0.259  19.348 -0.3291  1.6662 -0.6435
 1845TIP3    H229731   0.258   0.366  19.410  0.7658  2.0086 -2.6921
 1846TIP3   OH229732   0.176   6.519  18.559 -0.1400 -0.9752  0.4225
 1846TIP3    H129733   0.218   6.458  18.499  0.0848  0.5910 -1.1131
 1846TIP3    H229734   0.083   6.513  18.538  0.0245  0.2777 -0.8784
 1847TIP3   OH229735   2.878   3.325  17.297  0.2604  0.2217 -0.6331
 1847TIP3    H129736   2.951   3.385  17.311  1.3958 -0.7036 -2.2848
 1847TIP3    H229737   2.838   3.315  17.384  0.1182  3.1701 -0.2626
 1848TIP3   OH229738   4.225   7.366  18.735 -0.0520  0.4850  0.7123
 1848TIP3    H129739   4.304   7.381  18.786  0.0187 -0.0120  0.7582
 1848TIP3    H229740   4.156   7.409  18.784  0.1202  0.5539  0.8957
 1849TIP3   OH229741   3.327   2.561  18.644  0.2509 -0.1784  0.4037
 1849TIP3    H129742   3.390   2.633  18.641  0.6927 -0.5357  0.7873
 1849TIP3    H229743   3.339   2.523  18.731  0.5388 -1.1566 -0.0500
 1850TIP3   OH229744   1.562   3.210  17.128  0.6726 -0.2993 -0.4166
 1850TIP3    H129745   1.631   3.143  17.136  0.5976 -0.5842 -1.8425
 1850TIP3    H229746   1.604   3.283  17.084  1.1160  1.2160  2.2991
 1851TIP3   OH229747   1.082   1.569  17.048 -0.1178 -0.6192 -0.3393
 1851TIP3    H129748   1.134   1.563  16.968  0.6700  1.5971 -0.0706
 1851TIP3    H229749   1.133   1.523  17.114 -1.0568 -2.9937 -1.1519
 1852TIP3   OH229750   2.316   6.710  17.125  0.0773 -0.3739 -0.0626
 1852TIP3    H129751   2.228   6.743  17.105  0.0612  1.9992  3.0490
 1852TIP3    H229752   2.375   6.777  17.092  0.6996 -1.5101 -1.3175
 1853TIP3   OH229753   7.466   3.385  17.449  0.2473 -0.4870  0.0616
 1853TIP3    H129754   7.373   3.406  17.450  0.4437  0.4116  0.6256
 1853TIP3    H229755   7.509   3.467  17.422  1.0104 -0.2720  1.8151
 1854TIP3   OH229756   0.185   0.246  17.963  0.1879  0.0776  0.3655
 1854TIP3    H129757   0.133   0.169  17.985  0.1772 -0.0231  0.0002
 1854TIP3    H229758   0.160   0.266  17.872  1.3462 -0.4276 -0.0739
 1855TIP3   OH229759   4.607   7.404  17.405  0.3451  0.3772 -0.4635
 1855TIP3    H129760   4.533   7.463  17.387  0.3149 -0.3938 -3.3671
 1855TIP3    H229761   4.589   7.327  17.352  3.5885  0.4842 -1.9245
 1856TIP3   OH229762   5.828   2.087  16.521 -0.0984  0.2790 -0.4367
 1856TIP3    H129763   5.890   2.159  16.535 -2.0833  1.7385  1.4413
 1856TIP3    H229764   5.884   2.013  16.495  2.5003  1.3527  1.5793
 1857TIP3   OH229765   1.176   0.825  18.355 -0.5679  0.1268  0.5181
 1857TIP3    H129766   1.160   0.848  18.447 -0.6162 -1.6291  0.9823
 1857TIP3    H229767   1.143   0.899  18.306  0.5754  1.6859  1.9535
 1858TIP3   OH229768   7.100   5.164  18.110 -0.1688 -0.1701 -0.2713
 1858TIP3    H129769   7.114   5.201  18.023  0.0087 -1.1462 -0.6721
 1858TIP3    H229770   7.007   5.141  18.111  0.1536 -1.6212 -0.8172
 1859TIP3   OH229771   5.773   4.973  18.981  0.0724 -0.3905 -0.1557
 1859TIP3    H129772   5.801   5.051  19.030 -1.2858 -1.2717  2.1673
 1859TIP3    H229773   5.733   4.917  19.046  0.6083 -2.8976 -1.8488
 1860TIP3   OH229774   2.368   1.227  17.122  0.1588  0.1762 -0.3542
 1860TIP3    H129775   2.290   1.240  17.068  0.0562 -0.7770 -0.4633
 1860TIP3    H229776   2.429   1.295  17.093  0.5840 -1.0789 -2.6181
 1861TIP3   OH229777   5.100   1.193  19.141 -0.1180  0.1218  0.3991
 1861TIP3    H129778   5.117   1.201  19.235  0.1953  0.3113  0.3253
 1861TIP3    H229779   5.186   1.183  19.101  0.0602  3.1918 -0.1815
 1862TIP3   OH229780   5.955   2.124  19.665  0.1380  0.2343 -0.4834
 1862TIP3    H129781   6.012   2.051  19.641  1.2664  0.3874  1.5467
 1862TIP3    H229782   5.881   2.083  19.710  0.0369  0.2619 -0.6200
 1863TIP3   OH229783   5.972   7.078  17.228  0.2422 -0.5289  0.5625
 1863TIP3    H129784   5.984   7.166  17.264  1.1115 -0.3081 -0.2134
 1863TIP3    H229785   6.028   7.077  17.150 -2.0179 -0.7607 -1.1630
 1864TIP3   OH229786   7.579   5.230  18.137 -0.2373  0.0023 -0.1798
 1864TIP3    H129787   7.532   5.177  18.072  0.7756 -0.7408 -0.3376
 1864TIP3    H229788   7.518   5.237  18.210 -0.4633 -1.3118 -0.2030
 1865TIP3   OH229789   2.372   6.078  18.412  0.8051  0.2909 -0.4665
 1865TIP3    H129790   2.283   6.069  18.447  0.4559 -2.0622 -1.7723
 1865TIP3    H229791   2.397   6.169  18.433 -1.5538  0.7551  0.6670
 1866TIP3   OH229792   6.972   2.390  17.759 -0.0768  0.2800 -0.0309
 1866TIP3    H129793   6.902   2.454  17.763 -0.0175  0.2868  2.1313
 1866TIP3    H229794   7.053   2.441  17.764  0.1457  0.2486 -2.1791
 1867TIP3   OH229795   7.398   7.311  18.213 -0.1667  0.2989  0.6968
 1867TIP3    H129796   7.391   7.290  18.120 -0.8306  1.0622  0.5634
 1867TIP3    H229797   7.348   7.243  18.257  1.8643 -1.2854  0.6879
 1868TIP3   OH229798   4.287   5.270  18.663  0.1220 -0.1718 -0.0662
 1868TIP3    H129799   4.225   5.326  18.709 -0.9705 -0.5354 -1.0299
 1868TIP3    H229800   4.350   5.330  18.624 -1.5080  0.5231 -1.7930
 1869TIP3   OH229801   0.527   1.259  17.887  0.4358  0.4663  0.8904
 1869TIP3    H129802   0.502   1.324  17.953 -0.3919 -0.3918  1.4538
 1869TIP3    H229803   0.621   1.271  17.876  0.3149  1.7411  0.9888
 1870TIP3   OH229804   5.696   0.375  18.881  0.1941 -0.0645  0.6605
 1870TIP3    H129805   5.671   0.324  18.959 -1.5022 -0.4566 -0.0956
 1870TIP3    H229806   5.638   0.342  18.812 -0.5348  2.4303 -0.0181
 1871TIP3   OH229807   0.634   3.894  17.708  0.2157 -0.1444 -0.0530
 1871TIP3    H129808   0.698   3.840  17.662 -1.1848 -1.0681 -1.0120
 1871TIP3    H229809   0.549   3.863  17.676 -0.7309  0.9057  1.3034
 1872TIP3   OH229810   3.709   1.342  18.413  0.0008  0.0918 -0.4157
 1872TIP3    H129811   3.785   1.399  18.400 -0.4380  0.8699  0.3580
 1872TIP3    H229812   3.673   1.368  18.498 -0.7986 -0.6580 -0.5099
 1873TIP3   OH229813   3.057   1.841  18.178 -0.2604 -0.2116  0.9204
 1873TIP3    H129814   3.064   1.935  18.196  1.4247  0.1575 -1.2114
 1873TIP3    H229815   3.143   1.817  18.144 -1.1008 -2.2163  0.0701
 1874TIP3   OH229816   6.853   3.625  17.428  0.2379  0.3357 -0.1991
 1874TIP3    H129817   6.905   3.626  17.508 -1.2060 -0.4994  0.8174
 1874TIP3    H229818   6.914   3.602  17.359  1.2455 -0.4030  0.9121
 1875TIP3   OH229819   6.999   7.368  19.445  0.0240 -0.1992 -0.2807
 1875TIP3    H129820   6.929   7.376  19.511 -1.5366 -0.5424 -1.8201
 1875TIP3    H229821   7.043   7.453  19.447  0.0853 -0.2429  1.2740
 1876TIP3   OH229822   7.261   4.452  17.243  0.4598  0.3288 -0.4563
 1876TIP3    H129823   7.217   4.379  17.200  0.9905  0.3746 -1.0884
 1876TIP3    H229824   7.346   4.416  17.270  0.2295  0.3647  0.3517
 1877TIP3   OH229825   3.762   2.045  18.933  0.0096  0.1046  0.1445
 1877TIP3    H129826   3.758   2.044  18.838  0.1509 -1.7020  0.1358
 1877TIP3    H229827   3.823   2.116  18.954  1.5625 -0.7853 -1.1800
 1878TIP3   OH229828   6.564   2.235  18.495 -0.3759  0.6502 -0.4856
 1878TIP3    H129829   6.599   2.194  18.416 -0.1206 -1.1281  0.4861
 1878TIP3    H229830   6.601   2.184  18.567  0.0866  2.7506  0.8563
 1879TIP3   OH229831   2.380   2.894  18.633 -0.3692 -0.3574  0.4025
 1879TIP3    H129832   2.319   2.844  18.688  0.6751 -2.0238  0.1180
 1879TIP3    H229833   2.414   2.962  18.691  0.2967 -1.7467  1.7363
 1880TIP3   OH229834   0.664   3.187  17.931  0.2999  0.3371 -0.5270
 1880TIP3    H129835   0.752   3.224  17.930 -0.3897  2.0927 -0.8269
 1880TIP3    H229836   0.606   3.263  17.923 -1.3339 -0.5254  1.9174
 1881TIP3   OH229837   0.161   5.330  18.827  0.2425 -0.4137 -0.4866
 1881TIP3    H129838   0.200   5.244  18.812  0.2782 -0.2123 -1.5831
 1881TIP3    H229839   0.224   5.392  18.793 -0.1754  0.0074 -0.5057
 1882TIP3   OH229840   3.287   3.777  17.138  0.4164 -0.5198  0.2223
 1882TIP3    H129841   3.213   3.740  17.090  0.7677  1.0855 -1.7057
 1882TIP3    H229842   3.335   3.701  17.170 -0.2766 -1.6824 -1.3490
 1883TIP3   OH229843   3.807   7.664  17.073  0.1996 -0.2029 -0.1152
 1883TIP3    H129844   3.889   7.697  17.108  0.5110  0.9854 -1.8823
 1883TIP3    H229845   3.832   7.594  17.013 -0.1715 -0.4736  0.0348
 1884TIP3   OH229846   3.964   0.088  17.985  0.3979  0.6613 -0.1617
 1884TIP3    H129847   3.973   0.166  17.931  1.8084 -0.7256 -2.0493
 1884TIP3    H229848   3.871   0.066  17.979  0.2083  1.5119 -0.5582
 1885TIP3   OH229849   0.147   6.975  18.390  0.0737  0.3682  0.1452
 1885TIP3    H129850   0.181   7.036  18.456 -0.5925  0.5591  0.3160
 1885TIP3    H229851   0.197   6.894  18.405  0.4515  0.6420  0.3931
 1886TIP3   OH229852   4.542   4.976  17.077 -0.3705 -0.2207  0.1671
 1886TIP3    H129853   4.469   4.990  17.017 -0.3507  2.5937  0.6363
 1886TIP3    H229854   4.617   5.018  17.033  0.1683 -0.1566  1.1271
 1887TIP3   OH229855   5.144   2.112  17.912 -0.6994  0.7103 -0.1838
 1887TIP3    H129856   5.116   2.073  17.829  1.4130  3.2080 -2.2554
 1887TIP3    H229857   5.142   2.206  17.896  2.7458  1.2193  1.4721
 1888TIP3   OH229858   2.548   0.769  16.737  0.0144 -0.1340  0.6369
 1888TIP3    H129859   2.546   0.862  16.713  0.7516  0.1580  1.6220
 1888TIP3    H229860   2.599   0.767  16.818  0.2523 -1.4417  0.4681
 1889TIP3   OH229861   5.539   4.953  18.417  0.5058  0.4611 -0.1907
 1889TIP3    H129862   5.575   4.957  18.328  1.3740  0.7455  0.1619
 1889TIP3    H229863   5.614   4.930  18.472  0.1983  1.2825  0.6003
 1890TIP3   OH229864   1.244   6.227  17.396  0.2013  0.4208 -0.1719
 1890TIP3    H129865   1.180   6.183  17.451  1.8232  1.4556  2.7638
 1890TIP3    H229866   1.320   6.168  17.396  0.9228  1.3111  0.4220
 1891TIP3   OH229867   2.418   0.707  19.177 -0.0863 -0.6451 -0.1973
 1891TIP3    H129868   2.349   0.679  19.237 -0.0194  1.2237  0.8166
 1891TIP3    H229869   2.499   0.679  19.221 -0.0439  0.6075  0.5784
 1892TIP3   OH229870   1.057   3.157  17.255 -0.6152 -0.4585  0.2156
 1892TIP3    H129871   1.091   3.080  17.210  0.1854 -0.7434  1.2475
 1892TIP3    H229872   0.962   3.153  17.244 -0.5293 -1.2816 -0.2240
 1893TIP3   OH229873   0.754   0.243  19.151 -0.2064 -0.0236  0.7835
 1893TIP3    H129874   0.717   0.162  19.117  1.0120 -0.1521 -0.2901
 1893TIP3    H229875   0.846   0.224  19.165  0.6636  1.8071 -1.7354
 1894TIP3   OH229876   7.139   4.201  17.167 -0.1393  0.5126  0.0060
 1894TIP3    H129877   7.156   4.169  17.256 -0.0442 -2.8407 -1.0862
 1894TIP3    H229878   7.049   4.174  17.149  0.6974 -1.3394 -1.7906
 1895TIP3   OH229879   1.267   5.637  19.199 -0.3510  0.3323  0.7278
 1895TIP3    H129880   1.330   5.681  19.142 -0.3220 -1.0845 -0.3765
 1895TIP3    H229881   1.304   5.646  19.287  0.5550  0.9404  0.2995
 1896TIP3   OH229882   3.460   6.747  18.393 -0.1028 -0.1189  0.0977
 1896TIP3    H129883   3.475   6.817  18.457  0.8447 -1.4139  1.3318
 1896TIP3    H229884   3.515   6.772  18.318  0.1285  0.5128  0.4651
 1897TIP3   OH229885   6.600   1.655  18.396 -1.1435 -0.3023  0.4572
 1897TIP3    H129886   6.526   1.595  18.407 -1.0088 -0.2198  1.9442
 1897TIP3    H229887   6.677   1.599  18.402 -1.0412 -0.3634 -0.9438
 1898TIP3   OH229888   5.680   4.591  18.776  0.0545 -0.3452  0.5218
 1898TIP3    H129889   5.701   4.523  18.840 -1.4735 -1.1901  0.1726
 1898TIP3    H229890   5.587   4.611  18.792  0.0658  0.5266 -0.4107
 1899TIP3   OH229891   4.602   1.591  18.151 -0.1417 -0.1961 -0.5297
 1899TIP3    H129892   4.619   1.622  18.240 -1.9231  0.0241 -0.2465
 1899TIP3    H229893   4.550   1.660  18.111 -1.9936 -1.6506 -0.7214
 1900TIP3   OH229894   0.727   2.811  17.732 -0.7481 -0.3533 -0.0990
 1900TIP3    H129895   0.816   2.774  17.731  0.1074  1.3945 -3.1805
 1900TIP3    H229896   0.731   2.882  17.796  0.5205  0.4830 -1.0456
 1901TIP3   OH229897   2.605   0.511  17.167  0.5297  0.0346 -0.1157
 1901TIP3    H129898   2.553   0.431  17.180  1.1339 -0.2816  0.4068
 1901TIP3    H229899   2.637   0.533  17.254 -0.1996  1.2538 -0.1462
 1902TIP3   OH229900   3.981   3.413  16.987 -0.2680 -0.1799  0.7486
 1902TIP3    H129901   3.992   3.395  16.893  0.7536 -0.8341  0.9758
 1902TIP3    H229902   3.985   3.328  17.029  0.7142  0.2173  1.5045
 1903TIP3   OH229903   5.395   0.416  18.350 -0.5159  0.3713  0.0266
 1903TIP3    H129904   5.464   0.446  18.408 -1.4016 -0.5500  1.6182
 1903TIP3    H229905   5.369   0.494  18.301  1.2651  0.8413 -0.2473
 1904TIP3   OH229906   5.932   6.886  18.136 -0.3014  0.3768 -0.0553
 1904TIP3    H129907   5.976   6.952  18.082  2.5679 -0.5688  0.9739
 1904TIP3    H229908   5.841   6.917  18.141  0.8578  4.2095  0.3281
 1905TIP3   OH229909   2.371   1.128  17.952  0.2489 -0.1947 -0.0390
 1905TIP3    H129910   2.359   1.218  17.982 -0.0828 -0.0110 -0.6906
 1905TIP3    H229911   2.448   1.097  17.999 -0.3830 -0.0054  1.1561
 1906TIP3   OH229912   6.026   0.867  17.558 -0.3289 -0.3411 -0.0141
 1906TIP3    H129913   6.066   0.780  17.564 -2.6945 -1.4306  1.6062
 1906TIP3    H229914   6.010   0.879  17.464  1.1672 -1.0743 -0.3939
 1907TIP3   OH229915   1.962   6.602  18.156  0.0067 -0.3967 -0.2093
 1907TIP3    H129916   1.923   6.685  18.183 -2.1151 -0.7755 -1.8320
 1907TIP3    H229917   1.904   6.535  18.191  0.8284 -1.1505 -0.2433
 1908TIP3   OH229918   4.983   0.224  17.366 -0.9777  0.3993 -0.4198
 1908TIP3    H129919   4.995   0.156  17.300 -0.5495  0.2568 -0.1970
 1908TIP3    H229920   4.982   0.306  17.317  1.5886  0.5033 -0.4244
 1909TIP3   OH229921   0.537   1.575  17.410  0.4875  0.1965 -0.8221
 1909TIP3    H129922   0.573   1.561  17.498  1.8973  1.6028 -1.1420
 1909TIP3    H229923   0.447   1.541  17.416 -0.9390  3.7447  2.3820
 1910TIP3   OH229924   4.125   6.307  19.266 -0.1806  0.2871  0.1323
 1910TIP3    H129925   4.215   6.340  19.271 -0.2054  0.5540 -0.8189
 1910TIP3    H229926   4.133   6.225  19.217 -0.5585  0.8247 -0.8594
 1911TIP3   OH229927   6.452   5.885  19.250  0.8308  0.4000  0.2485
 1911TIP3    H129928   6.399   5.805  19.253 -0.9488  1.5304  0.5582
 1911TIP3    H229929   6.481   5.891  19.159  0.1999 -0.1234  0.0025
 1912TIP3   OH229930   5.001   6.365  16.919 -0.0042 -0.6562  0.1257
 1912TIP3    H129931   4.978   6.442  16.868  0.8259 -0.0286  0.6805
 1912TIP3    H229932   4.944   6.296  16.884  0.1798 -0.1293 -1.2911
 1913TIP3   OH229933   2.111   6.272  18.179 -0.4593  0.3454  0.0366
 1913TIP3    H129934   2.183   6.217  18.212  0.0949  0.8204 -0.3602
 1913TIP3    H229935   2.103   6.248  18.086 -3.0066 -2.0811  0.7489
 1914TIP3   OH229936   4.953   0.133  18.611  0.1806  0.4359 -0.1127
 1914TIP3    H129937   4.892   0.206  18.610  1.2158  1.3398 -1.1254
 1914TIP3    H229938   4.910   0.064  18.560  0.3120  1.3746 -1.5688
 1915TIP3   OH229939   7.304   2.389  18.742  0.3067 -0.2389  0.0609
 1915TIP3    H129940   7.273   2.428  18.660 -3.1243 -0.3557  1.1523
 1915TIP3    H229941   7.362   2.455  18.780 -1.3277  1.6640 -0.5562
 1916TIP3   OH229942   0.678   0.208  17.546 -0.1206 -0.3464  0.2095
 1916TIP3    H129943   0.735   0.152  17.598 -1.6374 -1.5965  0.5958
 1916TIP3    H229944   0.726   0.291  17.538  1.3601 -1.0775  1.1914
 1917TIP3   OH229945   3.200   5.361  19.208 -0.4072 -0.1953 -0.3928
 1917TIP3    H129946   3.171   5.301  19.140 -0.7067 -0.0545 -0.3894
 1917TIP3    H229947   3.262   5.310  19.260 -1.8350 -1.0068  0.5474
 1918TIP3   OH229948   2.920   7.496  18.254 -0.5209 -0.1085 -0.6085
 1918TIP3    H129949   3.010   7.478  18.279 -0.7648 -1.2723 -0.5376
 1918TIP3    H229950   2.919   7.490  18.158 -0.2952  1.0653 -0.7056
 1919TIP3   OH229951   0.146   0.795  18.446  0.2193  0.0279 -0.1089
 1919TIP3    H129952   0.225   0.749  18.417  1.5532  1.9826  0.2392
 1919TIP3    H229953   0.095   0.807  18.366  0.9810  0.0286 -0.6094
 1920TIP3   OH229954   1.555   3.929  17.727  0.1216  0.1552  0.5802
 1920TIP3    H129955   1.629   3.906  17.783 -0.7750 -1.6108  1.1233
 1920TIP3    H229956   1.483   3.947  17.788 -0.6435 -0.9650  0.0548
 1921TIP3   OH229957   3.427   6.943  16.896  0.0067  0.1199  0.4408
 1921TIP3    H129958   3.355   7.005  16.901 -0.1534 -0.1200  1.2033
 1921TIP3    H229959   3.385   6.859  16.875  0.0489 -0.0514  1.0480
 1922TIP3   OH229960   6.064   2.632  18.949 -0.4591  0.0633  0.3489
 1922TIP3    H129961   6.013   2.688  18.891 -1.2517 -0.1912  0.7904
 1922TIP3    H229962   6.141   2.607  18.897 -0.8224  0.3806 -0.3509
 1923TIP3   OH229963   4.904   1.206  17.815 -0.0260 -0.5162 -0.2340
 1923TIP3    H129964   4.812   1.193  17.837 -0.0167  1.4972  1.2531
 1923TIP3    H229965   4.930   1.284  17.863  2.2585 -0.5406 -1.2716
 1924TIP3   OH229966   7.515   6.468  18.181  0.2463  0.7347  0.3528
 1924TIP3    H129967   7.521   6.373  18.190  3.8950  0.7292 -0.5036
 1924TIP3    H229968   7.427   6.483  18.145  0.5697 -2.6234 -2.4187
 1925TIP3   OH229969   0.066   7.143  18.673 -0.0771 -0.7604 -0.0843
 1925TIP3    H129970   0.137   7.185  18.623 -1.4204 -0.1884 -1.5934
 1925TIP3    H229971   0.060   7.194  18.754 -1.9217  2.4179 -2.0047
 1926TIP3   OH229972   5.671   0.815  18.564 -0.4331  0.0203 -0.4844
 1926TIP3    H129973   5.672   0.857  18.478 -1.0825 -1.0923 -1.0514
 1926TIP3    H229974   5.591   0.847  18.605  0.2837  1.1936  0.0617
 1927TIP3   OH229975   6.040   4.665  17.385  0.0402  0.1717 -0.3355
 1927TIP3    H129976   5.947   4.650  17.369  0.2359  0.0273 -1.4074
 1927TIP3    H229977   6.080   4.663  17.298  1.0319  0.3234  0.1050
 1928TIP3   OH229978   5.592   6.777  17.964 -0.1765 -0.0058  0.3383
 1928TIP3    H129979   5.527   6.708  17.953  2.3282 -2.2883 -1.4850
 1928TIP3    H229980   5.612   6.777  18.058 -0.8965 -1.0958  0.4994
 1929TIP3   OH229981   7.569   1.888  17.774 -0.5582  1.1251  0.1541
 1929TIP3    H129982   7.652   1.901  17.818  1.7758  2.0552 -3.9696
 1929TIP3    H229983   7.586   1.912  17.683 -3.9175 -3.6229 -2.1423
 1930TIP3   OH229984   2.682   6.004  18.308 -0.0166 -0.2973 -0.0138
 1930TIP3    H129985   2.631   6.052  18.374  1.1169  2.0070 -0.7211
 1930TIP3    H229986   2.622   5.992  18.235 -0.5518 -0.7101  0.4812
 1931TIP3   OH229987   6.328   3.209  18.252 -0.7040 -0.6230 -0.2856
 1931TIP3    H129988   6.272   3.252  18.186 -0.4443 -1.4998 -1.0914
 1931TIP3    H229989   6.356   3.128  18.211 -0.3862 -1.1094  0.8516
 1932TIP3   OH229990   4.293   5.173  19.111  0.2964 -0.2631 -0.1140
 1932TIP3    H129991   4.334   5.087  19.125 -0.2718 -0.4151  0.6818
 1932TIP3    H229992   4.208   5.153  19.074  0.8338  0.0453 -1.5618
 1933TIP3   OH229993   5.662   2.155  19.391  0.6378 -0.3436 -0.6652
 1933TIP3    H129994   5.683   2.219  19.459  0.2851 -2.5596  1.6802
 1933TIP3    H229995   5.568   2.166  19.376  0.0950 -1.6755  1.3668
 1934TIP3   OH229996   5.421   5.818  18.823 -0.0440 -0.3192  0.3804
 1934TIP3    H129997   5.464   5.862  18.750  0.8753  0.9145  1.6246
 1934TIP3    H229998   5.334   5.858  18.828  0.3031  0.4093  0.6593
 1935TIP3   OH229999   3.253   5.655  17.235  0.8846  0.0066  0.0585
 1935TIP3    H130000   3.253   5.722  17.303  2.2408  0.6848 -0.5620
 1935TIP3    H230001   3.306   5.583  17.273 -1.3897 -1.2194  1.1238
 1936TIP3   OH230002   3.659   2.782  16.766  0.0188 -0.2910  0.5339
 1936TIP3    H130003   3.625   2.713  16.710  1.0828 -0.2297 -0.2083
 1936TIP3    H230004   3.585   2.842  16.777 -0.5967 -0.9908  0.3131
 1937TIP3   OH230005   6.900   5.477  17.416 -0.4210  0.0988 -0.2816
 1937TIP3    H130006   6.830   5.413  17.410  0.0263 -0.6493  1.6015
 1937TIP3    H230007   6.858   5.555  17.452 -0.5563  0.1214 -0.4928
 1938TIP3   OH230008   1.362   0.580  17.294 -0.5136 -0.1735 -0.3831
 1938TIP3    H130009   1.450   0.576  17.333 -0.9254 -0.3104  0.5509
 1938TIP3    H230010   1.306   0.613  17.364 -1.3694 -0.9294 -0.6912
 1939TIP3   OH230011   3.883   3.262  19.250 -0.1211 -0.2804  0.4182
 1939TIP3    H130012   3.956   3.209  19.279 -0.0767 -1.0558 -1.0307
 1939TIP3    H230013   3.901   3.350  19.285  0.9536 -0.6994  0.9423
 1940TIP3   OH230014   0.206   3.107  18.492 -0.4262 -0.2390  0.0627
 1940TIP3    H130015   0.244   3.076  18.574 -1.1080 -0.4227  0.3141
 1940TIP3    H230016   0.157   3.186  18.517 -2.5469 -1.5362  0.2803
 1941TIP3   OH230017   2.769   2.438  17.383  0.2119 -0.5993  0.2081
 1941TIP3    H130018   2.727   2.467  17.303 -0.3187 -1.1797  0.2677
 1941TIP3    H230019   2.787   2.518  17.432 -0.4872 -0.3245  0.0131
 1942TIP3   OH230020   3.294   2.912  18.977  0.4179  0.3663  0.2708
 1942TIP3    H130021   3.384   2.945  18.969 -0.5982  3.3354 -0.2321
 1942TIP3    H230022   3.297   2.852  19.051  2.6416  1.0307  0.8136
 1943TIP3   OH230023   1.828   2.307  18.263 -0.1332  0.6409  0.0287
 1943TIP3    H130024   1.770   2.233  18.243  2.0476 -1.0344 -0.4636
 1943TIP3    H230025   1.867   2.331  18.180 -0.7399  2.3674  0.1988
 1944TIP3   OH230026   5.219   2.123  18.737  0.1553  0.2457 -0.8322
 1944TIP3    H130027   5.182   2.050  18.787 -1.9870  0.6544 -1.6897
 1944TIP3    H230028   5.299   2.088  18.699  0.1908 -1.0382  0.3340
 1945TIP3   OH230029   1.783   3.903  17.883 -0.3017  0.0778  0.2204
 1945TIP3    H130030   1.804   3.848  17.958  0.7033  0.1037 -0.0247
 1945TIP3    H230031   1.853   3.885  17.820 -0.8658  0.4091 -0.5225
 1946TIP3   OH230032   3.597   7.437  17.224 -0.0852  0.2242  0.3702
 1946TIP3    H130033   3.547   7.365  17.262  0.0496  0.3794  0.8359
 1946TIP3    H230034   3.643   7.397  17.150  0.7168 -0.3833  1.1776
 1947TIP3   OH230035   5.047   1.826  18.070 -0.4155  0.3703 -0.0439
 1947TIP3    H130036   5.066   1.741  18.110 -0.2896  0.7607  0.7493
 1947TIP3    H230037   5.126   1.878  18.086 -0.5499  0.6888 -0.3895
 1948TIP3   OH230038   2.690   1.008  19.127  0.3670  0.6655 -0.2358
 1948TIP3    H130039   2.750   1.082  19.118  0.9811  0.0515 -1.4663
 1948TIP3    H230040   2.727   0.956  19.198  0.3777  1.1199  0.0954
 1949TIP3   OH230041   7.168   4.179  17.440  0.2072 -0.0802  0.2645
 1949TIP3    H130042   7.258   4.199  17.467  0.7119 -1.2392 -0.4726
 1949TIP3    H230043   7.116   4.194  17.519  1.1592 -0.1635  0.9352
 1950TIP3   OH230044   2.183   7.036  18.205 -0.0717  0.2365 -0.0268
 1950TIP3    H130045   2.199   6.991  18.287 -0.0097  0.6997  0.2205
 1950TIP3    H230046   2.111   7.096  18.223  0.3005  0.7337 -0.1557
 1951TIP3   OH230047   0.208   3.778  18.082 -0.0483 -0.1371 -0.6774
 1951TIP3    H130048   0.229   3.685  18.068 -0.3180 -0.0904 -1.4094
 1951TIP3    H230049   0.126   3.791  18.035 -0.4712  0.2702  0.1517
 1952TIP3   OH230050   0.250   0.909  19.004 -0.0190 -0.2232 -0.1873
 1952TIP3    H130051   0.291   0.923  18.919  1.2160 -0.7517  0.3037
 1952TIP3    H230052   0.182   0.844  18.987 -0.3272  0.2694 -0.9100
 1953TIP3   OH230053   3.742   7.432  18.442  0.0540  0.4717  0.2973
 1953TIP3    H130054   3.652   7.454  18.467  0.1751  0.0167  1.1693
 1953TIP3    H230055   3.794   7.506  18.475 -0.1629  1.5800 -1.6856
 1954TIP3   OH230056   1.497   7.193  18.529  0.4159 -0.3789  0.0928
 1954TIP3    H130057   1.417   7.168  18.576  1.0820  0.7885  1.9650
 1954TIP3    H230058   1.469   7.258  18.465 -0.3549 -1.2031 -0.4314
 1955TIP3   OH230059   3.754   6.141  19.136  0.2117 -0.5570 -0.2665
 1955TIP3    H130060   3.817   6.190  19.189 -0.1522 -0.2885 -0.0780
 1955TIP3    H230061   3.791   6.053  19.131 -0.9791 -1.3281  2.6207
 1956TIP3   OH230062   4.875   5.681  18.150 -0.2723 -1.2737  0.4741
 1956TIP3    H130063   4.967   5.669  18.176  0.0012 -1.8016 -0.6899
 1956TIP3    H230064   4.831   5.708  18.231  1.6754  3.3663  0.2651
 1957TIP3   OH230065   7.000   0.515  17.196 -0.4885 -0.2350 -0.5520
 1957TIP3    H130066   7.036   0.461  17.266 -0.3385  0.1691 -0.3125
 1957TIP3    H230067   7.027   0.604  17.218  0.1929 -0.1854 -1.5114
 1958TIP3   OH230068   5.022   5.306  18.685  0.4802 -0.4268  0.0001
 1958TIP3    H130069   4.971   5.278  18.762  0.3944 -2.6900 -0.7987
 1958TIP3    H230070   5.057   5.392  18.710 -4.1416  1.6433  0.3932
 1959TIP3   OH230071   2.971   1.340  17.374  0.3325 -0.0346 -0.2169
 1959TIP3    H130072   2.973   1.418  17.319  1.2297  0.1779  0.0979
 1959TIP3    H230073   3.042   1.285  17.340 -0.6073 -0.9438 -0.7538
 1960TIP3   OH230074   1.900   4.891  18.990 -0.1046 -0.5068 -0.0897
 1960TIP3    H130075   1.943   4.977  18.987  0.7619 -0.9305 -2.2727
 1960TIP3    H230076   1.961   4.835  19.037 -0.2524 -0.1330  0.5514
 1961TIP3   OH230077   1.592   6.932  18.404  0.0889 -0.2565  0.0600
 1961TIP3    H130078   1.589   6.843  18.439 -0.3913  0.9725  3.5442
 1961TIP3    H230079   1.506   6.945  18.363  0.2639 -1.4202 -0.7294
 1962TIP3   OH230080   2.009   1.337  17.779 -0.1918  0.2681  0.4226
 1962TIP3    H130081   2.069   1.265  17.758 -0.7799  0.0957 -0.7448
 1962TIP3    H230082   1.938   1.329  17.715 -2.0776 -0.2408  2.4131
 1963TIP3   OH230083   6.997   4.770  18.497 -0.1924 -0.3962  0.0535
 1963TIP3    H130084   6.944   4.711  18.444 -1.3223  0.3873  0.2660
 1963TIP3    H230085   7.087   4.758  18.464 -0.6303 -1.0850 -0.9436
 1964TIP3   OH230086   1.037   0.725  16.823  0.4792 -0.2490 -0.2275
 1964TIP3    H130087   0.944   0.748  16.831  0.9718  1.7207  0.2324
 1964TIP3    H230088   1.037   0.640  16.779 -1.5240 -0.0968 -0.5945
 1965TIP3   OH230089   2.231   4.118  17.924  0.2729 -0.2690  0.1101
 1965TIP3    H130090   2.232   4.141  18.017  0.0710  1.2428 -0.2290
 1965TIP3    H230091   2.205   4.026  17.922  0.1293 -0.2813  1.5382
 1966TIP3   OH230092   3.873   6.338  17.018 -0.2418  0.1066 -0.0607
 1966TIP3    H130093   3.912   6.282  17.085  1.2393 -0.3800 -1.2839
 1966TIP3    H230094   3.791   6.295  16.995 -1.5417  1.0694  2.4529
 1967TIP3   OH230095   7.105   2.411  16.524  0.3823  0.2500  0.3583
 1967TIP3    H130096   7.031   2.455  16.482  0.1455 -1.0518 -0.6779
 1967TIP3    H230097   7.125   2.464  16.600 -0.1507  1.9015 -0.5991
 1968TIP3   OH230098   0.799   2.736  18.630  0.4409 -0.4186  0.2538
 1968TIP3    H130099   0.745   2.694  18.563  0.0794  0.2985  0.0862
 1968TIP3    H230100   0.889   2.718  18.602  0.3010 -1.2740  0.3148
 1969TIP3   OH230101   5.338   4.157  16.521 -0.2979 -0.2131 -0.1715
 1969TIP3    H130102   5.406   4.090  16.511  0.0477  0.2146 -0.7547
 1969TIP3    H230103   5.376   4.220  16.583 -0.9701 -0.9813  1.0668
 1970TIP3   OH230104   6.795   5.677  17.851  0.3756  0.0440  0.1898
 1970TIP3    H130105   6.842   5.598  17.824  0.6696  0.2343  0.1418
 1970TIP3    H230106   6.713   5.674  17.803  0.8534  0.3354 -0.6525
 1971TIP3   OH230107   0.827   5.945  17.776 -0.0339 -0.8462  0.2117
 1971TIP3    H130108   0.839   5.933  17.682 -0.6471 -2.0905  0.2751
 1971TIP3    H230109   0.793   6.034  17.784 -0.1462 -0.7846 -0.7617
 1972TIP3   OH230110   7.283   2.713  19.300  0.1408 -0.5191 -0.5182
 1972TIP3    H130111   7.301   2.619  19.301 -0.6239 -0.6744 -0.2198
 1972TIP3    H230112   7.345   2.750  19.363 -1.3119 -1.1992  1.4183
 1973TIP3   OH230113   4.151   0.633  17.521  0.7315 -0.6972  0.4361
 1973TIP3    H130114   4.111   0.718  17.537 -1.3103 -1.2314 -1.3732
 1973TIP3    H230115   4.245   0.648  17.532  0.3737  1.6217  0.7890
 1974TIP3   OH230116   5.824   2.567  17.983  0.2872 -0.6558 -0.1186
 1974TIP3    H130117   5.831   2.647  18.034 -1.9563 -0.7144  0.3842
 1974TIP3    H230118   5.867   2.587  17.900  1.0447  0.5561  0.5392
 1975TIP3   OH230119   4.963   4.752  17.820 -0.2747 -0.0098  0.0472
 1975TIP3    H130120   5.015   4.784  17.893 -0.6818 -0.3958  0.5142
 1975TIP3    H230121   4.876   4.738  17.856 -0.1873 -1.3578 -0.1952
 1976TIP3   OH230122   3.109   4.943  18.850  0.2492  0.1827 -0.1170
 1976TIP3    H130123   3.103   4.850  18.830  0.7178  0.2098 -0.3979
 1976TIP3    H230124   3.199   4.967  18.828 -0.1147  0.8991 -0.8900
 1977TIP3   OH230125   7.573   5.569  18.388  0.2164  0.5939 -0.5265
 1977TIP3    H130126   7.599   5.619  18.466 -1.4718 -1.5476  1.5388
 1977TIP3    H230127   7.653   5.524  18.361  0.7658  1.1351  0.1301
 1978TIP3   OH230128   5.382   0.604  16.738  0.0928  0.2094  0.1847
 1978TIP3    H130129   5.338   0.635  16.817  2.7719 -0.8373  2.2620
 1978TIP3    H230130   5.420   0.683  16.700  1.1140  0.4294  1.5707
 1979TIP3   OH230131   3.801   5.302  17.269  0.1584 -0.1039 -0.1363
 1979TIP3    H130132   3.763   5.325  17.185  0.8647  1.5507 -0.0569
 1979TIP3    H230133   3.805   5.206  17.269 -3.0780 -0.3470 -0.4993
 1980TIP3   OH230134   1.070   6.138  17.906  0.0470 -0.1771  0.6254
 1980TIP3    H130135   1.152   6.165  17.948  0.7014 -0.0470 -0.7050
 1980TIP3    H230136   1.032   6.075  17.968 -0.4651  2.0897  2.7942
 1981TIP3   OH230137   0.219   5.197  16.397  0.0220 -0.1563 -0.0161
 1981TIP3    H130138   0.314   5.183  16.400  0.0097 -0.2632 -0.0928
 1981TIP3    H230139   0.209   5.289  16.373  0.1117 -0.2754 -0.5417
 1982TIP3   OH230140   0.081   2.955  17.505  0.4969  0.0709  0.1148
 1982TIP3    H130141   0.136   2.918  17.573  0.5331  0.6369  0.4031
 1982TIP3    H230142   0.013   2.890  17.490  0.2819  0.0998  0.9495
 1983TIP3   OH230143   4.533   5.067  17.592 -0.0608 -0.1637 -0.7005
 1983TIP3    H130144   4.598   5.019  17.540  0.1725 -0.6515  0.0375
 1983TIP3    H230145   4.452   5.056  17.543  0.2080 -0.3800 -1.1131
 1984TIP3   OH230146   6.253   4.246  17.134 -0.3531 -0.5673  0.1201
 1984TIP3    H130147   6.230   4.334  17.103  0.1919 -0.0651  1.1007
 1984TIP3    H230148   6.201   4.187  17.079  1.0149  0.2340 -2.1956
 1985TIP3   OH230149   3.150   5.611  17.516 -0.5910 -0.1404  0.4654
 1985TIP3    H130150   3.214   5.678  17.539 -1.6564  1.1945 -0.3176
 1985TIP3    H230151   3.169   5.538  17.575  0.1646  1.1174  1.8311
 1986TIP3   OH230152   3.318   3.521  17.458 -0.8828 -0.2241 -0.4242
 1986TIP3    H130153   3.328   3.543  17.551 -0.4057  1.0700 -0.7597
 1986TIP3    H230154   3.405   3.532  17.421 -1.2737  0.3474 -1.2279
 1987TIP3   OH230155   6.558   4.806  18.959 -0.7778  0.6234 -0.5222
 1987TIP3    H130156   6.588   4.896  18.970  0.4847  0.4242 -1.9483
 1987TIP3    H230157   6.561   4.792  18.864  0.6267 -1.4117 -0.2426
 1988TIP3   OH230158   6.695   5.678  19.204  0.0267  0.3794  0.4418
 1988TIP3    H130159   6.657   5.674  19.291 -0.2852  0.6449  0.3212
 1988TIP3    H230160   6.624   5.708  19.148 -0.0856 -0.8081 -0.0901
 1989TIP3   OH230161   1.924   0.570  16.770 -0.6398 -0.3673  0.6859
 1989TIP3    H130162   1.841   0.599  16.734  0.3636  1.5584 -0.2327
 1989TIP3    H230163   1.935   0.623  16.849 -0.7291 -1.3407  1.3699
 1990TIP3   OH230164   2.570   7.039  18.173 -0.6986 -0.3256 -0.3286
 1990TIP3    H130165   2.610   6.967  18.223 -0.8809  0.1366  0.4907
 1990TIP3    H230166   2.510   6.995  18.113 -0.8348 -0.8672  0.1898
 1991TIP3   OH230167   3.587   7.414  18.197  0.4871  0.1705  0.1983
 1991TIP3    H130168   3.541   7.496  18.217 -0.9329 -0.6564  0.4825
 1991TIP3    H230169   3.677   7.429  18.226 -0.1514  1.0328  1.8747
 1992TIP3   OH230170   1.076   1.065  18.320  0.0782 -0.4676  0.2685
 1992TIP3    H130171   0.982   1.069  18.300  0.3129 -1.2942 -1.1331
 1992TIP3    H230172   1.119   1.085  18.237  1.1535  0.1126  0.9493
 1993TIP3   OH230173   6.527   6.385  19.423 -0.2645 -0.0137  0.0596
 1993TIP3    H130174   6.457   6.447  19.443 -0.6707 -0.0505 -1.1371
 1993TIP3    H230175   6.481   6.304  19.400  0.2322 -0.4859  0.6889
 1994TIP3   OH230176   4.992   4.310  17.109 -0.2668  0.0825  0.1141
 1994TIP3    H130177   5.053   4.377  17.142  2.8194 -0.6935 -3.3676
 1994TIP3    H230178   4.948   4.353  17.035  0.5281 -1.1240 -1.1039
 1995TIP3   OH230179   3.238   2.859  18.103 -0.6096 -0.4020  0.0097
 1995TIP3    H130180   3.243   2.849  18.198 -0.3879 -1.0438 -0.0653
 1995TIP3    H230181   3.237   2.770  18.069 -0.4179 -0.1775 -0.6034
 1996TIP3   OH230182   6.270   4.885  19.437 -0.6498 -0.1812  0.1080
 1996TIP3    H130183   6.296   4.974  19.461  0.1707 -0.5481  0.6068
 1996TIP3    H230184   6.195   4.897  19.379 -1.2158  0.8060  1.0050
 1997TIP3   OH230185   0.890   0.082  17.640 -0.2461 -0.3874 -0.1737
 1997TIP3    H130186   0.979   0.099  17.612  0.3624 -1.0383  1.2490
 1997TIP3    H230187   0.899   0.021  17.714 -1.9518 -1.7907 -1.0345
 1998TIP3   OH230188   2.704   0.983  17.993 -0.0218 -0.0347 -0.7958
 1998TIP3    H130189   2.794   0.952  17.999  0.9575  2.6181 -0.1958
 1998TIP3    H230190   2.691   1.000  17.899  0.4639  0.4155 -0.7921
 1999TIP3   OH230191   2.630   3.505  18.578  0.2857  0.0393  0.6645
 1999TIP3    H130192   2.551   3.453  18.591 -0.8625  0.6125 -2.8305
 1999TIP3    H230193   2.603   3.595  18.600 -0.1018  0.2312 -0.5058
 2000TIP3   OH230194   4.396   2.635  18.173  0.6862  0.3903  0.1679
 2000TIP3    H130195   4.386   2.570  18.242 -2.0709  1.8090  1.2467
 2000TIP3    H230196   4.307   2.652  18.143  1.3734  3.1421 -0.5766
 2001TIP3   OH230197   7.313   1.547  17.481 -0.4739  0.1279  0.1983
 2001TIP3    H130198   7.287   1.604  17.409  0.4313 -1.4854 -1.4944
 2001TIP3    H230199   7.274   1.587  17.559 -0.4375  2.6360 -0.9848
 2002TIP3   OH230200   4.363   0.540  17.820  0.6548 -0.0204 -0.1390
 2002TIP3    H130201   4.300   0.502  17.882 -1.0348  2.5238 -0.1357
 2002TIP3    H230202   4.368   0.476  17.749 -0.2135 -1.3078  0.9026
 2003TIP3   OH230203   2.583   1.392  17.068  0.1974  0.1418  0.4690
 2003TIP3    H130204   2.676   1.383  17.046  0.5421  0.9282  1.5224
 2003TIP3    H230205   2.568   1.486  17.068  0.1425  0.2066  3.1282
 2004TIP3   OH230206   0.620   6.560  17.514  0.6111 -0.1591 -0.4876
 2004TIP3    H130207   0.675   6.545  17.592 -0.7885 -1.2320  0.3332
 2004TIP3    H230208   0.632   6.653  17.495  2.0334 -0.1655  0.1768
 2005TIP3   OH230209   2.241   5.692  18.821  0.6813 -0.3280 -0.0602
 2005TIP3    H130210   2.292   5.612  18.835  1.2538 -0.1490 -1.0150
 2005TIP3    H230211   2.165   5.663  18.771  0.0574 -0.5170  0.9610
 2006TIP3   OH230212   7.150   6.247  17.382 -0.2919 -0.0373  0.1927
 2006TIP3    H130213   7.063   6.256  17.420 -0.2366 -1.9942  0.8736
 2006TIP3    H230214   7.205   6.216  17.454 -0.2525 -4.2775 -1.3749
 2007TIP3   OH230215   1.228   3.541  18.622 -0.0922  0.3792 -0.4187
 2007TIP3    H130216   1.192   3.581  18.542 -1.4188  0.2620  0.0945
 2007TIP3    H230217   1.215   3.608  18.689  1.1457  0.5282 -0.3088
 2008TIP3   OH230218   4.981   7.627  18.109 -0.0271 -0.6628  0.0846
 2008TIP3    H130219   5.042   7.620  18.182 -0.4864 -1.8055  0.3997
 2008TIP3    H230220   4.896   7.604  18.148 -0.4926 -0.0127 -0.5371
 2009TIP3   OH230221   3.663   5.758  18.259  0.1529  0.4943  0.6921
 2009TIP3    H130222   3.573   5.791  18.261  0.2401  0.7015  1.3322
 2009TIP3    H230223   3.664   5.687  18.323 -0.0952 -0.9716 -0.8420
 2010TIP3   OH230224   2.103   7.001  18.714 -0.0950 -0.0494 -0.0687
 2010TIP3    H130225   2.198   6.996  18.718  0.0001  1.3981  0.0399
 2010TIP3    H230226   2.074   6.968  18.799  0.2972 -0.6847 -0.1789
 2011TIP3   OH230227   2.522   2.108  17.987  0.0675 -0.3255 -0.3601
 2011TIP3    H130228   2.541   2.149  18.071 -0.4928  0.9207 -0.8283
 2011TIP3    H230229   2.556   2.169  17.922 -0.7052 -0.6476 -1.0748
 2012TIP3   OH230230   3.871   4.652  18.428  0.3897 -0.1002 -0.0435
 2012TIP3    H130231   3.861   4.656  18.333 -0.6463  0.7458  0.0843
 2012TIP3    H230232   3.887   4.742  18.455 -0.6865 -0.1048  0.7048
 2013TIP3   OH230233   2.208   6.233  19.151  0.0628  0.2366 -0.1077
 2013TIP3    H130234   2.209   6.285  19.071  0.9143  0.5785  0.1131
 2013TIP3    H230235   2.269   6.278  19.209  0.7222 -0.9427  0.1319
 2014TIP3   OH230236   2.929   2.114  19.309  0.0523  0.1446 -0.7594
 2014TIP3    H130237   2.924   2.028  19.351  0.7773 -0.3984 -1.7258
 2014TIP3    H230238   2.839   2.135  19.287 -0.9230  2.0307  3.9775
 2015TIP3   OH230239   5.303   4.480  19.460  0.1840 -0.1436 -0.1372
 2015TIP3    H130240   5.371   4.526  19.412  0.7767  1.0359  1.7449
 2015TIP3    H230241   5.249   4.549  19.499 -1.1958 -1.0618 -0.3377
 2016TIP3   OH230242   3.874   2.318  18.414 -0.1804  0.3943 -0.2553
 2016TIP3    H130243   3.862   2.244  18.354 -0.0065 -0.2621  0.4920
 2016TIP3    H230244   3.899   2.391  18.358  1.5450 -0.5911 -0.8531
 2017TIP3   OH230245   2.432   0.814  18.902  0.5291 -0.2445  0.1766
 2017TIP3    H130246   2.412   0.774  18.987 -1.7775  0.4615  0.0248
 2017TIP3    H230247   2.484   0.748  18.857  0.3705 -1.3274  1.5012
 2018TIP3   OH230248   6.237   6.863  18.511 -0.0152 -0.2523  0.0539
 2018TIP3    H130249   6.264   6.824  18.594  0.6774 -0.2197 -0.1489
 2018TIP3    H230250   6.143   6.846  18.506  0.3719 -2.6021 -0.3917
 2019TIP3   OH230251   0.128   4.235  18.161  0.2266 -0.4602 -0.2858
 2019TIP3    H130252   0.221   4.209  18.159  0.1139 -1.2692  1.8556
 2019TIP3    H230253   0.085   4.170  18.106  0.5566 -2.1696  1.3708
 2020TIP3   OH230254   4.165   3.636  17.647  0.3128  0.2578 -0.3833
 2020TIP3    H130255   4.168   3.614  17.554  2.0659 -0.5644 -0.1769
 2020TIP3    H230256   4.249   3.678  17.664 -0.1030  0.6540  0.7792
 2021TIP3   OH230257   3.488   1.873  18.271  0.2645 -0.3810 -0.1308
 2021TIP3    H130258   3.422   1.808  18.298 -0.7970  0.3533 -0.8788
 2021TIP3    H230259   3.529   1.836  18.194 -1.6239  0.5691 -1.6845
 2022TIP3   OH230260   0.597   7.515  17.952  0.5083 -0.0066  0.7077
 2022TIP3    H130261   0.587   7.598  17.997  1.2538  0.0920  0.7062
 2022TIP3    H230262   0.642   7.459  18.015  3.1906  0.6714 -0.4888
 2023TIP3   OH230263   0.847   4.718  17.434  0.5280 -0.6716 -0.0511
 2023TIP3    H130264   0.767   4.699  17.384 -0.8637  1.3779  1.2503
 2023TIP3    H230265   0.835   4.807  17.466  2.5171 -0.9801  1.7665
 2024TIP3   OH230266   1.877   5.672  18.602  0.3273 -0.1252 -0.2378
 2024TIP3    H130267   1.861   5.630  18.517  0.7986  0.4294 -0.6089
 2024TIP3    H230268   1.924   5.606  18.653 -0.9599 -0.8808  0.0095
 2025TIP3   OH230269   1.676   6.599  16.513 -0.1102  0.1565  0.2752
 2025TIP3    H130270   1.666   6.668  16.447 -1.1121 -0.8325 -0.6597
 2025TIP3    H230271   1.587   6.584  16.545  0.1323 -0.5088  0.6571
 2026TIP3   OH230272   0.286   5.294  17.460  0.1200  0.1257  0.4522
 2026TIP3    H130273   0.366   5.293  17.512 -0.1333 -2.5939  0.8943
 2026TIP3    H230274   0.227   5.234  17.505 -0.6460 -1.1933 -2.1246
 2027TIP3   OH230275   0.266   4.449  18.526 -0.1473  0.2649  0.0141
 2027TIP3    H130276   0.238   4.377  18.584 -1.0900  0.0607 -0.6756
 2027TIP3    H230277   0.187   4.473  18.478  0.3842  1.1465 -0.4299
 2028TIP3   OH230278   3.004   2.384  16.985  0.0209  0.0187 -0.2471
 2028TIP3    H130279   2.943   2.449  17.020 -0.8153  0.6030 -2.6061
 2028TIP3    H230280   3.043   2.344  17.063 -1.2795  1.5876  1.3113
 2029TIP3   OH230281   5.090   3.720  18.286  0.2775  0.4517 -0.2260
 2029TIP3    H130282   5.054   3.743  18.201  0.9898 -0.0886 -0.6854
 2029TIP3    H230283   5.138   3.797  18.314 -0.6090  0.9202  0.0671
 2030TIP3   OH230284   3.211   4.118  18.454 -0.0013 -0.3064 -0.4823
 2030TIP3    H130285   3.199   4.114  18.549  0.4985  2.9471 -0.1558
 2030TIP3    H230286   3.129   4.085  18.417 -1.6010  1.5594  1.1967
 2031TIP3   OH230287   6.907   6.320  18.015  0.0672 -0.1218 -0.0768
 2031TIP3    H130288   6.817   6.340  17.990  0.4173  1.6638 -0.0138
 2031TIP3    H230289   6.942   6.268  17.942 -0.5504  0.4587 -0.7953
 2032TIP3   OH230290   0.083   1.399  19.320 -0.5076  0.4018 -0.2787
 2032TIP3    H130291  -0.013   1.400  19.321 -0.5461 -1.0897 -0.6595
 2032TIP3    H230292   0.106   1.376  19.230  0.2247  0.7003 -0.1816
 2033TIP3   OH230293   6.931   2.055  18.911  0.0551  0.3605 -0.1358
 2033TIP3    H130294   6.841   2.048  18.880  0.5796 -0.2269 -1.6058
 2033TIP3    H230295   6.982   2.073  18.832  1.3359 -0.1990  0.5336
 2034TIP3   OH230296   3.129   6.829  18.417 -0.0342 -0.0861  0.2599
 2034TIP3    H130297   3.208   6.883  18.427 -0.9699  1.1976  0.9976
 2034TIP3    H230298   3.138   6.789  18.330  0.3549  1.8222 -0.6230
 2035TIP3   OH230299   3.115   4.256  19.345 -0.1929  0.9574  0.4581
 2035TIP3    H130300   3.051   4.195  19.308 -0.7366  1.1018  1.1290
 2035TIP3    H230301   3.067   4.339  19.353  0.7559  1.7081 -1.1490
 2036TIP3   OH230302   2.515   2.796  17.785  0.1798 -0.0033  0.1204
 2036TIP3    H130303   2.570   2.734  17.834 -1.8303 -2.7840 -0.8745
 2036TIP3    H230304   2.511   2.760  17.696 -0.1783  2.2298 -0.8271
 2037TIP3   OH230305   0.822   2.217  19.155 -0.3876 -0.3711  0.0623
 2037TIP3    H130306   0.895   2.198  19.096  1.0109  0.0203  1.5921
 2037TIP3    H230307   0.774   2.134  19.160 -0.7483 -0.3265 -1.8399
 2038TIP3   OH230308   0.435   0.244  18.573  0.0260 -0.3398  0.1851
 2038TIP3    H130309   0.435   0.196  18.655  0.6523 -0.4474  0.1222
 2038TIP3    H230310   0.374   0.316  18.587 -0.4985 -0.8256  0.4628
 2039TIP3   OH230311   4.153   6.330  17.088 -0.1067  0.2579  0.9650
 2039TIP3    H130312   4.109   6.331  17.173  0.2377  1.4040  1.1511
 2039TIP3    H230313   4.187   6.419  17.078 -1.9509  0.7791 -1.3491
 2040TIP3   OH230314   5.543   3.923  19.580  0.0168 -0.2243 -0.2288
 2040TIP3    H130315   5.463   3.920  19.634 -0.1831  0.2961 -0.4966
 2040TIP3    H230316   5.613   3.900  19.640 -0.2216  0.2322  0.2294
 2041TIP3   OH230317   4.715   7.335  18.984  0.7374 -0.6846  0.4278
 2041TIP3    H130318   4.787   7.295  19.033  0.9505 -0.5193  0.2507
 2041TIP3    H230319   4.716   7.427  19.011 -0.5900 -1.0352  1.8563
 2042TIP3   OH230320   2.862   0.583  18.764  0.6267 -0.4045 -0.1776
 2042TIP3    H130321   2.871   0.510  18.702 -0.1461 -2.2092  1.7044
 2042TIP3    H230322   2.944   0.631  18.757  0.6999 -0.7582 -2.3085
 2043TIP3   OH230323   5.179   4.006  18.953 -0.1070  0.6722  0.2175
 2043TIP3    H130324   5.223   3.986  18.871  0.6223  0.0890  0.7347
 2043TIP3    H230325   5.244   3.987  19.021 -0.5229  1.6095  0.9153
 2044TIP3   OH230326   1.107   1.709  18.103  0.0389 -0.3732 -0.1497
 2044TIP3    H130327   1.175   1.683  18.165  0.2113  0.8914  0.2215
 2044TIP3    H230328   1.097   1.803  18.116 -0.8778 -0.3137 -1.1067
 2045TIP3   OH230329   3.126   3.081  18.844  0.5929  0.0988 -0.3672
 2045TIP3    H130330   3.189   3.031  18.896 -1.2283 -0.9175  0.9583
 2045TIP3    H230331   3.093   3.148  18.904 -0.3624 -0.0665 -0.6882
 2046TIP3   OH230332   6.161   2.604  18.627 -0.3223  0.5220 -0.1319
 2046TIP3    H130333   6.219   2.672  18.660 -0.0626 -0.3025  1.1713
 2046TIP3    H230334   6.220   2.534  18.597 -0.6197  0.2423 -0.0662
 2047TIP3   OH230335   2.796   7.663  18.856  0.5826  0.2417  0.1198
 2047TIP3    H130336   2.861   7.716  18.810  0.1090  0.4164 -0.3431
 2047TIP3    H230337   2.722   7.722  18.872  1.0988  0.4725  1.9624
 2048TIP3   OH230338   2.617   5.162  17.409  0.1996  0.1795  1.1521
 2048TIP3    H130339   2.532   5.191  17.375 -0.0035  1.3915  2.6337
 2048TIP3    H230340   2.654   5.239  17.452  3.0135  0.2916 -1.1877
 2049TIP3   OH230341   7.424   2.583  16.448  0.1804  0.2452  0.5439
 2049TIP3    H130342   7.395   2.621  16.531 -1.5346  1.1718 -0.4312
 2049TIP3    H230343   7.501   2.531  16.472  0.7525  1.8002  2.4547
 2050TIP3   OH230344   7.515   4.601  17.792  0.1661  0.3449  0.1369
 2050TIP3    H130345   7.454   4.604  17.718  0.2922 -1.9046 -0.1211
 2050TIP3    H230346   7.485   4.526  17.844  0.6670  1.2939  1.8588
 2051TIP3   OH230347   1.238   6.637  19.002 -0.0029  0.1652  0.5072
 2051TIP3    H130348   1.199   6.642  18.915  0.6529  0.2272  0.2091
 2051TIP3    H230349   1.254   6.728  19.026  0.8552  0.1062  0.2044
 2052TIP3   OH230350   2.612   1.956  18.334 -0.2046 -0.3285  0.2699
 2052TIP3    H130351   2.688   1.911  18.296 -1.2681 -2.2066  0.2232
 2052TIP3    H230352   2.602   1.918  18.421 -0.9536  0.0555  0.3632
 2053TIP3   OH230353   4.013   0.867  17.538 -0.1779  0.0627  0.2915
 2053TIP3    H130354   3.954   0.894  17.468 -0.1380  0.1046  0.2731
 2053TIP3    H230355   3.974   0.903  17.618  0.2311  0.7449  0.1889
 2054TIP3   OH230356   5.034   4.155  17.329 -0.1134 -0.2455  0.0777
 2054TIP3    H130357   5.005   4.205  17.252  0.5584 -0.5649 -0.3932
 2054TIP3    H230358   4.973   4.081  17.333  1.2573 -1.5499 -1.5974
 2055TIP3   OH230359   0.775   0.540  17.984 -0.8308  0.2753 -0.3488
 2055TIP3    H130360   0.721   0.609  18.022  0.5545  1.5540 -0.5911
 2055TIP3    H230361   0.758   0.547  17.890 -0.4411  0.5336 -0.4044
 2056TIP3   OH230362   5.470   0.199  17.632  0.2628 -0.0813 -0.6026
 2056TIP3    H130363   5.463   0.169  17.723  1.5374 -0.6386 -0.6708
 2056TIP3    H230364   5.380   0.200  17.600 -0.1356 -0.5108  0.4640
 2057TIP3   OH230365   6.494   0.667  19.113  0.1210  0.3669  0.6126
 2057TIP3    H130366   6.507   0.587  19.163  0.7127  0.7175  1.0267
 2057TIP3    H230367   6.400   0.686  19.120 -0.0633 -0.4151  0.3072
 2058TIP3   OH230368   3.532   0.391  16.967  0.6765  0.3164 -0.1102
 2058TIP3    H130369   3.626   0.394  16.984  0.6054 -1.5254  0.8282
 2058TIP3    H230370   3.520   0.315  16.910 -0.2213  0.6319 -0.3551
 2059TIP3   OH230371   1.643   4.861  18.978  0.0082 -0.2558 -0.4256
 2059TIP3    H130372   1.618   4.954  18.986  1.1609  0.0754 -0.4842
 2059TIP3    H230373   1.738   4.863  18.969  0.0690 -1.4748 -0.1536
 2060TIP3   OH230374   3.178   2.309  17.812  0.0015 -0.4881  0.7136
 2060TIP3    H130375   3.157   2.225  17.771  0.6839 -0.0903 -0.5134
 2060TIP3    H230376   3.094   2.355  17.818  0.0554  0.0961 -1.8272
 2061TIP3   OH230377   5.544   1.112  17.852  0.5013  0.7576  0.3508
 2061TIP3    H130378   5.516   1.200  17.828  1.8921  1.0734 -0.2417
 2061TIP3    H230379   5.601   1.125  17.928 -0.9770  0.1209  1.6286
 2062TIP3   OH230380   7.073   2.372  18.890 -0.5946  0.3762 -0.1055
 2062TIP3    H130381   7.027   2.327  18.818  0.6492 -2.7689  0.8806
 2062TIP3    H230382   7.161   2.388  18.855 -0.4550  0.2611  0.1898
 2063TIP3   OH230383   6.213   3.732  19.512 -0.0560 -0.1997 -0.1302
 2063TIP3    H130384   6.270   3.661  19.540 -0.5369 -0.1955  0.8785
 2063TIP3    H230385   6.229   3.802  19.575  0.5922  0.7052 -1.2454
 2064TIP3   OH230386   0.556   1.281  18.465 -0.2793 -0.3248  0.5890
 2064TIP3    H130387   0.578   1.227  18.389  2.1331  0.5562  0.5701
 2064TIP3    H230388   0.463   1.262  18.482 -1.3270  0.3501 -3.3208
 2065TIP3   OH230389   2.218   2.232  19.062  0.6649 -0.0788 -0.3348
 2065TIP3    H130390   2.285   2.278  19.010 -0.8661  0.4253 -1.9702
 2065TIP3    H230391   2.137   2.246  19.014 -0.5909 -0.9496  1.4180
 2066TIP3   OH230392   2.085   5.482  18.728  0.1844 -0.1991 -0.1442
 2066TIP3    H130393   2.159   5.441  18.684  0.9479  0.1739  0.7507
 2066TIP3    H230394   2.072   5.429  18.807  0.2552  0.4011  0.2846
 2067TIP3   OH230395   3.424   4.208  17.749  0.0126  0.3490  0.2057
 2067TIP3    H130396   3.501   4.253  17.714 -0.5071  0.7270 -0.4854
 2067TIP3    H230397   3.459   4.141  17.808  0.9047 -0.0849 -0.8016
 2068TIP3   OH230398   2.321   0.296  16.538 -0.4949  0.1751  0.1526
 2068TIP3    H130399   2.327   0.251  16.454 -1.2539  0.3800 -0.0172
 2068TIP3    H230400   2.412   0.307  16.566 -0.2640 -0.5257 -0.3017
 2069TIP3   OH230401   1.547   7.335  18.844  0.1854  0.6237  0.5177
 2069TIP3    H130402   1.582   7.399  18.907 -2.0117  2.1688  0.2922
 2069TIP3    H230403   1.552   7.381  18.760 -0.4175  0.0861  0.1825
 2070TIP3   OH230404   1.724   6.542  16.981 -0.0746 -0.6385  0.1867
 2070TIP3    H130405   1.768   6.605  16.924 -0.2536 -0.9756 -0.3334
 2070TIP3    H230406   1.766   6.553  17.066  0.6440 -0.5747 -0.1715
 2071TIP3   OH230407   7.676   5.682  19.234  0.3558  0.5383 -0.5365
 2071TIP3    H130408   7.607   5.736  19.196  0.2788 -0.2013 -1.5047
 2071TIP3    H230409   7.691   5.719  19.321 -1.7388  0.3185 -0.0191
 2072TIP3   OH230410   0.967   0.861  17.644  0.3567  0.4501  0.1045
 2072TIP3    H130411   0.880   0.866  17.603  0.1011 -1.3174  0.3491
 2072TIP3    H230412   0.995   0.952  17.652 -0.2566  0.9368 -2.5326
 2073TIP3   OH230413   2.823   5.609  18.399  0.4788  0.3708 -0.3614
 2073TIP3    H130414   2.795   5.668  18.469  0.6709 -1.1580  1.0681
 2073TIP3    H230415   2.892   5.656  18.354  0.0287  1.5810  0.1719
 2074TIP3   OH230416   1.444   2.198  18.895 -0.1138  0.3723 -0.4500
 2074TIP3    H130417   1.457   2.119  18.948 -1.4601 -0.1638 -0.8729
 2074TIP3    H230418   1.394   2.257  18.952  0.1237  0.5730 -0.4459
 2075TIP3   OH230419   3.138   6.741  17.056  0.1055 -0.2482  0.0035
 2075TIP3    H130420   3.063   6.762  17.000 -0.4388  0.5112  0.9937
 2075TIP3    H230421   3.208   6.717  16.995 -0.9775 -1.1363 -0.9387
 2076TIP3   OH230422   2.281   6.579  18.096  0.1829 -0.2473 -0.1378
 2076TIP3    H130423   2.190   6.551  18.101 -0.6456  2.0902 -0.8444
 2076TIP3    H230424   2.285   6.635  18.018  1.7500  1.2122  0.9076
 2077TIP3   OH230425   2.781   6.694  19.097 -0.0456 -0.4423  0.1017
 2077TIP3    H130426   2.749   6.784  19.106  0.3101 -0.0346 -2.1251
 2077TIP3    H230427   2.702   6.640  19.098 -0.3532  0.0076  0.2225
 2078TIP3   OH230428   4.526   2.168  17.950  0.4500 -0.5625  0.4279
 2078TIP3    H130429   4.523   2.101  17.882 -1.9598 -0.1587  0.0235
 2078TIP3    H230430   4.515   2.251  17.904 -0.0590 -0.1905  1.1868
 2079TIP3   OH230431   1.297   7.247  17.384 -0.6934  0.3025 -0.2562
 2079TIP3    H130432   1.218   7.278  17.339 -0.1951  0.3411 -1.1260
 2079TIP3    H230433   1.265   7.183  17.447 -1.4804  0.7572 -0.1776
 2080TIP3   OH230434   5.104   7.388  17.421  0.0895 -0.6112  0.1574
 2080TIP3    H130435   5.069   7.300  17.435 -0.9541 -0.1496  0.5978
 2080TIP3    H230436   5.028   7.440  17.396  0.7498  0.1058 -0.4140
 2081TIP3   OH230437   5.208   3.645  17.835 -0.1448  0.4609  0.7050
 2081TIP3    H130438   5.283   3.705  17.843  1.0001 -0.4233 -2.1309
 2081TIP3    H230439   5.242   3.561  17.865 -0.4540  0.3312  0.6889
 2082TIP3   OH230440   5.583   1.759  17.843 -0.0780  0.0875 -0.3488
 2082TIP3    H130441   5.509   1.820  17.852 -1.2507 -0.9433 -2.3154
 2082TIP3    H230442   5.557   1.700  17.773  2.7095 -0.2472 -1.2165
 2083TIP3   OH230443   6.853   1.297  18.915  0.7316 -0.4874  0.2700
 2083TIP3    H130444   6.859   1.252  18.831 -1.5153  1.8372 -1.2768
 2083TIP3    H230445   6.936   1.344  18.923  2.0507 -2.7575  0.7051
 2084TIP3   OH230446   0.866   2.467  18.047 -0.3036 -0.4284 -0.2578
 2084TIP3    H130447   0.936   2.481  17.983 -0.8929  4.3874 -0.2432
 2084TIP3    H230448   0.790   2.444  17.993  0.2455 -1.1286 -0.7569
 2085TIP3   OH230449   5.339   3.754  17.547 -0.1315  0.1825  0.1274
 2085TIP3    H130450   5.308   3.821  17.608  0.0267  0.5096 -0.1433
 2085TIP3    H230451   5.290   3.770  17.466 -1.5333 -1.2696  0.6409
 2086TIP3   OH230452   0.893   2.311  16.950  0.0708  0.5504  0.0289
 2086TIP3    H130453   0.984   2.302  16.977  0.3184  0.9350 -0.6580
 2086TIP3    H230454   0.871   2.228  16.908  0.6805  1.1023 -1.4423
 2087TIP3   OH230455   3.982   6.962  17.304 -0.5951  0.4038 -0.5686
 2087TIP3    H130456   3.935   6.879  17.294 -1.2168  0.7476 -0.5285
 2087TIP3    H230457   4.065   6.949  17.258 -0.1663 -0.6551  0.4519
 2088TIP3   OH230458   1.143   3.863  17.984  0.4121  0.7363  0.0007
 2088TIP3    H130459   1.070   3.915  18.017 -0.3379 -1.3764  1.9402
 2088TIP3    H230460   1.109   3.822  17.904 -0.1028  0.7398  0.2163
 2089TIP3   OH230461   7.236   1.227  19.202 -0.1377 -0.3517  0.1507
 2089TIP3    H130462   7.196   1.245  19.117  0.2415  0.9245  0.2272
 2089TIP3    H230463   7.330   1.235  19.187 -0.1228  2.1654  1.1403
 2090TIP3   OH230464   6.326   1.202  18.520 -0.2308 -0.3249  0.1235
 2090TIP3    H130465   6.421   1.195  18.533 -0.2890 -1.3564  0.0231
 2090TIP3    H230466   6.289   1.191  18.608 -0.2207  1.3141  0.3703
 2091TIP3   OH230467   5.973   2.808  18.748  0.1762 -0.5654  0.4488
 2091TIP3    H130468   5.976   2.903  18.739  0.1525 -0.7114 -1.4053
 2091TIP3    H230469   6.026   2.775  18.675  0.9314 -1.9746  1.5751
 2092TIP3   OH230470   1.151   5.423  17.986  0.1834 -0.0162  0.3682
 2092TIP3    H130471   1.059   5.416  17.961  0.1910 -1.3919  0.6502
 2092TIP3    H230472   1.163   5.355  18.052  1.5950 -0.4261 -0.2746
 2093TIP3   OH230473   1.886   6.166  18.347 -0.0820 -0.5065  0.2848
 2093TIP3    H130474   1.973   6.178  18.309 -0.7456  0.0298 -1.1617
 2093TIP3    H230475   1.883   6.074  18.373  0.8451 -0.5719  0.1683
 2094TIP3   OH230476   3.469   0.723  18.555  0.6774 -0.0240 -0.8483
 2094TIP3    H130477   3.398   0.787  18.569  1.3878  0.6543 -0.2536
 2094TIP3    H230478   3.483   0.724  18.460 -0.8235 -0.9704 -1.1233
 2095TIP3   OH230479   1.816   6.679  16.758  0.1650 -0.1604 -0.2137
 2095TIP3    H130480   1.768   6.762  16.764 -0.6485 -0.7418  3.3716
 2095TIP3    H230481   1.767   6.628  16.693 -0.5155  1.3978 -0.9723
 2096TIP3   OH230482   5.561   0.501  17.870 -0.5838  0.1021  0.0560
 2096TIP3    H130483   5.612   0.577  17.899 -0.7318 -0.2777  1.3983
 2096TIP3    H230484   5.614   0.460  17.802  0.7936 -0.1013  1.2014
 2097TIP3   OH230485   5.585   5.272  18.374  0.6480 -0.1984  0.2230
 2097TIP3    H130486   5.518   5.277  18.442 -2.0001  0.3967 -2.2360
 2097TIP3    H230487   5.546   5.218  18.305  2.0653  1.3609 -1.9374
 2098TIP3   OH230488   1.310   1.282  18.993 -0.5233  0.2176 -0.4597
 2098TIP3    H130489   1.400   1.266  18.964 -0.1322 -0.6312  1.1150
 2098TIP3    H230490   1.315   1.364  19.042 -1.1443  1.5423 -2.4875
 2099TIP3   OH230491   5.814   3.001  17.804 -0.5181  0.3726 -0.2926
 2099TIP3    H130492   5.854   3.055  17.736  0.5638 -0.1018 -0.0499
 2099TIP3    H230493   5.792   3.063  17.874 -1.7357  0.8765 -1.0996
 2100TIP3   OH230494   4.102   3.294  17.652  0.2777  0.0475 -0.2193
 2100TIP3    H130495   4.194   3.317  17.664  0.4738 -0.1417 -1.2081
 2100TIP3    H230496   4.056   3.339  17.722  1.0874  0.4280  0.0774
 2101TIP3   OH230497   2.433   0.004  19.128  0.2010  0.7498 -0.3953
 2101TIP3    H130498   2.363  -0.034  19.075  0.6024  0.8466 -0.9936
 2101TIP3    H230499   2.439   0.095  19.099  1.9328  0.2371 -1.7825
 2102TIP3   OH230500   0.597   5.563  18.047  0.1814 -0.1149 -0.5204
 2102TIP3    H130501   0.585   5.551  18.141  1.8198  0.9476 -0.1427
 2102TIP3    H230502   0.600   5.658  18.035  0.7177 -0.2455 -1.5371
 2103TIP3   OH230503   2.299   3.945  18.293  0.8997  0.5652 -0.6970
 2103TIP3    H130504   2.280   4.035  18.265  0.9921  0.7083 -0.3106
 2103TIP3    H230505   2.289   3.892  18.214 -1.4197  0.5728 -0.4632
 2104TIP3   OH230506   5.994   5.700  18.184 -0.0182  0.6227 -0.2601
 2104TIP3    H130507   6.014   5.719  18.092  0.9311  0.7884 -0.0319
 2104TIP3    H230508   6.074   5.659  18.218 -0.2777  0.7682  0.5415
 2105TIP3   OH230509   2.659   2.982  18.491 -0.6430  0.2174 -0.1896
 2105TIP3    H130510   2.582   2.962  18.437 -0.8057  1.8965 -0.6501
 2105TIP3    H230511   2.723   3.018  18.430  0.7133 -1.5418  0.1197
 2106TIP3   OH230512   0.473   1.882  16.852 -0.7573  0.5886  0.1419
 2106TIP3    H130513   0.420   1.897  16.774 -0.9477 -0.1495  0.1240
 2106TIP3    H230514   0.550   1.937  16.839 -1.8217  2.2445  0.4938
 2107TIP3   OH230515   3.652   4.999  18.737  0.4298 -0.0598  0.4760
 2107TIP3    H130516   3.696   5.068  18.686  1.1459  0.3778  1.6566
 2107TIP3    H230517   3.714   4.926  18.736 -0.1585 -0.5659 -0.4370
 2108TIP3   OH230518   3.199   2.805  16.945  0.5561  0.2320 -0.2812
 2108TIP3    H130519   3.265   2.860  16.902 -0.0897  0.9393 -0.4080
 2108TIP3    H230520   3.240   2.777  17.026  1.1028  0.4662 -0.4687
 2109TIP3   OH230521   4.689   2.209  18.182  0.5948 -0.1539 -0.5929
 2109TIP3    H130522   4.638   2.227  18.103  0.0489 -1.8353 -0.6660
 2109TIP3    H230523   4.704   2.114  18.180  0.6844 -0.2188  1.2351
 2110TIP3   OH230524   4.951   6.555  16.711  0.0401  0.1504  1.0166
 2110TIP3    H130525   4.868   6.529  16.670  0.6972  1.3609 -1.2896
 2110TIP3    H230526   4.944   6.650  16.722  1.0223  0.2407  0.9807
 2111TIP3   OH230527   2.321   0.965  19.232 -0.3087 -0.3663  0.7068
 2111TIP3    H130528   2.267   0.916  19.294 -0.4156 -0.7407  0.3259
 2111TIP3    H230529   2.371   0.898  19.186  0.3652 -0.0292  0.9438
 2112TIP3   OH230530   6.976   5.712  16.456 -0.6015 -0.0954 -0.7132
 2112TIP3    H130531   6.994   5.619  16.439  1.8707  0.1259  0.2685
 2112TIP3    H230532   6.886   5.724  16.428 -0.9757 -2.7759 -0.9545
 2113TIP3   OH230533   2.943   7.437  17.969 -0.0255  0.5823 -0.0432
 2113TIP3    H130534   2.904   7.471  17.889 -0.1599 -0.4164 -0.4168
 2113TIP3    H230535   2.917   7.345  17.972  0.8689  0.3305  0.5860
 2114TIP3   OH230536   3.921   0.335  17.776  0.3922 -0.0899 -0.4753
 2114TIP3    H130537   3.916   0.299  17.687 -2.0751 -0.2735 -0.3302
 2114TIP3    H230538   3.931   0.429  17.763 -1.2645  0.0471 -1.0287
 2115TIP3   OH230539   2.186   4.027  17.466  0.2479 -0.0634 -0.6918
 2115TIP3    H130540   2.199   4.093  17.398 -2.3613  0.2376 -1.0047
 2115TIP3    H230541   2.228   4.064  17.543  0.7183  0.9437 -1.4038
 2116TIP3   OH230542   3.150   0.120  17.048  0.4995  0.1637 -0.1146
 2116TIP3    H130543   3.164   0.215  17.049  1.3008  0.0626 -0.6096
 2116TIP3    H230544   3.143   0.097  16.955  0.1749 -0.2465  0.0052
 2117TIP3   OH230545   1.899   1.144  17.552 -0.3673  0.4141 -0.2864
 2117TIP3    H130546   1.939   1.224  17.517 -2.5533  1.6250 -0.2150
 2117TIP3    H230547   1.837   1.117  17.485 -1.6165  0.3743  0.8524
 2118TIP3   OH230548   7.234   0.025  17.370 -0.4327  0.8015 -0.2763
 2118TIP3    H130549   7.164   0.076  17.409 -1.2692 -1.4846  1.4172
 2118TIP3    H230550   7.280  -0.014  17.444  0.9642  0.1211 -1.4476
 2119TIP3   OH230551   7.474   5.091  16.760 -0.4300  0.1261 -0.3111
 2119TIP3    H130552   7.448   5.004  16.790 -0.1289 -0.3556 -1.4139
 2119TIP3    H230553   7.424   5.104  16.679 -1.6249  1.6160  0.6142
 2120TIP3   OH230554   7.467   6.103  17.892 -0.3017 -0.4301 -0.4541
 2120TIP3    H130555   7.442   6.195  17.899 -0.6244 -0.5120 -0.5087
 2120TIP3    H230556   7.552   6.098  17.935 -0.6789 -0.2733  0.3285
 2121TIP3   OH230557   5.844   7.292  19.189  0.1299 -0.4757 -0.2722
 2121TIP3    H130558   5.871   7.243  19.111 -1.6005  2.4894 -2.9737
 2121TIP3    H230559   5.866   7.383  19.169 -2.1370  0.6757  1.8979
 2122TIP3   OH230560   0.806   6.544  19.072  0.1867  0.1976  0.0326
 2122TIP3    H130561   0.749   6.580  19.140 -0.2419 -3.2190  1.7364
 2122TIP3    H230562   0.890   6.588  19.086 -0.7606  1.8899  0.6284
 2123TIP3   OH230563   5.583   1.944  16.581  0.0055  0.2705 -0.3221
 2123TIP3    H130564   5.520   2.007  16.544 -1.1694  1.1105  2.8076
 2123TIP3    H230565   5.669   1.978  16.556 -0.6519  2.3915  0.1366
 2124TIP3   OH230566   7.674   3.288  19.321  0.2678  0.6802  0.0153
 2124TIP3    H130567   7.616   3.344  19.269  0.6974  0.5316 -0.6491
 2124TIP3    H230568   7.642   3.199  19.307  0.4687  0.6260 -0.1141
 2125TIP3   OH230569   1.992   0.630  19.317 -0.3575  0.1937  1.1821
 2125TIP3    H130570   1.898   0.649  19.311 -0.4520 -0.6076 -0.2367
 2125TIP3    H230571   1.999   0.536  19.298  0.6225 -0.0379  2.5452
 2126TIP3   OH230572   6.513   3.265  19.656 -0.5737  0.5426  0.0418
 2126TIP3    H130573   6.492   3.186  19.705 -0.0852 -0.3115 -1.0902
 2126TIP3    H230574   6.452   3.266  19.583  0.4845  0.2994 -0.8816
 2127TIP3   OH230575   1.321   4.728  16.979 -0.2668 -0.1087 -0.7088
 2127TIP3    H130576   1.391   4.729  17.045 -0.6298 -0.8337 -0.2912
 2127TIP3    H230577   1.295   4.819  16.971 -0.3748 -0.0277  0.3460
 2128TIP3   OH230578   6.470   2.803  18.366 -1.2557 -0.4678 -0.4603
 2128TIP3    H130579   6.527   2.742  18.318 -0.7221  1.1479 -2.0082
 2128TIP3    H230580   6.452   2.873  18.303 -0.4808  1.8248  1.6847
 2129TIP3   OH230581   2.800   5.995  17.955  0.3612  0.2799  0.0297
 2129TIP3    H130582   2.710   6.026  17.961 -0.1039 -0.3505 -2.5584
 2129TIP3    H230583   2.822   6.001  17.862  2.9943  0.3453  0.5594
 2130TIP3   OH230584   2.836   5.926  16.701  0.3900 -0.5492  0.3031
 2130TIP3    H130585   2.831   5.994  16.769 -0.5801 -0.1158 -0.1986
 2130TIP3    H230586   2.879   5.853  16.746 -0.9251 -0.5578  1.6393
 2131TIP3   OH230587   6.305   6.962  18.079  0.6217 -0.2595 -0.6944
 2131TIP3    H130588   6.219   7.004  18.067  0.4241 -1.3112 -3.8579
 2131TIP3    H230589   6.333   6.938  17.991  2.1405 -3.9874  0.5813
 2132TIP3   OH230590   4.444   3.439  18.427 -0.1174  0.0437  0.2747
 2132TIP3    H130591   4.497   3.373  18.474  1.9116  2.6721  2.0029
 2132TIP3    H230592   4.504   3.476  18.363 -0.7433  1.2092  0.3479
 2133TIP3   OH230593   0.799   6.010  16.586 -0.0757  0.2030  0.6525
 2133TIP3    H130594   0.786   6.021  16.680 -1.4362  2.2113  0.2785
 2133TIP3    H230595   0.784   6.097  16.549 -1.0706 -0.8425 -1.5835
 2134TIP3   OH230596   7.235   0.517  18.849  0.4059  0.0569 -0.5376
 2134TIP3    H130597   7.214   0.511  18.756  1.6651 -1.3980 -0.7667
 2134TIP3    H230598   7.327   0.491  18.854  0.8975  1.8479  0.9112
 2135TIP3   OH230599   6.684   2.895  16.562 -0.1104  0.6499 -0.2190
 2135TIP3    H130600   6.597   2.859  16.541  0.7855 -1.6823 -0.2143
 2135TIP3    H230601   6.719   2.924  16.478 -0.4637  0.5969 -0.3874
 2136TIP3   OH230602   1.076   7.271  18.449 -0.0170  0.3749  0.1050
 2136TIP3    H130603   1.006   7.207  18.445  2.0532 -2.0679 -0.0468
 2136TIP3    H230604   1.032   7.356  18.452 -2.8972 -0.9902 -0.4466
 2137TIP3   OH230605   0.246   3.370  19.132  0.6371 -0.8448  0.8683
 2137TIP3    H130606   0.197   3.373  19.050 -0.1776 -0.0054  1.3676
 2137TIP3    H230607   0.200   3.304  19.185 -0.4033  0.4070  1.5860
 2138TIP3   OH230608   1.443   0.032  18.274 -0.0450 -0.2307 -0.2212
 2138TIP3    H130609   1.456   0.086  18.196 -0.1792 -0.5745 -0.4842
 2138TIP3    H230610   1.496   0.074  18.341 -0.2081  0.2756 -0.3993
 2139TIP3   OH230611   2.782   3.557  18.103 -0.6743 -0.1273  0.1054
 2139TIP3    H130612   2.702   3.514  18.134 -0.0591 -1.9263 -0.6954
 2139TIP3    H230613   2.849   3.530  18.166  0.0231 -1.6352 -1.2044
 2140TIP3   OH230614   5.525   1.898  19.516  0.4849  0.6103  0.2269
 2140TIP3    H130615   5.448   1.883  19.462 -0.4691  1.7479  1.2239
 2140TIP3    H230616   5.598   1.900  19.454 -0.4581  0.8699 -0.8970
 2141TIP3   OH230617   7.240   3.297  17.908 -0.5899 -0.3820 -0.3332
 2141TIP3    H130618   7.189   3.302  17.827 -0.5852 -0.1316 -0.3196
 2141TIP3    H230619   7.228   3.382  17.950 -0.8225 -0.6124  0.0703
 2142TIP3   OH230620   4.124   0.889  18.719 -0.2790  0.0849  0.5945
 2142TIP3    H130621   4.103   0.796  18.707  0.2793 -0.0847  0.9013
 2142TIP3    H230622   4.068   0.916  18.792 -2.8905  0.8484 -1.5129
 2143TIP3   OH230623   7.552   3.973  19.209 -0.6237 -0.1957  0.1055
 2143TIP3    H130624   7.487   3.926  19.261  0.0812 -1.2816  0.0607
 2143TIP3    H230625   7.527   3.957  19.118 -0.0946 -0.9700  0.0774
 2144TIP3   OH230626   5.867   5.649  18.764 -0.3235  0.4470  0.4127
 2144TIP3    H130627   5.778   5.614  18.766  0.2840 -1.4580 -1.5187
 2144TIP3    H230628   5.891   5.648  18.671  1.3745  1.8359  0.7916
 2145TIP3   OH230629   5.184   7.510  17.971 -0.3879 -0.6532 -0.5098
 2145TIP3    H130630   5.186   7.605  17.959  1.1729 -0.3143  1.7788
 2145TIP3    H230631   5.120   7.495  18.040  0.6341 -1.0425  0.3877
 2146TIP3   OH230632   4.723   6.249  16.836 -0.0271 -0.3636 -0.2728
 2146TIP3    H130633   4.740   6.293  16.753 -1.0843  0.7161  0.0532
 2146TIP3    H230634   4.639   6.284  16.865  2.4006  3.1744  3.6623
 2147TIP3   OH230635   7.112   2.889  18.019  0.5710 -0.0228 -0.2619
 2147TIP3    H130636   7.180   2.872  18.083  0.7649  0.1928 -0.4099
 2147TIP3    H230637   7.045   2.937  18.067  0.6679  0.0465 -0.1971
 2148TIP3   OH230638   6.835   3.429  19.247 -0.6023 -0.3245  0.2153
 2148TIP3    H130639   6.790   3.514  19.249 -1.3930 -0.6572 -1.7172
 2148TIP3    H230640   6.764   3.365  19.241  0.0189 -0.8584 -3.2084
 2149TIP3   OH230641   4.944   3.014  17.382 -0.3041  0.0329  0.2946
 2149TIP3    H130642   4.976   3.029  17.471 -1.0034 -0.1566  0.5909
 2149TIP3    H230643   5.020   2.980  17.334 -0.5588 -2.5332  1.5392
 2150TIP3   OH230644   7.187   4.540  19.202 -0.3754  0.2022 -0.0487
 2150TIP3    H130645   7.121   4.541  19.132 -0.2831  0.5733 -0.1299
 2150TIP3    H230646   7.210   4.447  19.210 -3.2370 -0.4858  2.2072
 2151TIP3   OH230647   5.795   3.601  18.962 -0.6663 -0.8018 -0.3335
 2151TIP3    H130648   5.758   3.522  19.001  0.3483 -1.2594 -0.2483
 2151TIP3    H230649   5.788   3.587  18.867 -1.3342 -0.5682 -0.3257
 2152TIP3   OH230650   6.044   3.880  17.561 -1.0345  0.3239 -0.1526
 2152TIP3    H130651   6.068   3.954  17.504  0.0002 -0.2497 -0.4982
 2152TIP3    H230652   6.120   3.868  17.617 -1.4072 -0.1488  0.2585
 2153TIP3   OH230653   6.389   5.158  18.686  0.2990  0.0847 -0.2769
 2153TIP3    H130654   6.483   5.167  18.703  0.2353  0.0297  0.1267
 2153TIP3    H230655   6.378   5.183  18.594  0.5899  0.9432 -0.0897
 2154TIP3   OH230656   5.769   3.200  17.328  0.1223 -0.2039  0.4731
 2154TIP3    H130657   5.762   3.238  17.240  1.0089  0.1069  0.5227
 2154TIP3    H230658   5.783   3.107  17.313  1.4347  0.0175  0.2400
 2155TIP3   OH230659   2.676   4.645  18.970  0.6189 -0.2046  0.0981
 2155TIP3    H130660   2.707   4.626  18.882 -0.9808  2.5186 -1.1713
 2155TIP3    H230661   2.585   4.616  18.971  0.1231  1.2770  0.2555
 2156TIP3   OH230662   5.751   7.122  18.725 -0.1984 -0.2200  0.5764
 2156TIP3    H130663   5.805   7.194  18.691 -0.7116 -0.3303 -0.5086
 2156TIP3    H230664   5.765   7.051  18.663 -2.7439  0.2281 -0.6238
 2157TIP3   OH230665   2.742   1.619  17.945  0.5655 -0.3610 -0.0235
 2157TIP3    H130666   2.654   1.582  17.956  0.3091  0.3455  0.3770
 2157TIP3    H230667   2.727   1.711  17.925  1.2223 -0.1985  0.2094
 2158TIP3   OH230668   5.178   2.283  19.039 -0.1074 -0.1537 -0.4605
 2158TIP3    H130669   5.101   2.241  19.000 -0.3780  0.2167 -0.3328
 2158TIP3    H230670   5.215   2.216  19.097 -1.2011  0.1615  0.6426
 2159TIP3   OH230671   4.025   1.640  19.473  0.1644  0.0977 -0.2789
 2159TIP3    H130672   4.035   1.735  19.474  2.7206 -0.0749  1.9930
 2159TIP3    H230673   3.931   1.626  19.467 -0.2391  2.7168 -1.6609
 2160TIP3   OH230674   6.280   1.840  16.980  0.4915 -0.3285  0.0708
 2160TIP3    H130675   6.192   1.834  16.942  0.1920  1.2355  0.4305
 2160TIP3    H230676   6.339   1.836  16.905  0.0046  0.5147 -0.3735
 2161TIP3   OH230677   1.808   7.669  17.768 -0.3794 -0.0393 -0.2867
 2161TIP3    H130678   1.769   7.592  17.808 -0.9840  0.3959 -0.0184
 2161TIP3    H230679   1.772   7.743  17.818  0.8761  0.3700  0.0402
 2162TIP3   OH230680   3.214   1.464  19.276 -0.4233 -0.6172 -0.1097
 2162TIP3    H130681   3.302   1.428  19.285  0.1093  0.2771 -1.3629
 2162TIP3    H230682   3.169   1.438  19.356  1.5169  0.3719  1.4049
 2163TIP3   OH230683   6.997   1.874  18.030  0.1147  0.2493  0.3370
 2163TIP3    H130684   6.938   1.924  17.974  0.2429  2.8391  2.3401
 2163TIP3    H230685   7.078   1.925  18.031  1.1150 -1.2629  0.6378
 2164TIP3   OH230686   5.622   0.198  19.096  0.3793  0.5309 -0.5230
 2164TIP3    H130687   5.600   0.259  19.166  0.5918  0.5979 -0.5149
 2164TIP3    H230688   5.558   0.128  19.104  0.2797  0.6383 -0.3868
 2165TIP3   OH230689   7.555   7.335  18.957 -0.9327 -0.1077 -0.3402
 2165TIP3    H130690   7.508   7.252  18.949  0.6690 -1.1116  0.2242
 2165TIP3    H230691   7.644   7.310  18.981 -0.3928  1.7844 -0.2163
 2166TIP3   OH230692   0.875   4.903  19.340 -0.1440 -0.5590  0.4727
 2166TIP3    H130693   0.922   4.847  19.278  1.0031  0.5767  0.2866
 2166TIP3    H230694   0.783   4.889  19.319  0.2098  0.2405 -1.9355
 2167TIP3   OH230695   0.448   7.493  17.709 -0.0332  0.4235 -0.7934
 2167TIP3    H130696   0.386   7.563  17.732 -1.0521 -0.7336  0.0957
 2167TIP3    H230697   0.505   7.486  17.785 -0.9807 -0.8033 -0.1637
 2168TIP3   OH230698   5.001   0.443  17.207 -0.2403  0.1746  0.3334
 2168TIP3    H130699   4.942   0.450  17.131  0.2370  1.0355  0.0187
 2168TIP3    H230700   5.089   0.439  17.168 -0.0868 -1.2987  0.7931
 2169TIP3   OH230701   1.624   7.045  18.909  0.1128  0.1342  0.3907
 2169TIP3    H130702   1.620   7.139  18.891 -1.0068  0.1561  0.6522
 2169TIP3    H230703   1.534   7.014  18.895  0.8493 -1.2874 -1.6115
 2170TIP3   OH230704   3.332   7.667  18.010  0.1202  0.7465 -1.0621
 2170TIP3    H130705   3.386   7.723  17.954 -0.6551  1.5996 -0.9768
 2170TIP3    H230706   3.381   7.659  18.091  0.9732 -0.0020 -1.6277
 2171TIP3   OH230707   4.411   3.270  17.789 -0.7300  0.3379 -0.0487
 2171TIP3    H130708   4.502   3.297  17.778 -0.9198  1.2448  0.4742
 2171TIP3    H230709   4.378   3.324  17.861 -1.2069 -1.1951  0.9352
 2172TIP3   OH230710   6.593   6.018  18.469 -0.2168 -0.8603  1.0012
 2172TIP3    H130711   6.585   6.080  18.397  0.4769 -1.9907 -0.0780
 2172TIP3    H230712   6.592   6.073  18.548  1.7570  0.6613  0.0579
 2173TIP3   OH230713   0.670   0.407  17.129  0.1476 -0.2290 -0.4922
 2173TIP3    H130714   0.693   0.369  17.044  1.5514 -0.9197  0.1568
 2173TIP3    H230715   0.653   0.331  17.185  2.3665  0.0509  0.6639
 2174TIP3   OH230716   3.640   5.432  17.452 -0.6968  0.2332  0.2249
 2174TIP3    H130717   3.693   5.495  17.501  0.4817 -1.2963  1.0112
 2174TIP3    H230718   3.692   5.413  17.374 -1.1818  0.4221 -0.1491
 2175TIP3   OH230719   3.894   6.780  17.602  0.1929 -0.0205  0.1247
 2175TIP3    H130720   3.903   6.866  17.561  0.0746  0.1121  0.3686
 2175TIP3    H230721   3.983   6.749  17.614  0.2782  0.5601  1.0495
 2176TIP3   OH230722   6.900   3.228  17.500 -0.8277  0.4182  0.4484
 2176TIP3    H130723   6.841   3.152  17.502  0.0310 -0.3356 -0.9169
 2176TIP3    H230724   6.872   3.278  17.423  1.4073 -0.9684 -1.4174
 2177TIP3   OH230725   1.280   0.961  17.612 -0.2948 -0.1961 -0.2005
 2177TIP3    H130726   1.227   0.971  17.533 -2.2092  0.1362  1.0468
 2177TIP3    H230727   1.358   0.915  17.583 -0.8073  0.1511 -2.3252
 2178TIP3   OH230728   5.906   0.658  18.762  0.0210  0.3060  0.1635
 2178TIP3    H130729   5.913   0.589  18.695 -0.5495  0.8399 -0.4611
 2178TIP3    H230730   5.848   0.723  18.723 -1.9387 -0.2748  1.9766
 2179TIP3   OH230731   6.650   3.892  18.793  0.2301  0.2229 -0.9961
 2179TIP3    H130732   6.590   3.854  18.857  0.1741  1.0799 -0.5282
 2179TIP3    H230733   6.601   3.965  18.755  0.3839 -0.0774 -1.7923
 2180TIP3   OH230734   3.146   2.270  19.211 -0.1320 -0.0093 -0.1513
 2180TIP3    H130735   3.150   2.354  19.257 -1.7881  1.1560 -1.9917
 2180TIP3    H230736   3.085   2.217  19.262 -0.2829  0.4756  0.1812
 2181TIP3   OH230737   6.870   6.731  17.628 -0.8868 -0.3109  0.4198
 2181TIP3    H130738   6.833   6.763  17.545 -1.6735 -0.6910  0.6184
 2181TIP3    H230739   6.897   6.811  17.673 -2.0188  0.0414  0.5209
 2182TIP3   OH230740   3.722   1.228  17.809 -0.2684 -0.5947 -0.1695
 2182TIP3    H130741   3.665   1.196  17.740  1.6451 -1.4650 -1.4329
 2182TIP3    H230742   3.707   1.168  17.883 -3.1271  0.9831  0.6903
 2183TIP3   OH230743   2.237   0.391  16.950 -0.0997 -0.0985  0.0039
 2183TIP3    H130744   2.171   0.348  16.896  2.4593 -2.3876 -1.5612
 2183TIP3    H230745   2.289   0.442  16.888  0.2735  0.8169  1.0381
 2184TIP3   OH230746   5.719   1.578  18.339  0.5677  0.4298 -0.2903
 2184TIP3    H130747   5.668   1.531  18.405  1.6244 -0.0529  0.1932
 2184TIP3    H230748   5.803   1.533  18.335  1.0542  1.3423 -0.9240
 2185TIP3   OH230749   4.112   5.004  17.572 -0.1673  0.3316 -0.3222
 2185TIP3    H130750   4.141   5.043  17.655 -1.1249  0.7320 -0.1658
 2185TIP3    H230751   4.025   4.969  17.590 -1.3764  2.3907 -1.6874
 2186TIP3   OH230752   0.165   3.959  19.187  0.1768 -0.4246  0.5548
 2186TIP3    H130753   0.205   3.895  19.127  1.0683 -0.7464  1.4651
 2186TIP3    H230754   0.079   3.923  19.207 -0.4924  0.1156 -1.1867
 2187TIP3   OH230755   0.308   6.798  19.106 -0.2474  0.2061  0.2425
 2187TIP3    H130756   0.262   6.733  19.054 -0.7680 -0.6600  1.7572
 2187TIP3    H230757   0.240   6.844  19.154  0.1556  1.5756 -0.4294
 2188TIP3   OH230758   1.877   6.139  18.812 -0.5039 -0.1778  0.1224
 2188TIP3    H130759   1.887   6.234  18.809 -0.5928 -0.1624  0.2788
 2188TIP3    H230760   1.786   6.124  18.785 -0.3613 -0.2458 -0.3113
 2189TIP3   OH230761   1.292   6.081  18.128  0.0376  0.2328 -0.2934
 2189TIP3    H130762   1.379   6.087  18.088 -0.5420 -0.1999 -1.6721
 2189TIP3    H230763   1.255   6.169  18.117 -0.7591 -0.2962 -2.3073
 2190TIP3   OH230764   0.143   1.926  16.437  0.9360  0.3119 -0.4513
 2190TIP3    H130765   0.169   2.015  16.463 -1.4435  0.2539  2.7654
 2190TIP3    H230766   0.047   1.928  16.436  0.8203 -2.2226 -0.2363
 2191TIP3   OH230767   0.707   2.436  18.473 -0.1722 -0.3114  0.5910
 2191TIP3    H130768   0.643   2.506  18.484 -0.0953 -0.4043  1.7440
 2191TIP3    H230769   0.691   2.377  18.547  0.0460 -1.2967 -0.1239
 2192TIP3   OH230770   3.537   6.022  18.422  0.1572 -0.0130 -0.3588
 2192TIP3    H130771   3.526   6.001  18.514  1.2500 -2.8484 -0.7996
 2192TIP3    H230772   3.499   5.948  18.375 -0.4160  1.3747 -2.2439
 2193TIP3   OH230773   0.015   2.210  17.731 -0.0647  0.2738 -0.0468
 2193TIP3    H130774  -0.010   2.294  17.769  1.2448  0.0363  1.4407
 2193TIP3    H230775   0.109   2.219  17.714  0.0480 -0.8330 -0.0493
 2194TIP3   OH230776   4.125   2.861  17.725 -0.1557  0.3518  0.3567
 2194TIP3    H130777   4.164   2.930  17.779 -0.7387 -0.0503  1.3188
 2194TIP3    H230778   4.037   2.893  17.706 -0.1152  0.2744  0.0359
 2195TIP3   OH230779   6.616   4.215  18.017  0.0023 -0.1793  1.2144
 2195TIP3    H130780   6.579   4.150  18.077  1.5477 -1.0536  1.2746
 2195TIP3    H230781   6.600   4.299  18.060 -1.8945 -0.5012  1.2093
 2196TIP3   OH230782   5.108   3.804  19.825  0.8603  0.4177 -0.2238
 2196TIP3    H130783   5.102   3.758  19.909  1.3777 -1.3869 -1.1337
 2196TIP3    H230784   5.065   3.746  19.763  1.0110  1.4601 -1.3248
 2197TIP3   OH230785   2.432   6.253  17.459 -0.4630  0.4770  0.0351
 2197TIP3    H130786   2.443   6.243  17.554  0.3551 -1.3452 -0.2173
 2197TIP3    H230787   2.424   6.348  17.446  0.6276  0.8611  1.7950
 2198TIP3   OH230788   2.926   1.002  18.798 -0.1481  0.0510  0.0292
 2198TIP3    H130789   2.862   0.972  18.734 -0.8084  1.5712 -0.0553
 2198TIP3    H230790   2.921   1.098  18.794  3.9149  0.4098 -1.8362
 2199TIP3   OH230791   3.953   2.561  17.635 -0.1607 -0.0127 -0.4699
 2199TIP3    H130792   3.998   2.477  17.621  1.1629  0.3638  1.2578
 2199TIP3    H230793   3.966   2.608  17.552 -1.9302 -1.8836 -1.9298
 2200TIP3   OH230794   4.590   2.084  19.203 -0.4332  0.1861 -0.6311
 2200TIP3    H130795   4.529   2.010  19.198 -0.0001 -0.3042  0.8039
 2200TIP3    H230796   4.540   2.153  19.245 -0.1996 -0.0016 -0.0418
 2201TIP3   OH230797   1.834   6.585  18.585  0.0069 -0.1943  0.3959
 2201TIP3    H130798   1.823   6.496  18.551 -0.6673  0.4398 -1.1430
 2201TIP3    H230799   1.746   6.622  18.582  0.6325  1.3379 -1.4611
 2202TIP3   OH230800   2.383   0.667  18.172 -0.0852 -0.0947  0.3366
 2202TIP3    H130801   2.297   0.690  18.207 -0.0990 -0.0353  0.2650
 2202TIP3    H230802   2.441   0.735  18.205 -0.4050  0.9519 -1.1455
 2203TIP3   OH230803   0.666   6.651  17.164  0.8470  0.2407 -0.3708
 2203TIP3    H130804   0.671   6.715  17.235 -0.3683  0.4094 -0.4244
 2203TIP3    H230805   0.675   6.566  17.207  2.1610  0.4028 -0.2671
 2204TIP3   OH230806   6.056   0.197  18.028  0.4078  0.1501  0.2678
 2204TIP3    H130807   6.010   0.212  18.110  2.9097  0.7759  1.6573
 2204TIP3    H230808   6.072   0.285  17.992 -1.0978 -0.1225 -1.2308
 2205TIP3   OH230809   2.750   1.981  17.627 -0.0619 -0.0474 -0.1935
 2205TIP3    H130810   2.745   1.957  17.535 -0.3369  1.0081 -0.4676
 2205TIP3    H230811   2.784   2.070  17.627 -0.1870  0.0106  0.7218
 2206TIP3   OH230812   7.219   3.863  16.911 -0.0431 -0.2847 -0.5028
 2206TIP3    H130813   7.273   3.827  16.981  0.3620 -0.4215 -0.8734
 2206TIP3    H230814   7.129   3.858  16.944  0.2451  0.7974  0.4891
 2207TIP3   OH230815   1.154   0.938  19.130  0.1752  0.0017 -0.0534
 2207TIP3    H130816   1.203   0.962  19.208 -0.2348  0.5472  0.0397
 2207TIP3    H230817   1.066   0.917  19.163  0.5690 -1.8868 -0.0883
 2208TIP3   OH230818   3.699   3.803  17.881 -0.4476 -0.1080 -0.5068
 2208TIP3    H130819   3.758   3.798  17.806 -2.2521 -0.0329 -2.0159
 2208TIP3    H230820   3.623   3.750  17.855 -1.3802  0.4242  1.0228
 2209TIP3   OH230821   1.367   6.997  16.847 -0.4467 -0.1102  0.3161
 2209TIP3    H130822   1.320   6.972  16.926 -1.2992 -1.5695 -0.6252
 2209TIP3    H230823   1.338   7.086  16.829  0.3943  0.5745  2.0716
 2210TIP3   OH230824   6.779   7.610  17.365  0.2489 -0.0065 -0.1390
 2210TIP3    H130825   6.808   7.623  17.456 -0.6779 -0.0662  0.1762
 2210TIP3    H230826   6.844   7.658  17.313  0.9619 -0.2180  0.5289
 2211TIP3   OH230827   4.070   7.512  17.696  0.2922  0.2266  0.0628
 2211TIP3    H130828   4.158   7.487  17.668 -0.7492 -1.2674 -2.1833
 2211TIP3    H230829   4.058   7.600  17.660  1.1890  0.8955  1.3016
 2212TIP3   OH230830   4.464   1.281  17.660 -0.2738  0.5410  0.4173
 2212TIP3    H130831   4.423   1.353  17.613 -0.1638  0.7598  0.6536
 2212TIP3    H230832   4.477   1.213  17.594  0.0991  0.9353  0.0877
 2213TIP3   OH230833   5.863   6.219  18.979  0.4066  0.1240 -0.1768
 2213TIP3    H130834   5.870   6.172  18.896  0.5486 -1.9970  0.9678
 2213TIP3    H230835   5.936   6.282  18.978 -0.0969  0.7277 -1.9750
 2214TIP3   OH230836   3.792   4.066  18.447 -0.0535  0.8908 -0.1604
 2214TIP3    H130837   3.727   4.003  18.477  0.4099  1.4225  2.1531
 2214TIP3    H230838   3.750   4.110  18.373 -1.1152 -0.7977 -0.6240
 2215TIP3   OH230839   5.411   2.293  19.354 -0.0524  0.4306  0.2145
 2215TIP3    H130840   5.439   2.330  19.437  1.0522  0.3871 -0.1227
 2215TIP3    H230841   5.433   2.359  19.289 -0.0974  0.0953 -0.1490
 2216TIP3   OH230842   7.243   1.754  17.320  0.5853 -0.5988  0.3642
 2216TIP3    H130843   7.171   1.784  17.264  0.8593 -1.0827 -0.2639
 2216TIP3    H230844   7.298   1.832  17.332  1.1012 -0.7281 -0.9569
 2217TIP3   OH230845   5.196   3.330  19.534 -0.1333 -0.1300  0.4184
 2217TIP3    H130846   5.247   3.254  19.560  0.4261 -0.6183 -1.8727
 2217TIP3    H230847   5.148   3.302  19.456 -1.9504  1.1084  1.0128
 2218TIP3   OH230848   3.932   4.308  18.937  0.0514 -0.6479 -0.6711
 2218TIP3    H130849   3.857   4.257  18.968 -0.3654  1.2136  1.7509
 2218TIP3    H230850   3.893   4.379  18.885 -0.0800  0.8371  1.3158
 2219TIP3   OH230851   1.889   7.563  18.070  0.1096  0.0563 -0.2895
 2219TIP3    H130852   1.866   7.508  18.145  0.2551  0.5465  0.1185
 2219TIP3    H230853   1.817   7.549  18.008  0.7477 -1.5560 -0.7295
 2220TIP3   OH230854   0.196   4.937  18.017 -0.0867 -0.3340  0.0180
 2220TIP3    H130855   0.124   4.920  17.956  0.3058 -0.7799 -0.3305
 2220TIP3    H230856   0.192   4.864  18.079  0.3764 -0.6476 -0.3086
 2221TIP3   OH230857   2.665   6.104  19.364 -0.6194  0.4818 -0.3694
 2221TIP3    H130858   2.587   6.057  19.334 -0.3409 -0.7624  0.7918
 2221TIP3    H230859   2.730   6.088  19.296 -1.6020  2.3731 -1.8801
 2222TIP3   OH230860   5.799   1.603  17.927  0.0586 -0.2325  0.1922
 2222TIP3    H130861   5.730   1.665  17.902 -0.8000 -0.5689  1.6619
 2222TIP3    H230862   5.879   1.643  17.893 -0.9142 -0.3854 -2.5991
 2223TIP3   OH230863   4.685   1.051  17.598  0.3887 -0.1785  0.3029
 2223TIP3    H130864   4.624   0.978  17.588  0.7341 -0.4250 -0.0242
 2223TIP3    H230865   4.702   1.056  17.692  1.4401 -1.4010  0.1923
 2224TIP3   OH230866   4.556   0.361  17.650  0.1524 -0.6475 -0.1284
 2224TIP3    H130867   4.500   0.378  17.575  0.8943  1.4143 -0.2764
 2224TIP3    H230868   4.638   0.329  17.612  0.2187 -0.4837 -0.1216
 2225TIP3   OH230869   6.274   3.290  17.085 -0.3200 -0.0588 -0.1156
 2225TIP3    H130870   6.320   3.271  17.004  1.5015 -1.2474  1.1151
 2225TIP3    H230871   6.182   3.271  17.066  0.0475 -0.2281 -1.8958
 2226TIP3   OH230872   5.724   0.712  17.920 -0.4211  0.3287  0.8758
 2226TIP3    H130873   5.750   0.735  18.010  2.0646 -0.1328  0.3603
 2226TIP3    H230874   5.781   0.765  17.864 -0.6159 -0.7511 -0.3958
 2227TIP3   OH230875   3.807   0.463  19.044  0.2697  0.0988 -0.1883
 2227TIP3    H130876   3.732   0.434  18.993 -1.1941  1.9252  0.7957
 2227TIP3    H230877   3.851   0.383  19.070  0.1194 -0.9370 -2.8716
 2228TIP3   OH230878   1.529   6.347  18.063 -0.3715  0.1271 -0.4509
 2228TIP3    H130879   1.448   6.365  18.016  0.0079  2.5568 -0.2938
 2228TIP3    H230880   1.507   6.358  18.156  0.0146  0.2636 -0.3698
 2229TIP3   OH230881   0.551   0.983  17.919  0.7875  0.0115  0.2947
 2229TIP3    H130882   0.543   1.075  17.893  2.5489  0.1466  0.0769
 2229TIP3    H230883   0.463   0.947  17.907  0.1599  1.5535 -0.0308
 2230TIP3   OH230884   3.601   3.312  19.530 -0.1596 -0.3702  0.4949
 2230TIP3    H130885   3.682   3.344  19.490 -0.4261  2.2212  1.8051
 2230TIP3    H230886   3.587   3.226  19.490  2.3994 -0.2528 -0.8962
 2231TIP3   OH230887   1.286   0.781  17.865 -0.2825 -0.4634  0.5070
 2231TIP3    H130888   1.281   0.842  17.792 -0.3528 -0.7608  0.2600
 2231TIP3    H230889   1.197   0.747  17.873 -0.5154  0.2951  1.3659
 2232TIP3   OH230890   7.517   2.583  19.609 -0.3510 -0.1242  0.1637
 2232TIP3    H130891   7.485   2.522  19.675  1.7589 -0.2195  1.1951
 2232TIP3    H230892   7.574   2.530  19.553  0.1121  0.5275  0.0024
 2233TIP3   OH230893   6.888   4.876  16.669 -0.2901  0.0086  0.1487
 2233TIP3    H130894   6.962   4.932  16.642  0.1858 -0.4820  0.4238
 2233TIP3    H230895   6.873   4.820  16.593 -0.1886 -0.0909  0.2016
 2234TIP3   OH230896   5.473   5.213  19.299 -0.2410 -0.0747  0.1077
 2234TIP3    H130897   5.503   5.297  19.334  0.6553  0.1781 -1.2251
 2234TIP3    H230898   5.422   5.236  19.222  0.3665 -0.7581 -0.5135
 2235TIP3   OH230899   0.730   6.813  16.460 -0.2978  0.4143 -0.0870
 2235TIP3    H130900   0.638   6.837  16.476 -0.4230 -0.0663 -0.0391
 2235TIP3    H230901   0.736   6.723  16.493  0.0415  0.2351 -0.6184
 2236TIP3   OH230902   1.022   1.640  19.185 -0.2834  0.0696  0.6976
 2236TIP3    H130903   1.018   1.734  19.169 -0.0689 -0.0928 -0.4471
 2236TIP3    H230904   1.077   1.630  19.263 -0.8878  0.9167  1.2428
 2237TIP3   OH230905   5.153   6.425  17.964  1.1983 -0.2481 -0.9702
 2237TIP3    H130906   5.133   6.441  17.872 -0.6890  0.0774 -0.5359
 2237TIP3    H230907   5.128   6.334  17.979 -0.3387  0.2570 -0.3403
 2238TIP3   OH230908   5.364   4.968  19.411  0.5239  0.1375  0.1915
 2238TIP3    H130909   5.320   4.996  19.331 -1.7921  0.3137  1.4290
 2238TIP3    H230910   5.423   5.039  19.432  0.1915  0.6877 -0.6664
 2239TIP3   OH230911   5.702   1.174  18.096 -0.0509  0.7157 -0.4773
 2239TIP3    H130912   5.740   1.189  18.182 -1.4846 -0.9262  0.5171
 2239TIP3    H230913   5.653   1.254  18.077  0.5166  1.2068  0.0776
 2240TIP3   OH230914   4.661   1.792  18.357  0.8093 -0.2019  0.0036
 2240TIP3    H130915   4.566   1.796  18.350  0.7033 -2.4537 -0.5962
 2240TIP3    H230916   4.685   1.866  18.412 -1.3472  0.0005  0.7343
 2241TIP3   OH230917   0.767   0.309  16.876  0.1542  0.3809  0.0898
 2241TIP3    H130918   0.742   0.231  16.827 -2.0479  0.2806  1.2517
 2241TIP3    H230919   0.735   0.382  16.822 -3.1723  0.2520  1.6352
 2242TIP3   OH230920   0.093   0.837  17.229  0.0462 -0.1672  0.3930
 2242TIP3    H130921   0.164   0.892  17.196 -0.8657  0.0568 -1.3789
 2242TIP3    H230922   0.065   0.879  17.310  1.6540 -0.0499  0.9230
 2243TIP3   OH230923   4.505   1.512  18.456  0.3919 -0.1860 -0.1704
 2243TIP3    H130924   4.473   1.602  18.462 -0.9973 -0.6571 -0.1008
 2243TIP3    H230925   4.599   1.518  18.471  0.7547  1.5566 -2.5611
 2244TIP3   OH230926   5.360   3.183  16.889  0.4914  0.3381 -0.1710
 2244TIP3    H130927   5.266   3.194  16.880  0.1752 -2.7418 -2.3663
 2244TIP3    H230928   5.395   3.200  16.802  1.6948 -0.3711  0.1446
 2245TIP3   OH230929   6.009   0.608  16.565  1.2325  0.0811  0.0413
 2245TIP3    H130930   6.074   0.561  16.618  2.0218 -0.3351 -1.2461
 2245TIP3    H230931   5.929   0.556  16.574  1.4387 -0.1608  0.5541
 2246TIP3   OH230932   6.527   4.894  18.486 -0.6017  0.0406 -0.0812
 2246TIP3    H130933   6.516   4.983  18.453  1.5755  1.1983  1.9981
 2246TIP3    H230934   6.454   4.881  18.546  0.1148  1.2524  1.1158
 2247TIP3   OH230935   0.275   5.959  16.524 -0.0933 -0.0227  0.2699
 2247TIP3    H130936   0.367   5.940  16.504  0.4732  0.9280  1.8498
 2247TIP3    H230937   0.227   5.920  16.451  1.5198 -0.9814 -0.3404
 2248TIP3   OH230938   3.550   1.000  17.705 -0.4491  0.0140 -0.1025
 2248TIP3    H130939   3.474   1.007  17.646 -0.4886 -0.6414 -0.1298
 2248TIP3    H230940   3.625   1.010  17.646 -0.4385 -2.2944 -0.5445
 2249TIP3   OH230941   0.514   3.499  17.531  0.2193 -0.1614 -0.3053
 2249TIP3    H130942   0.492   3.471  17.442 -0.5492 -1.5635  0.2976
 2249TIP3    H230943   0.457   3.447  17.587  2.0267 -0.7118  1.1242
 2250TIP3   OH230944   1.450   4.439  19.107 -0.5655 -0.3990  0.1318
 2250TIP3    H130945   1.366   4.397  19.124 -0.0237 -1.5711  0.0240
 2250TIP3    H230946   1.451   4.452  19.012 -1.1850  0.9003  0.2738
 2251TIP3   OH230947   0.578   2.810  18.764  0.2091  0.1114 -0.1435
 2251TIP3    H130948   0.605   2.784  18.852 -1.8194 -2.7893 -0.2545
 2251TIP3    H230949   0.651   2.785  18.708  1.3412  1.5965  0.5981
 2252TIP3   OH230950   0.212   7.649  17.326 -0.2802  0.4597 -0.4800
 2252TIP3    H130951   0.277   7.592  17.283 -1.0509 -1.1562  0.4048
 2252TIP3    H230952   0.264   7.712  17.375  0.8292 -2.4638  2.4688
 2253TIP3   OH230953   3.090   4.692  18.756 -0.1614 -0.1205 -0.3411
 2253TIP3    H130954   3.073   4.612  18.806 -2.1190  1.0750  1.0620
 2253TIP3    H230955   3.182   4.685  18.729  0.2261 -2.0056  1.2687
 2254TIP3   OH230956   7.647   2.728  19.169 -0.3373  0.1544  0.0303
 2254TIP3    H130957   7.609   2.643  19.147 -0.6271  0.7706 -2.1455
 2254TIP3    H230958   7.571   2.783  19.190 -0.3177  0.3043 -0.2757
 2255TIP3   OH230959   0.378   6.835  17.963  0.3218  0.1279  0.4261
 2255TIP3    H130960   0.303   6.879  18.004  0.5733  0.6509  0.3331
 2255TIP3    H230961   0.352   6.824  17.872  0.7550  1.2366  0.1549
 2256TIP3   OH230962   1.224   6.958  17.071 -0.2314  0.3587 -0.5177
 2256TIP3    H130963   1.133   6.964  17.100 -0.5048  0.9376 -1.4493
 2256TIP3    H230964   1.273   6.941  17.151 -1.1322  0.2634  0.0359
 2257TIP3   OH230965   5.409   4.239  18.241 -0.5147  0.4485  0.8467
 2257TIP3    H130966   5.326   4.270  18.277 -1.1008  0.3250 -0.3576
 2257TIP3    H230967   5.442   4.177  18.307 -2.4773 -1.2308  0.3501
 2258TIP3   OH230968   0.350   5.162  19.102 -0.1557 -0.1961 -0.2064
 2258TIP3    H130969   0.273   5.105  19.097 -0.3809  0.0050  0.7645
 2258TIP3    H230970   0.315   5.246  19.131  0.1257  0.5588 -1.9273
 2259TIP3   OH230971   5.979   1.121  17.677  0.6401 -0.1236  0.5379
 2259TIP3    H130972   5.919   1.088  17.744 -0.1408 -0.8875 -0.5019
 2259TIP3    H230973   5.978   1.055  17.609  1.6401  0.5049 -0.1221
 2260TIP3   OH230974   2.801   4.091  18.930  0.0457 -0.0959 -0.2407
 2260TIP3    H130975   2.727   4.032  18.931  1.0349 -1.4542  2.0887
 2260TIP3    H230976   2.771   4.168  18.881 -2.1439 -1.4333 -1.1061
 2261TIP3   OH230977   1.907   3.800  19.031  0.4233  0.4938 -0.1921
 2261TIP3    H130978   2.000   3.818  19.043  0.7681 -0.9812 -0.4469
 2261TIP3    H230979   1.863   3.855  19.096  1.7194 -1.6816  2.7686
 2262TIP3   OH230980   7.023   3.685  18.832  0.0456 -0.1799  0.3779
 2262TIP3    H130981   7.041   3.595  18.859  0.8059 -0.0365  0.3786
 2262TIP3    H230982   7.102   3.712  18.783 -1.4039 -0.5827 -2.4071
 2263TIP3   OH230983   0.020   4.192  19.334  0.2788 -0.3245 -0.2737
 2263TIP3    H130984   0.002   4.188  19.428 -2.0321 -0.2113 -0.6489
 2263TIP3    H230985   0.004   4.103  19.302 -0.4668 -0.0254 -0.7715
 2264TIP3   OH230986   1.829   0.728  17.301 -0.0724 -0.2752 -0.0673
 2264TIP3    H130987   1.812   0.671  17.227 -0.3467 -0.0071 -0.2154
 2264TIP3    H230988   1.801   0.678  17.377  1.7352 -1.2132  0.0425
 2265TIP3   OH230989   0.586   6.041  19.116 -1.3385 -0.1524 -0.0846
 2265TIP3    H130990   0.560   5.999  19.198 -0.2560  2.0687  1.5209
 2265TIP3    H230991   0.682   6.041  19.119 -1.2951  0.6816 -0.9705
 2266TIP3   OH230992   3.874   5.812  16.713  0.6709 -0.1491 -0.7042
 2266TIP3    H130993   3.818   5.890  16.715 -0.1028 -0.6865 -0.9454
 2266TIP3    H230994   3.840   5.757  16.783  1.9129  0.1728  0.2048
 2267TIP3   OH230995   1.446   0.633  19.086 -0.3958  0.1632 -0.5676
 2267TIP3    H130996   1.526   0.580  19.094 -0.6332 -0.0697  0.4656
 2267TIP3    H230997   1.409   0.609  19.001  0.4610  0.0341 -0.9152
 2268TIP3   OH230998   5.321   4.799  18.526 -0.7579 -0.3402  1.0663
 2268TIP3    H130999   5.396   4.844  18.488 -1.4774  1.1297  1.2992
 2268TIP3    H231000   5.298   4.732  18.462  0.4355 -0.4845  0.7698
 2269TIP3   OH231001   2.706   3.275  19.345 -0.4052  0.3897 -0.7036
 2269TIP3    H131002   2.653   3.349  19.318 -1.8631 -0.2940  0.2085
 2269TIP3    H231003   2.663   3.199  19.306 -0.7523 -0.2934  0.9623
 2270TIP3   OH231004   3.312   5.261  17.559 -0.2687  0.2523  0.6267
 2270TIP3    H131005   3.262   5.264  17.640  0.9195  0.7947  1.3722
 2270TIP3    H231006   3.373   5.335  17.566  0.7467 -0.4902 -0.1566
 2271TIP3   OH231007   4.414   0.088  17.491 -0.2021 -0.0394 -0.0886
 2271TIP3    H131008   4.453   0.057  17.410 -0.1930 -1.1228  0.3124
 2271TIP3    H231009   4.394   0.180  17.475  1.5845  0.2811 -0.6504
 2272TIP3   OH231010   5.593   6.604  19.118  0.4027 -0.4493 -0.1519
 2272TIP3    H131011   5.567   6.660  19.045  0.5411 -1.7572 -1.2552
 2272TIP3    H231012   5.521   6.541  19.126  0.3039 -0.2053  0.9747
 2273TIP3   OH231013   6.785   1.714  18.039 -0.0356  0.1327  0.6421
 2273TIP3    H131014   6.878   1.723  18.056 -0.2620 -0.1159  2.1417
 2273TIP3    H231015   6.779   1.664  17.958  1.1351  2.2050 -0.8059
 2274TIP3   OH231016   6.806   6.317  17.087 -0.6706  0.1851  0.4572
 2274TIP3    H131017   6.735   6.254  17.101 -1.8682  0.9862 -1.4930
 2274TIP3    H231018   6.768   6.401  17.111 -0.1560  0.5327  0.0724
 2275TIP3   OH231019   5.628   2.393  17.489  0.4445 -0.7397  0.5605
 2275TIP3    H131020   5.568   2.328  17.452  1.2138 -1.6208  0.8435
 2275TIP3    H231021   5.582   2.425  17.567 -0.8192  0.5328 -0.6587
 2276TIP3   OH231022   2.979   1.010  18.179 -0.0414 -0.0167 -0.2346
 2276TIP3    H131023   2.975   0.924  18.138 -0.4935 -1.0366  1.8580
 2276TIP3    H231024   2.912   1.007  18.248  0.6210  1.6530  0.5289
 2277TIP3   OH231025   4.550   2.901  19.125  0.1594  0.0012  0.3169
 2277TIP3    H131026   4.540   2.807  19.109  1.8380 -0.3112  0.8680
 2277TIP3    H231027   4.571   2.937  19.039 -0.0802 -0.1909  0.1763
 2278TIP3   OH231028   5.914   7.647  17.591 -0.0050  0.3370 -0.1912
 2278TIP3    H131029   5.884   7.558  17.612 -0.4279  0.0671 -1.7527
 2278TIP3    H231030   5.982   7.665  17.655 -1.2888 -0.3096  1.4346
 2279TIP3   OH231031   4.078   7.190  17.561  0.3174  0.4001  0.2129
 2279TIP3    H131032   4.062   7.145  17.644 -1.4617 -0.4181 -0.5267
 2279TIP3    H231033   4.148   7.141  17.519  0.2566 -0.0353  0.6178
 2280TIP3   OH231034   6.540   1.915  17.821  0.0407  0.0201  0.3280
 2280TIP3    H131035   6.506   1.927  17.910 -2.8751 -3.0968 -0.1518
 2280TIP3    H231036   6.509   1.991  17.773  0.9090  1.3065  1.7104
 2281TIP3   OH231037   1.991   1.037  17.836 -0.3806 -0.0573  0.0481
 2281TIP3    H131038   1.929   0.988  17.890  0.2557  0.8924  1.6981
 2281TIP3    H231039   1.947   1.120  17.818  0.0642  0.2852  0.5187
 2282TIP3   OH231040   5.985   4.679  19.168  1.0208 -0.3095 -0.0774
 2282TIP3    H131041   5.924   4.741  19.208  0.6755  0.0132 -1.0805
 2282TIP3    H231042   6.072   4.715  19.188  0.8732 -0.3961  0.7546
 2283TIP3   OH231043   4.508   7.164  17.264  0.4313 -0.5719 -0.2147
 2283TIP3    H131044   4.533   7.075  17.239  0.8786 -0.0056 -1.8941
 2283TIP3    H231045   4.477   7.205  17.183 -0.4412  0.5993  0.6611
 2284TIP3   OH231046   4.441   4.103  17.960 -0.3481 -0.1054 -0.1664
 2284TIP3    H131047   4.391   4.182  17.936 -1.9129 -1.0235 -0.0559
 2284TIP3    H231048   4.416   4.086  18.051 -2.1275 -2.2148 -0.9823
 2285TIP3   OH231049   0.732   6.488  18.629  0.2488  0.3970 -0.2984
 2285TIP3    H131050   0.673   6.562  18.615  1.0594  1.1887  0.3680
 2285TIP3    H231051   0.695   6.442  18.705  0.4261  0.8279  0.0514
 2286TIP3   OH231052   2.903   3.959  17.924  0.1179  0.7755  0.5683
 2286TIP3    H131053   2.866   3.977  18.010 -1.3810  1.4440 -0.1790
 2286TIP3    H231054   2.985   4.009  17.921  0.1873  0.7363  1.5903
 2287TIP3   OH231055   0.926   0.864  19.242 -0.4523  0.0342 -0.6431
 2287TIP3    H131056   0.895   0.797  19.303 -0.7162  0.8097  0.1049
 2287TIP3    H231057   0.857   0.931  19.244  0.9927  1.5606  0.6654
 2288TIP3   OH231058   2.077   3.119  18.519  0.3423 -0.1709  0.1945
 2288TIP3    H131059   2.043   3.159  18.599  1.5045  0.5036  0.3657
 2288TIP3    H231060   2.056   3.026  18.527 -1.4274  0.2058  0.2938
 2289TIP3   OH231061   2.628   0.448  18.524  0.5769 -0.3373  0.6134
 2289TIP3    H131062   2.586   0.363  18.522  0.6950 -0.4174  1.4098
 2289TIP3    H231063   2.721   0.430  18.507  0.2058 -0.0665 -2.1379
 2290TIP3   OH231064   2.085   0.104  18.134 -0.4384  0.0642  0.1581
 2290TIP3    H131065   2.050   0.172  18.076  1.9794 -0.7707 -2.4758
 2290TIP3    H231066   2.018   0.036  18.134 -0.3951 -0.0252 -1.9598
 2291TIP3   OH231067   2.034   1.564  19.165 -0.4211  0.2157  0.3407
 2291TIP3    H131068   2.109   1.527  19.211 -1.5412 -1.3219  0.9819
 2291TIP3    H231069   2.049   1.541  19.073 -0.1978 -0.2584  0.4925
 2292TIP3   OH231070   7.630   4.055  19.596 -0.3582 -0.0373 -0.6511
 2292TIP3    H131071   7.569   3.990  19.561 -0.7338 -0.2392  0.3411
 2292TIP3    H231072   7.577   4.133  19.610 -1.2113 -1.0626  2.9949
 2293TIP3   OH231073   0.647   1.460  18.652  0.1620  0.3022  0.4387
 2293TIP3    H131074   0.663   1.416  18.736 -0.4166  0.6484  0.7390
 2293TIP3    H231075   0.621   1.390  18.592  0.1236  0.1148  0.6725
 2294TIP3   OH231076   3.128   1.741  17.238 -0.2864 -0.0608  0.0089
 2294TIP3    H131077   3.078   1.822  17.229  0.6601  0.7191  1.3830
 2294TIP3    H231078   3.069   1.672  17.206 -0.7107  1.2419 -2.2442
 2295TIP3   OH231079   3.166   5.406  18.159  0.2913 -0.2161 -0.1232
 2295TIP3    H131080   3.089   5.437  18.111  1.2710 -1.9898 -3.0600
 2295TIP3    H231081   3.134   5.332  18.210 -0.1610 -0.2629 -0.4653
 2296TIP3   OH231082   0.215   5.551  17.926  0.3206 -0.3198  0.0731
 2296TIP3    H131083   0.153   5.539  17.997 -0.4458  0.3664 -0.4697
 2296TIP3    H231084   0.161   5.563  17.848  1.1153  0.7997 -0.3319
 2297TIP3   OH231085   5.508   2.874  17.981  0.8984 -0.8384 -0.6602
 2297TIP3    H131086   5.549   2.848  17.898  3.3083  0.7015 -0.0619
 2297TIP3    H231087   5.535   2.965  17.993 -2.2562  0.1128  0.1927
 2298TIP3   OH231088   7.242   3.935  18.092 -0.1673  0.3746 -0.1917
 2298TIP3    H131089   7.162   3.984  18.115 -1.1191 -0.9011 -0.6920
 2298TIP3    H231090   7.294   3.936  18.172 -0.1082  2.2459 -0.1896
 2299TIP3   OH231091   4.319   2.184  18.148 -0.1409  0.6384 -0.9921
 2299TIP3    H131092   4.334   2.156  18.238 -0.3633  3.1881 -0.0690
 2299TIP3    H231093   4.403   2.171  18.104  0.3439  0.5366 -0.0562
 2300TIP3   OH231094   2.721   3.976  18.659  0.2876 -0.0470  0.3835
 2300TIP3    H131095   2.710   3.915  18.586  0.4738  0.7515 -0.3308
 2300TIP3    H231096   2.781   3.931  18.718 -0.8037 -1.2166  0.6443
 2301TIP3   OH231097   1.009   3.099  19.149 -0.2708  0.6486 -0.4154
 2301TIP3    H131098   1.039   3.018  19.190 -1.0136  0.8820  0.6551
 2301TIP3    H231099   1.077   3.163  19.169 -1.3439  1.1808  2.0116
 2302TIP3   OH231100   1.806   7.248  17.568  0.5883  0.3350 -0.3539
 2302TIP3    H131101   1.723   7.279  17.603  0.6954 -0.0541  0.2614
 2302TIP3    H231102   1.797   7.153  17.564  0.3676  0.3956 -1.9520
 2303TIP3   OH231103   3.298   7.091  17.514  0.1086  0.2081 -0.6793
 2303TIP3    H131104   3.256   7.010  17.484  0.0788 -0.5143  1.1446
 2303TIP3    H231105   3.231   7.158  17.503 -0.3318 -0.2723 -1.0007
 2304TIP3   OH231106   7.274   3.692  17.452  0.6636 -0.2277  0.5270
 2304TIP3    H131107   7.359   3.670  17.414 -0.1606 -2.2770 -0.2385
 2304TIP3    H231108   7.218   3.618  17.432 -2.4943  2.5921 -2.4274
 2305TIP3   OH231109   4.315   2.170  19.214  0.4741 -0.6338  0.2704
 2305TIP3    H131110   4.219   2.179  19.212  0.5829  1.2483 -3.1539
 2305TIP3    H231111   4.334   2.101  19.150  1.4511 -0.8227  0.7477
 2306TIP3   OH231112   3.135   7.525  17.152 -0.4473 -0.7124  0.4840
 2306TIP3    H131113   3.208   7.527  17.214 -1.5081 -0.1511  1.7768
 2306TIP3    H231114   3.136   7.611  17.110 -0.9887 -0.2931  1.2972
 2307TIP3   OH231115   0.721   4.525  19.157  0.3300  0.0218 -0.0536
 2307TIP3    H131116   0.745   4.454  19.097  0.6959 -0.4969  0.6899
 2307TIP3    H231117   0.696   4.481  19.238 -0.2437  0.7101  0.1586
 2308TIP3   OH231118   5.837   2.409  19.012  0.2823  0.4247 -0.2887
 2308TIP3    H131119   5.846   2.328  19.063  1.6168  1.2209  0.8087
 2308TIP3    H231120   5.855   2.479  19.075 -1.4465  1.6249 -1.0740
 2309TIP3   OH231121   6.241   6.045  19.009 -0.5199  0.0143  0.0071
 2309TIP3    H131122   6.249   6.123  19.065  2.4924 -0.0900 -0.1456
 2309TIP3    H231123   6.319   5.994  19.027 -0.7124 -1.3002 -2.4456
 2310TIP3   OH231124   4.999   2.411  18.733 -0.3560 -0.6463 -0.0649
 2310TIP3    H131125   4.982   2.341  18.796 -0.2303  0.5478  1.3571
 2310TIP3    H231126   5.070   2.377  18.678 -0.6006 -1.7925  0.2934
 2311TIP3   OH231127   1.134   3.175  18.265 -0.0050 -0.2375 -0.0698
 2311TIP3    H131128   1.190   3.196  18.340  0.1122 -0.7696 -0.0108
 2311TIP3    H231129   1.046   3.195  18.295  0.1225  0.4067 -0.0947
 2312TIP3   OH231130   2.192   0.954  18.890  0.3014  0.2639  0.1966
 2312TIP3    H131131   2.268   0.901  18.862 -0.2554 -0.4449 -0.0076
 2312TIP3    H231132   2.143   0.895  18.948 -0.0584  0.7469  0.3844
 2313TIP3   OH231133   6.558   5.385  19.367  0.1390 -0.2594 -0.0387
 2313TIP3    H131134   6.632   5.340  19.327  1.6233  1.5196  0.5729
 2313TIP3    H231135   6.568   5.370  19.461 -0.3596 -0.1238  0.0432
 2314TIP3   OH231136   4.595   6.620  17.804 -0.1998 -0.2455 -0.5572
 2314TIP3    H131137   4.603   6.567  17.884 -1.7776 -1.1088 -0.9320
 2314TIP3    H231138   4.682   6.658  17.792  0.3700 -0.9782  0.9629
 2315TIP3   OH231139   4.829   2.162  17.504 -0.2733 -0.7736  0.6447
 2315TIP3    H131140   4.886   2.120  17.441 -0.3417 -0.8436  0.6302
 2315TIP3    H231141   4.757   2.199  17.451 -0.8719 -1.7172  0.7830
 2316TIP3   OH231142   4.696   3.687  17.199  0.3282  0.1554  0.0501
 2316TIP3    H131143   4.613   3.732  17.184  0.2901 -0.7104 -3.2724
 2316TIP3    H231144   4.672   3.605  17.243 -0.7368 -0.3630 -1.4005
 2317TIP3   OH231145   3.149   1.947  19.118  0.3787 -0.2754 -0.1210
 2317TIP3    H131146   3.127   1.887  19.189  1.0922  0.6882  0.9754
 2317TIP3    H231147   3.171   2.029  19.163 -2.1674  1.3577 -1.6065
 2318TIP3   OH231148   0.977   6.377  18.617  0.2277 -0.5152  0.2434
 2318TIP3    H131149   0.889   6.415  18.607 -0.2480 -1.5462  0.3745
 2318TIP3    H231150   1.037   6.448  18.593 -0.6427  0.1669  0.0403
 2319TIP3   OH231151   0.711   1.369  19.657  0.2286 -0.1941  0.1956
 2319TIP3    H131152   0.802   1.353  19.633 -0.0438  0.2661 -1.2579
 2319TIP3    H231153   0.683   1.289  19.703  1.1024 -0.6970 -0.1290
 2320TIP3   OH231154   4.104   6.388  18.994  0.0895 -0.2065 -0.5659
 2320TIP3    H131155   4.118   6.294  18.977 -0.1181 -0.3113 -0.1467
 2320TIP3    H231156   4.119   6.398  19.088 -1.0081 -0.0179 -0.4039
 2321TIP3   OH231157   0.844   4.833  17.815 -0.8502 -0.2435 -0.2448
 2321TIP3    H131158   0.878   4.896  17.751  0.2051 -0.5831 -0.0337
 2321TIP3    H231159   0.804   4.764  17.762  1.9737 -1.6713 -0.7183
 2322TIP3   OH231160   6.531   6.510  18.656  0.2003 -0.1755  0.1479
 2322TIP3    H131161   6.459   6.574  18.660  0.1162 -0.0673 -1.8939
 2322TIP3    H231162   6.609   6.563  18.640  0.1267 -0.5528 -1.5854
 2323TIP3   OH231163   2.998   4.906  17.200  0.1747 -0.1727 -0.5287
 2323TIP3    H131164   2.922   4.933  17.252  0.8879  1.5033 -0.2953
 2323TIP3    H231165   3.070   4.903  17.263  0.6696  0.0145 -1.0765
 2324TIP3   OH231166   6.435   1.689  17.693 -0.1772 -0.1218 -0.3198
 2324TIP3    H131167   6.507   1.717  17.749 -0.0410 -1.1564  0.0393
 2324TIP3    H231168   6.369   1.656  17.753  0.0329 -1.4001 -0.7516
 2325TIP3   OH231169   2.207   2.207  17.489  0.5067  0.2111 -0.7062
 2325TIP3    H131170   2.155   2.137  17.448  1.0080  0.0479 -1.0715
 2325TIP3    H231171   2.203   2.187  17.583  0.1513  0.0321 -0.7581
 2326TIP3   OH231172   6.892   1.960  16.699  0.0851  0.5025  0.8496
 2326TIP3    H131173   6.926   2.000  16.619  3.1593 -1.6131  0.9268
 2326TIP3    H231174   6.822   1.902  16.670 -0.1110  1.1581 -0.0281
 2327TIP3   OH231175   2.904   4.824  18.611 -0.5704  0.2653  0.2498
 2327TIP3    H131176   2.912   4.912  18.648  0.4767  0.0584  0.5315
 2327TIP3    H231177   2.953   4.767  18.670  0.7104 -0.1486 -1.1357
 2328TIP3   OH231178   2.279   3.998  18.834  0.1873  0.2476 -0.0519
 2328TIP3    H131179   2.315   3.948  18.761  1.2230  0.5316  0.2585
 2328TIP3    H231180   2.277   4.088  18.803  0.2481  0.3103  0.1242
 2329TIP3   OH231181   0.183   6.904  17.232 -0.6784  0.0096 -0.0331
 2329TIP3    H131182   0.194   6.998  17.244 -2.2737  0.1265  0.9492
 2329TIP3    H231183   0.102   6.895  17.181 -0.3215 -0.8184 -0.4774
 2330TIP3   OH231184   3.036   2.578  18.950 -0.3625  0.4619  0.3268
 2330TIP3    H131185   2.967   2.515  18.968  1.5216 -1.4688  1.2625
 2330TIP3    H231186   3.114   2.542  18.994  1.0051  3.0405  0.1998
 2331TIP3   OH231187   0.574   1.773  19.208 -0.2209  0.6987  0.7667
 2331TIP3    H131188   0.557   1.681  19.231 -3.8850  1.0898  0.2985
 2331TIP3    H231189   0.615   1.810  19.286  1.0146 -1.2259  1.0886
 2332TIP3   OH231190   7.331   1.636  19.210 -0.3525 -0.2839 -0.0501
 2332TIP3    H131191   7.341   1.709  19.148 -1.1821  0.3168  0.5012
 2332TIP3    H231192   7.238   1.615  19.207 -0.0212 -1.7401 -0.6473
 2333TIP3   OH231193   2.460   3.887  16.885  0.0519 -0.4012  0.3438
 2333TIP3    H131194   2.394   3.829  16.847 -0.7888 -0.2533  1.5095
 2333TIP3    H231195   2.521   3.904  16.813 -0.6678 -1.2864 -0.5113
 2334TIP3   OH231196   4.411   3.742  18.062 -0.1356  0.0678  0.1251
 2334TIP3    H131197   4.501   3.711  18.061 -0.7924 -1.9602 -0.4200
 2334TIP3    H231198   4.359   3.666  18.089 -1.7395  1.0531 -0.0231
 2335TIP3   OH231199   3.520   6.347  18.100 -0.0441 -0.4076  0.0492
 2335TIP3    H131200   3.496   6.412  18.167 -0.1628 -2.5188  2.1992
 2335TIP3    H231201   3.454   6.358  18.031 -0.0531  1.7095  0.3321
 2336TIP3   OH231202   1.917   3.839  17.651  0.4243 -0.4290 -0.0019
 2336TIP3    H131203   1.824   3.849  17.633  0.3583  1.9827  1.3220
 2336TIP3    H231204   1.957   3.822  17.565 -0.9198  1.2858 -1.0102
 2337TIP3   OH231205   6.163   0.844  19.613  0.2937 -0.8969  0.0810
 2337TIP3    H131206   6.211   0.925  19.597 -1.3580  0.2148  0.5242
 2337TIP3    H231207   6.126   0.855  19.701  1.0299 -2.6566  0.6510
 2338TIP3   OH231208   6.684   7.460  18.626  0.3740  0.0860 -0.0485
 2338TIP3    H131209   6.742   7.420  18.561  0.6963 -1.0466  0.9089
 2338TIP3    H231210   6.702   7.413  18.707 -3.0723 -1.5309 -0.0288
 2339TIP3   OH231211   6.571   2.612  17.222 -0.1370  0.1472 -0.1301
 2339TIP3    H131212   6.533   2.665  17.292 -0.6163 -1.4566  0.8712
 2339TIP3    H231213   6.666   2.620  17.234 -0.1902  1.1996 -0.3401
 2340TIP3   OH231214   2.338   5.715  17.592 -0.5011  0.0124 -0.1902
 2340TIP3    H131215   2.398   5.683  17.659 -0.5956 -0.8040 -0.4771
 2340TIP3    H231216   2.336   5.810  17.604 -0.1161 -0.0755  0.6172
 2341TIP3   OH231217   6.853   7.175  18.979 -0.0797  0.5141 -0.2544
 2341TIP3    H131218   6.841   7.135  18.893  3.5757  0.2242 -0.8033
 2341TIP3    H231219   6.799   7.123  19.038 -2.3574  0.4492 -2.2416
 2342TIP3   OH231220   1.343   5.146  17.653 -0.1231  0.0470  0.3617
 2342TIP3    H131221   1.288   5.224  17.660 -0.1897  0.0446 -0.0802
 2342TIP3    H231222   1.430   5.179  17.630 -0.4291 -0.0679 -1.0777
 2343TIP3   OH231223   2.931   4.118  19.205  0.0571  0.2945 -0.0945
 2343TIP3    H131224   2.902   4.130  19.114  0.0516 -0.5939 -0.2245
 2343TIP3    H231225   2.854   4.139  19.258 -0.4799 -0.8309 -0.3824
 2344TIP3   OH231226   6.811   6.805  17.048  0.3081 -0.0908  0.1660
 2344TIP3    H131227   6.756   6.800  16.970 -0.6091 -2.3050  0.8778
 2344TIP3    H231228   6.749   6.804  17.121  1.2112 -0.9435  0.9552
 2345TIP3   OH231229   3.668   1.872  17.560  0.1097 -0.7209  0.0859
 2345TIP3    H131230   3.619   1.791  17.544 -1.5615  0.3911 -0.7139
 2345TIP3    H231231   3.729   1.878  17.486  0.5695 -1.4631  0.3929
 2346TIP3   OH231232   5.681   2.035  19.716  0.2877  0.0096  0.0526
 2346TIP3    H131233   5.687   1.978  19.793 -0.3968  0.6095  0.5622
 2346TIP3    H231234   5.620   1.990  19.658  0.3860 -0.1769  0.0898
 2347TIP3   OH231235   3.210   1.064  19.185  0.2857  0.2157  0.3423
 2347TIP3    H131236   3.140   1.004  19.156  0.7924  0.4912 -1.5514
 2347TIP3    H231237   3.290   1.023  19.155  0.7678  1.1032  0.3978
 2348TIP3   OH231238   3.138   3.535  18.184 -0.4143  0.4748 -0.0191
 2348TIP3    H131239   3.231   3.516  18.172 -0.8264 -1.2533 -0.9347
 2348TIP3    H231240   3.095   3.488  18.112 -2.0738  0.2153  1.0820
 2349TIP3   OH231241   7.231   4.591  18.389 -0.5580 -0.4872 -0.0732
 2349TIP3    H131242   7.222   4.502  18.354 -0.3061 -0.6107  0.1694
 2349TIP3    H231243   7.317   4.620  18.357 -0.5397 -0.4189  0.0386
 2350TIP3   OH231244   1.775   5.861  17.694  0.6566  0.1394 -0.2293
 2350TIP3    H131245   1.751   5.890  17.781  0.0831 -2.2982  0.5170
 2350TIP3    H231246   1.691   5.847  17.650  0.9395  2.0265 -1.4704
 2351TIP3   OH231247   1.382   6.857  17.277  0.1597  0.2975  0.1591
 2351TIP3    H131248   1.386   6.780  17.221 -0.6598 -0.8651  1.6390
 2351TIP3    H231249   1.388   6.823  17.366  1.4200  2.0960  0.8207
 2352TIP3   OH231250   4.728   4.120  18.000  0.3487 -0.2455 -0.1575
 2352TIP3    H131251   4.638   4.088  17.989 -0.2176 -0.1526  3.2217
 2352TIP3    H231252   4.718   4.208  18.035  1.7152 -0.4711  0.8672
 2353TIP3   OH231253   1.569   2.518  18.831  0.0290 -0.1241 -0.0298
 2353TIP3    H131254   1.547   2.435  18.789 -0.5533 -0.5251  1.0339
 2353TIP3    H231255   1.485   2.558  18.852  0.2711  1.3273 -1.5829
 2354TIP3   OH231256   3.023   0.883  19.131 -0.1530  0.3091 -0.5128
 2354TIP3    H131257   2.948   0.849  19.181  1.3663  1.8077  3.2139
 2354TIP3    H231258   3.075   0.806  19.112 -1.5626 -0.5079 -1.2435
 2355TIP3   OH231259   7.538   0.998  18.483  0.3079  0.3456  0.2484
 2355TIP3    H131260   7.461   0.945  18.501  1.0704 -0.8765  0.0287
 2355TIP3    H231261   7.509   1.088  18.495 -1.1328 -0.0939  0.2066
 2356TIP3   OH231262   7.266   5.282  16.825  0.3701 -0.8159 -0.0761
 2356TIP3    H131263   7.217   5.208  16.861  1.3575 -2.5368 -2.0494
 2356TIP3    H231264   7.325   5.243  16.761  1.5129  1.6202 -0.6339
 2357TIP3   OH231265   5.025   4.774  17.193  0.8149 -0.2544 -0.6148
 2357TIP3    H131266   4.963   4.730  17.136  1.0579 -1.2746 -0.1152
 2357TIP3    H231267   5.023   4.866  17.165 -1.7109 -0.0191  0.0976
 2358TIP3   OH231268   3.892   1.957  18.572  0.0934 -0.2137 -0.9358
 2358TIP3    H131269   3.943   1.953  18.653  1.0951  1.3247 -1.4446
 2358TIP3    H231270   3.827   2.026  18.588  1.5030  1.4665 -2.0283
 2359TIP3   OH231271   6.096   3.389  19.250 -0.1419  0.4836  0.8480
 2359TIP3    H131272   6.182   3.361  19.220 -0.0454  0.5056  1.1031
 2359TIP3    H231273   6.085   3.478  19.215 -1.4327 -0.6792 -2.0068
 2360TIP3   OH231274   0.099   6.729  17.909  0.0487  0.5663  0.5968
 2360TIP3    H131275   0.180   6.707  17.863  0.7296  1.4064  1.3511
 2360TIP3    H231276   0.109   6.687  17.995 -1.0260 -0.6491  0.1626
 2361TIP3   OH231277   6.744   2.433  17.486 -0.8961  0.3095 -0.2963
 2361TIP3    H131278   6.757   2.508  17.428 -1.7429  0.5360 -0.2015
 2361TIP3    H231279   6.751   2.470  17.575 -0.2265  0.0719 -0.2392
 2362TIP3   OH231280   1.193   7.110  18.609  0.1351 -0.1931 -0.6535
 2362TIP3    H131281   1.167   7.186  18.557  1.1484  2.5974  2.5822
 2362TIP3    H231282   1.110   7.072  18.639 -0.3813  0.7591 -0.8369
 2363TIP3   OH231283   3.739   7.162  17.676  0.1092  0.0643 -0.2792
 2363TIP3    H131284   3.645   7.177  17.680  0.1577  0.1241  0.7369
 2363TIP3    H231285   3.754   7.131  17.586 -0.7886  0.6029 -0.6293
 2364TIP3   OH231286   6.797   4.828  16.931  0.4541  0.1907 -0.1264
 2364TIP3    H131287   6.821   4.855  16.842  1.7014  1.0684  0.4451
 2364TIP3    H231288   6.710   4.865  16.944 -0.0626 -0.5871 -1.2356
 2365TIP3   OH231289   5.256   4.520  17.508 -0.1930 -0.0930  0.1516
 2365TIP3    H131290   5.198   4.557  17.576 -0.4103 -0.0940 -0.0310
 2365TIP3    H231291   5.331   4.579  17.507 -1.0052  0.9768 -0.8602
 2366TIP3   OH231292   6.624   1.456  17.603 -0.5216 -0.3042  0.7434
 2366TIP3    H131293   6.577   1.517  17.546  2.8304 -1.0193 -3.2383
 2366TIP3    H231294   6.559   1.389  17.625 -2.0919  0.0476 -2.3143
 2367TIP3   OH231295   6.560   5.206  17.864 -0.4723  1.0119 -0.9391
 2367TIP3    H131296   6.580   5.117  17.893 -0.4652  1.4123  0.3435
 2367TIP3    H231297   6.495   5.195  17.795 -1.4407  0.0792  0.0919
 2368TIP3   OH231298   1.522   1.476  18.096 -0.6241  0.5508  0.0207
 2368TIP3    H131299   1.499   1.406  18.035 -2.3682 -0.6856  1.9595
 2368TIP3    H231300   1.458   1.545  18.079 -1.4807 -0.0311  0.7720
 2369TIP3   OH231301   7.297   6.539  19.528  0.0938  0.3667 -0.5154
 2369TIP3    H131302   7.313   6.452  19.566 -1.0939 -0.7063 -2.3591
 2369TIP3    H231303   7.212   6.565  19.563  0.5230  0.9160  0.1692
 2370TIP3   OH231304   3.684   0.628  17.621  0.2430 -0.0810  0.5609
 2370TIP3    H131305   3.615   0.644  17.687  0.3921  1.5729  0.3655
 2370TIP3    H231306   3.766   0.641  17.669  0.4057 -0.8623  0.5060
 2371TIP3   OH231307   2.950   0.521  19.288 -0.3717  0.3626 -0.5893
 2371TIP3    H131308   2.983   0.611  19.279 -0.2344  0.3644 -0.0780
 2371TIP3    H231309   3.028   0.468  19.302 -0.4113  0.0990 -1.2900
 2372TIP3   OH231310   2.687   1.001  17.719  0.0429  0.1385 -0.2670
 2372TIP3    H131311   2.597   0.974  17.700 -0.1806  0.4991  0.2330
 2372TIP3    H231312   2.741   0.948  17.661 -0.5103  0.1133 -0.7708
 2373TIP3   OH231313   6.453   1.386  16.507  0.0763 -0.3409  0.0750
 2373TIP3    H131314   6.488   1.331  16.436  0.1056 -0.0487 -0.1364
 2373TIP3    H231315   6.454   1.328  16.583  0.0246 -0.6654 -0.1644
 2374TIP3   OH231316   2.292   0.405  19.241 -0.5291  0.7731 -0.1495
 2374TIP3    H131317   2.285   0.470  19.311 -0.2941  1.0150 -0.3516
 2374TIP3    H231318   2.206   0.406  19.199 -1.0871 -0.2413  0.8914
 2375TIP3   OH231319   4.910   2.335  19.405  0.4614  0.0593 -0.5007
 2375TIP3    H131320   4.988   2.335  19.460 -0.1767 -0.8201  0.4612
 2375TIP3    H231321   4.867   2.251  19.425 -3.3136  2.3905  2.7953
 2376TIP3   OH231322   6.608   7.032  18.998  0.0019  0.3267  0.1880
 2376TIP3    H131323   6.584   7.087  18.924 -1.3288  0.7192  0.8896
 2376TIP3    H231324   6.596   6.942  18.966  0.0776  0.4778 -0.2667
 2377TIP3   OH231325   6.606   4.688  16.683  0.5550 -0.2989 -0.2075
 2377TIP3    H131326   6.608   4.750  16.611 -0.0527 -0.0833 -0.0491
 2377TIP3    H231327   6.698   4.672  16.705  0.7281 -0.0146 -0.7211
 2378TIP3   OH231328   3.371   6.222  16.848 -0.3852  0.0493  0.3159
 2378TIP3    H131329   3.281   6.204  16.873 -0.1727  1.4348  2.2791
 2378TIP3    H231330   3.417   6.139  16.863 -0.3986  0.5944  4.1922
 2379TIP3   OH231331   5.470   0.354  19.612  0.2481  0.1092  0.7607
 2379TIP3    H131332   5.551   0.311  19.638 -0.0111  0.5475  2.4174
 2379TIP3    H231333   5.402   0.290  19.629  0.3591 -1.0584 -2.6408
 2380TIP3   OH231334   0.610   5.513  18.354  0.1537  0.2658  0.3357
 2380TIP3    H131335   0.515   5.522  18.356  0.0523 -0.6133 -0.1487
 2380TIP3    H231336   0.637   5.533  18.444 -0.5493 -0.1283  0.6468
 2381TIP3   OH231337   4.322   3.707  19.300  0.1843  0.5309 -0.0465
 2381TIP3    H131338   4.301   3.630  19.353 -0.1680  2.7327  3.2954
 2381TIP3    H231339   4.417   3.702  19.286  0.3128 -0.0463  0.9686
 2382TIP3   OH231340   2.427   3.870  17.178 -0.1001 -1.0193  0.6611
 2382TIP3    H131341   2.347   3.818  17.170 -0.6827 -0.2657  1.4066
 2382TIP3    H231342   2.454   3.887  17.088 -2.7239  1.6339  0.2299
 2383TIP3   OH231343   6.504   3.621  18.151 -0.4899  0.1650 -0.2302
 2383TIP3    H131344   6.496   3.692  18.088  1.1583  0.3300 -0.3105
 2383TIP3    H231345   6.535   3.547  18.099  1.9252  0.5848  0.4711
 2384TIP3   OH231346   4.461   1.110  19.484  0.1356  0.1716 -0.2813
 2384TIP3    H131347   4.422   1.038  19.434  0.9582 -1.0401  0.7607
 2384TIP3    H231348   4.531   1.070  19.534 -0.6722  1.2901  1.9017
 2385TIP3   OH231349   7.530   6.697  18.973 -0.7693  0.0424 -0.0323
 2385TIP3    H131350   7.604   6.747  19.008 -1.5573  2.3423 -1.4513
 2385TIP3    H231351   7.568   6.611  18.952  0.6575 -0.0321  2.4178
 2386TIP3   OH231352   5.385   6.585  17.901 -0.0619 -0.2665  0.2078
 2386TIP3    H131353   5.335   6.654  17.858 -0.6440  0.4671  1.9764
 2386TIP3    H231354   5.320   6.537  17.953  0.3670 -2.0381 -0.7883
 2387TIP3   OH231355   3.769   0.748  17.225  0.1649  0.1444  0.0792
 2387TIP3    H131356   3.770   0.741  17.129  0.7658  2.0306 -0.1032
 2387TIP3    H231357   3.700   0.688  17.253 -0.9894  0.5796 -1.6516
 2388TIP3   OH231358   5.931   1.153  19.192  0.0811 -0.1049 -0.1253
 2388TIP3    H131359   5.991   1.138  19.265 -0.9860  1.8768  1.2700
 2388TIP3    H231360   5.983   1.200  19.127  1.0446 -1.8863 -0.6760
 2389TIP3   OH231361   2.949   4.279  17.790 -0.0221  0.4453  0.1270
 2389TIP3    H131362   2.970   4.188  17.772  1.1800  1.0003 -1.5725
 2389TIP3    H231363   2.871   4.276  17.845  0.0696 -1.5871  0.2085
 2390TIP3   OH231364   7.225   7.107  16.488 -0.0595 -0.0790 -0.2534
 2390TIP3    H131365   7.231   7.024  16.442  1.3683 -0.7329  1.0307
 2390TIP3    H231366   7.315   7.136  16.497 -0.2966  0.1493  1.8539
 2391TIP3   OH231367   4.386   2.931  18.568 -0.5776  0.6818  0.1891
 2391TIP3    H131368   4.447   2.859  18.585 -1.0435 -0.4051 -2.2529
 2391TIP3    H231369   4.410   2.963  18.481 -1.9842  1.8247  0.1697
 2392TIP3   OH231370   3.973   2.379  18.022 -0.1480  0.2485  0.4670
 2392TIP3    H131371   3.904   2.353  17.961 -0.0951 -2.4717  1.4501
 2392TIP3    H231372   4.053   2.346  17.982  0.2273  0.7371  0.8031
 2393TIP3   OH231373   6.484   6.206  18.306  0.1402  0.4189 -0.7428
 2393TIP3    H131374   6.454   6.296  18.292  1.0232  0.6861 -0.9817
 2393TIP3    H231375   6.434   6.155  18.242 -0.8233  0.6341 -0.1800
 2394TIP3   OH231376   3.108   4.449  16.923 -0.0132 -0.3309 -0.0946
 2394TIP3    H131377   3.095   4.398  16.843  0.8290 -1.1751  0.2866
 2394TIP3    H231378   3.025   4.441  16.971  0.0609 -1.2589 -0.0993
 2395TIP3   OH231379   2.573   5.863  18.942 -0.5070  0.0262 -0.2481
 2395TIP3    H131380   2.555   5.957  18.951  0.1322  0.4477 -2.6505
 2395TIP3    H231381   2.615   5.839  19.024  0.0405  2.0402  0.1214
 2396TIP3   OH231382   2.227   3.755  19.299  0.0354  0.1461  0.8355
 2396TIP3    H131383   2.296   3.791  19.355 -0.4427  1.1490  0.8015
 2396TIP3    H231384   2.160   3.723  19.361  0.6732 -1.1917  0.8809
 2397TIP3   OH231385   0.422   1.228  17.276 -0.0799  0.0792  0.4592
 2397TIP3    H131386   0.487   1.175  17.322  0.7119 -0.6434 -1.3984
 2397TIP3    H231387   0.460   1.242  17.189 -2.5298 -0.6831 -0.8340
 2398TIP3   OH231388   1.542   2.614  18.154  0.4943  0.4103  0.2319
 2398TIP3    H131389   1.572   2.583  18.239 -0.5187  2.7591  1.5451
 2398TIP3    H231390   1.447   2.625  18.165  0.0551 -0.8593 -1.7762
 2399TIP3   OH231391   6.353   2.179  18.091  0.3981  0.2202  0.2717
 2399TIP3    H131392   6.301   2.159  18.168 -2.0025 -0.7913 -1.4904
 2399TIP3    H231393   6.406   2.101  18.077  2.0473  1.0015  1.6879
 2400TIP3   OH231394   0.571   0.013  19.124 -0.3098  0.2375 -0.2838
 2400TIP3    H131395   0.548   0.045  19.037 -0.5571  2.3755  0.4999
 2400TIP3    H231396   0.488   0.014  19.172 -0.0702 -0.2871  0.1497
 2401TIP3   OH231397   2.546   6.559  19.098  0.4016 -1.0537  0.1802
 2401TIP3    H131398   2.475   6.623  19.089  0.0473 -1.5966 -1.2501
 2401TIP3    H231399   2.525   6.491  19.034  1.3071 -2.1006  0.9555
 2402TIP3   OH231400   1.295   2.793  18.589  0.3985  0.2698 -0.1061
 2402TIP3    H131401   1.388   2.779  18.605 -0.2925 -1.8581  2.6097
 2402TIP3    H231402   1.276   2.877  18.631  1.2029  1.2088 -1.5195
 2403TIP3   OH231403   4.969   1.424  17.950  0.0469 -0.0355  0.5066
 2403TIP3    H131404   5.028   1.453  17.881 -2.1433  0.6296 -1.1756
 2403TIP3    H231405   4.999   1.470  18.028  1.2142  0.9451 -0.4922
 2404TIP3   OH231406   5.165   4.746  17.628  0.2574 -0.0307  0.4122
 2404TIP3    H131407   5.208   4.821  17.671 -1.1983  0.6984  0.6895
 2404TIP3    H231408   5.093   4.724  17.687  0.5928 -1.6140  0.2740
 2405TIP3   OH231409   3.683   5.925  17.914 -0.4497  0.0905  0.0388
 2405TIP3    H131410   3.650   5.841  17.945 -0.3498 -0.5030 -1.3670
 2405TIP3    H231411   3.671   5.984  17.988 -4.0784 -0.2083 -0.1040
 2406TIP3   OH231412   6.289   6.950  16.625  0.3127 -0.2524 -0.0898
 2406TIP3    H131413   6.336   6.867  16.639 -1.1340 -0.8604  1.4573
 2406TIP3    H231414   6.243   6.966  16.708  2.1893  3.2246  0.4518
 2407TIP3   OH231415   1.652   3.564  17.228  0.3885  0.0878  0.2021
 2407TIP3    H131416   1.591   3.626  17.189  1.3336  2.5235  2.3372
 2407TIP3    H231417   1.689   3.516  17.154  1.4191  3.7676 -1.8635
 2408TIP3   OH231418   7.278   4.173  19.004  0.3567 -0.3645  0.5583
 2408TIP3    H131419   7.312   4.262  19.017 -0.3935 -0.2651  2.1385
 2408TIP3    H231420   7.209   4.183  18.939  0.5356  0.1512  0.4426
 2409TIP3   OH231421   2.030   3.825  17.384  0.5928 -0.3691 -0.1525
 2409TIP3    H131422   2.006   3.828  17.291  2.3663 -1.2283 -0.6904
 2409TIP3    H231423   2.066   3.911  17.402 -2.3248  0.8233  0.5802
 2410TIP3   OH231424   6.297   4.375  17.400  0.2508 -0.1282 -0.4266
 2410TIP3    H131425   6.275   4.317  17.473 -1.5904  0.0954 -0.7495
 2410TIP3    H231426   6.268   4.328  17.322 -0.4786  0.8480 -0.7616
 2411TIP3   OH231427   5.663   0.955  18.312 -0.2415 -0.0954 -0.5492
 2411TIP3    H131428   5.716   1.032  18.292 -0.6097 -0.0119 -1.2146
 2411TIP3    H231429   5.710   0.882  18.272  0.1259 -0.2356  0.1127
 2412TIP3   OH231430   1.163   4.558  18.204  0.0495  0.4032  0.4068
 2412TIP3    H131431   1.256   4.537  18.211  0.1961  0.2385 -1.4175
 2412TIP3    H231432   1.135   4.516  18.122 -1.4048  1.2171  0.4427
 2413TIP3   OH231433   6.283   4.391  18.347  0.0904  0.7198 -0.1003
 2413TIP3    H131434   6.287   4.362  18.256  1.4104  1.2348 -0.2395
 2413TIP3    H231435   6.363   4.356  18.387 -0.8358 -0.1263  1.0706
 2414TIP3   OH231436   5.346   2.722  18.157  0.2633  0.6908  0.1122
 2414TIP3    H131437   5.290   2.695  18.084 -0.9057 -0.8526  1.5106
 2414TIP3    H231438   5.425   2.757  18.115  0.0182 -0.9625 -1.8768
 2415TIP3   OH231439   4.383   4.291  19.055  0.5318  0.1161  0.0464
 2415TIP3    H131440   4.336   4.225  19.005 -1.5615  0.3537  1.5484
 2415TIP3    H231441   4.466   4.250  19.078 -0.6599 -2.0097  0.8638
 2416TIP3   OH231442   6.520   5.468  17.185 -0.0822  0.5559  0.0700
 2416TIP3    H131443   6.436   5.507  17.160 -0.2263 -0.1240 -0.5205
 2416TIP3    H231444   6.523   5.385  17.138  0.1358 -0.2664  1.4672
 2417TIP3   OH231445   0.496   0.806  18.585  0.1430 -0.0502  0.1654
 2417TIP3    H131446   0.417   0.844  18.545  0.1703  1.4399  1.4357
 2417TIP3    H231447   0.543   0.881  18.621  0.7067 -1.1876  1.9247
 2418TIP3   OH231448   1.580   1.517  18.702 -0.5822  0.0388 -0.0674
 2418TIP3    H131449   1.610   1.426  18.699  1.6711  0.6700  0.9918
 2418TIP3    H231450   1.592   1.542  18.794 -3.3745  0.7528  0.1645
 2419TIP3   OH231451   7.128   1.155  17.792 -0.3487  0.3601 -0.3544
 2419TIP3    H131452   7.209   1.122  17.830 -0.4908 -0.2121 -0.5455
 2419TIP3    H231453   7.110   1.235  17.841  1.3465  1.5583 -1.5777
 2420TIP3   OH231454   4.019   4.551  19.275 -0.2919 -0.1966  0.2334
 2420TIP3    H131455   3.930   4.577  19.300 -0.2178  0.5171 -0.2113
 2420TIP3    H231456   4.013   4.457  19.261 -1.0388 -0.1200 -0.0330
 2421TIP3   OH231457   4.702   6.285  18.878  0.4530 -0.0276 -0.7436
 2421TIP3    H131458   4.760   6.334  18.937  1.4033 -0.4877 -1.2813
 2421TIP3    H231459   4.649   6.231  18.936 -1.2929  2.2683 -0.0458
 2422TIP3   OH231460   3.508   2.105  18.436 -0.0447 -0.1613  0.1476
 2422TIP3    H131461   3.516   2.178  18.375  1.8029 -0.5365 -0.1474
 2422TIP3    H231462   3.517   2.027  18.380  0.0934 -0.5504  0.7058
 2423TIP3   OH231463   1.135   0.405  19.448  0.3977 -0.1481  0.1384
 2423TIP3    H131464   1.103   0.445  19.367  0.5887 -1.4642 -0.6193
 2423TIP3    H231465   1.099   0.460  19.517  0.4899  1.1990 -0.8388
 2424TIP3   OH231466   3.337   7.524  17.372  0.3784 -0.2652  0.0933
 2424TIP3    H131467   3.275   7.511  17.443 -0.7551 -1.3106 -1.0471
 2424TIP3    H231468   3.384   7.441  17.364  1.7508  0.4048  0.7244
 2425TIP3   OH231469   5.041   0.655  19.028 -0.1312  0.4834  0.0136
 2425TIP3    H131470   5.046   0.747  19.052 -0.8650  0.3047  0.9219
 2425TIP3    H231471   4.947   0.635  19.030 -0.3172  0.5077 -3.3016
 2426TIP3   OH231472   6.487   5.237  18.134 -0.2471  0.1709 -0.0627
 2426TIP3    H131473   6.529   5.233  18.048  0.4205 -0.6200  0.2914
 2426TIP3    H231474   6.438   5.154  18.140 -1.4734  0.8518 -0.2564
 2427TIP3   OH231475   2.144   7.455  17.761 -0.0280 -0.0175  0.1847
 2427TIP3    H131476   2.059   7.498  17.752  0.8388  1.4954 -1.3183
 2427TIP3    H231477   2.142   7.385  17.695 -0.3378 -0.4232  0.6163
 2428TIP3   OH231478   6.380   3.038  17.692  0.7506 -0.1693 -0.7427
 2428TIP3    H131479   6.423   2.956  17.717 -0.8968 -0.5670  0.9838
 2428TIP3    H231480   6.345   3.021  17.605 -0.0137 -1.5138 -0.2025
 2429TIP3   OH231481   4.916   6.908  17.052 -0.0602  0.3496  0.3278
 2429TIP3    H131482   4.848   6.893  17.119  0.1904 -0.9923  0.3178
 2429TIP3    H231483   4.997   6.918  17.103  0.5485 -2.9571  0.2852
 2430TIP3   OH231484   6.133   7.352  18.993  0.5280 -0.2816  0.2107
 2430TIP3    H131485   6.106   7.423  19.051  0.5056  0.3362 -0.5357
 2430TIP3    H231486   6.096   7.273  19.033 -2.7281  0.5155 -0.8876
 2431TIP3   OH231487   7.660   3.605  17.151 -0.4554 -0.2084  0.3722
 2431TIP3    H131488   7.735   3.614  17.092  0.4849 -0.2774  1.5289
 2431TIP3    H231489   7.698   3.583  17.236 -1.7158  0.6865  1.2116
 2432TIP3   OH231490   2.550   1.677  17.161  0.1586 -0.0340  0.2992
 2432TIP3    H131491   2.562   1.767  17.130  0.6592 -0.1023  0.2847
 2432TIP3    H231492   2.456   1.662  17.155  0.1639  0.2093 -0.4670
 2433TIP3   OH231493   5.533   1.780  18.286 -0.1358 -0.1171  0.2718
 2433TIP3    H131494   5.606   1.725  18.313  2.2663  2.2147 -1.0146
 2433TIP3    H231495   5.549   1.864  18.329 -1.3422  0.8561 -1.0691
 2434TIP3   OH231496   6.830   5.326  18.412  0.3360 -0.0915  0.7141
 2434TIP3    H131497   6.880   5.257  18.455  0.0107  0.3357  1.8161
 2434TIP3    H231498   6.894   5.395  18.395  0.7093 -0.7333 -0.5995
 2435TIP3   OH231499   6.195   0.541  19.429  0.3290 -0.0389 -0.5120
 2435TIP3    H131500   6.218   0.610  19.368  1.0452 -0.6470 -0.9394
 2435TIP3    H231501   6.234   0.568  19.512 -0.7254  0.8327 -0.2834
 2436TIP3   OH231502   1.962   6.807  19.039 -0.2882  0.1578 -0.4916
 2436TIP3    H131503   1.952   6.807  18.944  0.9812  0.3382 -0.6402
 2436TIP3    H231504   1.943   6.897  19.066  0.6469  0.4302 -0.7313
 2437TIP3   OH231505   4.329   4.778  17.702  0.2614  0.0997 -0.1960
 2437TIP3    H131506   4.360   4.688  17.691  0.3965  0.2304 -0.8577
 2437TIP3    H231507   4.381   4.812  17.775 -0.8726 -0.8597  1.1183
 2438TIP3   OH231508   4.521   5.670  19.140 -0.1829  0.1387 -0.5008
 2438TIP3    H131509   4.468   5.590  19.141 -0.0810  0.0661  1.1785
 2438TIP3    H231510   4.467   5.734  19.186  0.5418  0.4955 -0.1405
 2439TIP3   OH231511   6.418   5.489  18.528  0.3431  0.6404 -0.4209
 2439TIP3    H131512   6.471   5.412  18.551 -0.7194  0.5077  1.8781
 2439TIP3    H231513   6.473   5.563  18.550 -0.5540  0.5137  2.7483
 2440TIP3   OH231514   5.016   0.723  17.062  0.1554  0.2675 -0.0513
 2440TIP3    H131515   4.995   0.806  17.104  0.4757  0.1355  0.3760
 2440TIP3    H231516   4.954   0.717  16.989  0.1058  0.8613 -0.0657
 2441TIP3   OH231517   5.990   5.794  18.456 -0.3674 -0.1842 -0.1761
 2441TIP3    H131518   5.993   5.755  18.368 -0.2856 -0.4069 -0.0749
 2441TIP3    H231519   5.912   5.849  18.455  0.2945  0.7726 -0.7951
 2442TIP3   OH231520   0.296   2.849  19.010 -0.4388 -0.2383  0.1803
 2442TIP3    H131521   0.373   2.815  19.055 -0.2598 -0.1743 -0.0762
 2442TIP3    H231522   0.319   2.844  18.917  0.3588  2.4077  0.1689
 2443TIP3   OH231523   4.894   1.627  19.051  0.3125 -0.2510 -0.0415
 2443TIP3    H131524   4.860   1.538  19.046  0.8154 -0.3913 -1.1521
 2443TIP3    H231525   4.988   1.617  19.042  0.3604  0.4078 -0.2880
 2444TIP3   OH231526   3.821   5.833  18.493  0.1186 -0.2330  0.1041
 2444TIP3    H131527   3.885   5.904  18.499  1.5863 -1.5370  0.3141
 2444TIP3    H231528   3.768   5.856  18.417 -1.0429  2.3240  1.5399
 2445TIP3   OH231529   2.328   3.749  17.681  0.3861 -0.0950  0.4122
 2445TIP3    H131530   2.295   3.839  17.688  1.6697  0.3556  0.9841
 2445TIP3    H231531   2.331   3.733  17.586 -1.3740 -0.1516  0.3325
 2446TIP3   OH231532   0.429   1.858  17.500 -0.0491 -0.3295  0.2357
 2446TIP3    H131533   0.427   1.770  17.462  0.9951 -0.3680  0.2372
 2446TIP3    H231534   0.512   1.860  17.549  0.5433  1.0734 -0.7836
 2447TIP3   OH231535   4.139   2.831  18.635 -0.6720 -0.5778 -0.1562
 2447TIP3    H131536   4.229   2.852  18.609 -0.4493 -1.0306  0.2276
 2447TIP3    H231537   4.149   2.771  18.709 -1.2932 -0.9604 -0.3756
 2448TIP3   OH231538   6.926   3.540  17.948 -0.2900  0.0164  0.0033
 2448TIP3    H131539   6.903   3.501  17.863  0.8022  1.7877 -1.1787
 2448TIP3    H231540   6.863   3.610  17.961 -1.7340 -1.5014  1.7191
 2449TIP3   OH231541   3.126   7.208  17.304 -0.8363 -0.2191  0.3961
 2449TIP3    H131542   3.041   7.250  17.297 -1.3944 -1.2867  0.4588
 2449TIP3    H231543   3.112   7.120  17.268  0.1361 -0.5398  0.7698
 2450TIP3   OH231544   1.930   2.559  18.824 -0.1254  0.3428 -0.2579
 2450TIP3    H131545   1.857   2.551  18.885  0.9271  1.2529  1.2021
 2450TIP3    H231546   1.996   2.609  18.873  1.2138  0.1043 -1.7493
 2451TIP3   OH231547   6.748   6.525  19.347 -0.1270  0.2311 -0.2111
 2451TIP3    H131548   6.667   6.563  19.313 -0.2676  1.2415  1.1989
 2451TIP3    H231549   6.719   6.448  19.396 -0.1355  0.0667 -0.4704
 2452TIP3   OH231550   0.428   0.900  19.841  0.4745 -0.1556 -0.7783
 2452TIP3    H131551   0.349   0.904  19.787  0.5168 -0.3859 -0.8609
 2452TIP3    H231552   0.416   0.820  19.893 -1.3290  1.8953  2.2820
 2453TIP3   OH231553   0.230   7.194  17.154  0.0777  0.4561 -0.2035
 2453TIP3    H131554   0.266   7.281  17.138 -0.6645  0.5830 -1.2818
 2453TIP3    H231555   0.206   7.162  17.068 -0.7598 -0.3342  0.3045
 2454TIP3   OH231556   1.319   1.765  18.728 -0.6218  0.2966  0.1509
 2454TIP3    H131557   1.295   1.742  18.818 -1.0054  1.1026  0.2681
 2454TIP3    H231558   1.301   1.686  18.677 -0.2989 -0.2030  0.7938
 2455TIP3   OH231559   7.295   3.583  18.376 -0.0186 -0.1564  0.1222
 2455TIP3    H131560   7.374   3.534  18.352  0.2646  1.7852 -3.8777
 2455TIP3    H231561   7.233   3.517  18.406  2.2043 -2.0941  0.7506
 2456TIP3   OH231562   0.833   4.267  18.771  0.1916 -0.1182 -0.0732
 2456TIP3    H131563   0.755   4.214  18.750  0.3111 -0.4834  0.3821
 2456TIP3    H231564   0.848   4.320  18.693 -0.6416  0.1100 -0.0898
 2457TIP3   OH231565   0.570   4.150  18.712  0.2777 -0.0720 -0.0790
 2457TIP3    H131566   0.560   4.202  18.792 -0.4199 -0.4165  0.0682
 2457TIP3    H231567   0.487   4.102  18.704  0.9417 -1.2494 -0.1396
 2458TIP3   OH231568   4.374   5.841  17.385  0.1576  0.0821 -0.2027
 2458TIP3    H131569   4.395   5.869  17.473 -0.0329  3.4630 -1.0928
 2458TIP3    H231570   4.458   5.816  17.347  0.9104  2.2771 -0.1487
 2459TIP3   OH231571   1.095   2.540  17.893 -0.5483 -0.7979  1.2725
 2459TIP3    H131572   1.121   2.628  17.921  0.4608 -1.0224  1.0672
 2459TIP3    H231573   1.176   2.499  17.863 -0.9297 -1.9478  1.7453
 2460TIP3   OH231574   0.054   5.470  18.603 -0.0321  0.2190 -0.6624
 2460TIP3    H131575   0.132   5.516  18.571 -0.1544 -0.0199 -1.3198
 2460TIP3    H231576   0.079   5.439  18.690  0.0560  1.5129 -0.1936
 2461TIP3   OH231577   3.642   3.119  19.338 -0.1803 -0.5824  0.5961
 2461TIP3    H131578   3.710   3.063  19.375  0.0986 -0.1488  0.7479
 2461TIP3    H231579   3.689   3.179  19.281 -0.1794  0.9135  2.0923
 2462TIP3   OH231580   4.957   7.148  17.420  0.4388 -0.3735  0.5058
 2462TIP3    H131581   4.867   7.118  17.426  0.5017 -0.9593 -1.0279
 2462TIP3    H231582   5.009   7.077  17.459  0.3189 -0.5553  0.3320
 2463TIP3   OH231583   3.995   6.905  18.507  0.2263  0.0519  0.2717
 2463TIP3    H131584   4.029   6.917  18.418  1.1518  1.1175  0.7385
 2463TIP3    H231585   4.022   6.985  18.553 -2.0327  0.4859  0.9669
 2464TIP3   OH231586   6.657   7.132  18.473 -0.8213 -0.1636 -0.2061
 2464TIP3    H131587   6.676   7.120  18.380 -0.7843  2.2414 -0.5694
 2464TIP3    H231588   6.562   7.141  18.477 -0.8296 -0.3317  0.0074
 2465TIP3   OH231589   5.986   4.406  17.187  0.1107 -0.5059  0.4011
 2465TIP3    H131590   5.950   4.473  17.130  0.8524  1.1568  1.8182
 2465TIP3    H231591   6.079   4.405  17.169  0.1522 -0.9613  0.6039
 2466TIP3   OH231592   6.811   1.075  18.186  0.3406  0.5568  0.0438
 2466TIP3    H131593   6.777   0.991  18.217 -0.9559  1.6881  1.9172
 2466TIP3    H231594   6.746   1.104  18.122 -0.1834  0.9285  0.7292
 2467TIP3   OH231595   6.962   5.748  18.579 -0.6326 -0.0273  1.0117
 2467TIP3    H131596   6.990   5.731  18.489 -2.3639  0.6949  0.2765
 2467TIP3    H231597   6.992   5.672  18.629 -0.7402 -1.0594 -0.4347
 2468TIP3   OH231598   5.566   6.876  17.265  0.1555  0.6858  0.0891
 2468TIP3    H131599   5.480   6.853  17.229  0.2755 -1.3252  0.9265
 2468TIP3    H231600   5.550   6.891  17.358  0.7873 -0.3976  0.3929
 2469TIP3   OH231601   1.758   6.400  17.546 -0.3605 -0.1624 -0.4047
 2469TIP3    H131602   1.680   6.438  17.505 -0.2205 -1.0739 -1.5782
 2469TIP3    H231603   1.808   6.364  17.473  0.9613  0.0297  0.3822
 2470TIP3   OH231604   2.835   5.866  17.424  0.3171 -0.4234  0.2581
 2470TIP3    H131605   2.748   5.907  17.422  0.4399 -0.1176  0.8432
 2470TIP3    H231606   2.817   5.772  17.423  0.0731 -0.4769 -3.4340
 2471TIP3   OH231607   5.110   0.402  19.161 -0.5375  0.3796 -0.3957
 2471TIP3    H131608   5.194   0.416  19.205 -0.7668  1.7126 -0.3422
 2471TIP3    H231609   5.097   0.482  19.109 -0.8242 -0.6665 -1.9971
 2472TIP3   OH231610   1.447   6.839  19.121  0.0561  0.2432 -0.1242
 2472TIP3    H131611   1.502   6.879  19.189  1.3983 -0.8971 -0.4886
 2472TIP3    H231612   1.463   6.745  19.130 -2.1348 -0.1698 -0.0293
 2473TIP3   OH231613   0.843   4.788  18.832 -0.3046  0.0996 -0.2516
 2473TIP3    H131614   0.776   4.841  18.788 -0.4618  1.0570  1.0978
 2473TIP3    H231615   0.802   4.703  18.844 -1.1989  0.6004  0.3377
 2474TIP3   OH231616   2.731   1.379  19.438  0.5031  0.2490  0.2368
 2474TIP3    H131617   2.788   1.312  19.400 -0.5224 -0.5966  0.1201
 2474TIP3    H231618   2.656   1.383  19.379 -0.5802 -0.2561  1.4991
 2475TIP3   OH231619   6.564   1.564  17.284  0.2359 -0.1975 -0.0447
 2475TIP3    H131620   6.621   1.640  17.285  0.0539 -0.0571 -0.4273
 2475TIP3    H231621   6.493   1.586  17.224  0.2680 -0.7292 -0.2886
 2476TIP3   OH231622   6.140   4.776  18.321  0.0670  0.6391  0.1685
 2476TIP3    H131623   6.092   4.808  18.397 -1.0322 -0.5074 -0.0119
 2476TIP3    H231624   6.170   4.688  18.346  2.4091  1.4127  0.3969
 2477TIP3   OH231625   5.888   0.874  19.060  0.0556  0.3063  0.0091
 2477TIP3    H131626   5.936   0.929  19.122 -0.0067  1.1818 -0.7053
 2477TIP3    H231627   5.956   0.831  19.008  0.1595  3.1424 -2.4135
 2478TIP3   OH231628   6.081   6.782  17.731  0.0257 -0.3376 -0.7420
 2478TIP3    H131629   5.995   6.751  17.758  1.2795 -1.7189  2.1213
 2478TIP3    H231630   6.093   6.865  17.778  0.4209 -0.4053 -0.7142
 2479TIP3   OH231631   1.046   6.711  17.826  0.1769 -0.0110  0.3582
 2479TIP3    H131632   1.041   6.785  17.887 -0.1719  0.1967  0.0833
 2479TIP3    H231633   0.987   6.736  17.754  0.3157 -0.4079  0.1061
 2480TIP3   OH231634   7.336   3.733  18.942 -0.0081 -0.0015  0.2131
 2480TIP3    H131635   7.296   3.773  19.019  0.3043  0.2434  0.2499
 2480TIP3    H231636   7.339   3.803  18.877  1.6346  0.4063  0.6706
 2481TIP3   OH231637   3.482   1.250  16.772 -0.1381  0.5118  0.5613
 2481TIP3    H131638   3.465   1.300  16.692 -0.5739 -0.7399 -0.1459
 2481TIP3    H231639   3.517   1.167  16.742  0.1527  0.2027  1.7020
 2482TIP3   OH231640   3.567   1.360  17.523  0.2315 -0.0292 -0.2017
 2482TIP3    H131641   3.638   1.419  17.545 -0.0834  0.4570 -0.4735
 2482TIP3    H231642   3.609   1.284  17.482  0.6424 -0.0303  0.2235
 2483TIP3   OH231643   6.356   3.555  16.785 -0.0805 -0.0927 -0.1248
 2483TIP3    H131644   6.417   3.587  16.718  0.7436 -0.2636  0.5243
 2483TIP3    H231645   6.269   3.575  16.750  0.3602  0.7315 -0.7850
 2484TIP3   OH231646   1.250   4.810  18.461 -0.5756 -0.3759 -0.4825
 2484TIP3    H131647   1.177   4.802  18.522 -0.2114 -0.0887 -0.0075
 2484TIP3    H231648   1.293   4.725  18.464 -1.5492 -0.9482 -1.6281
 2485TIP3   OH231649   1.976   3.930  17.134  0.6433 -0.3858  0.0902
 2485TIP3    H131650   2.014   3.878  17.063 -0.3687  0.2761 -0.9890
 2485TIP3    H231651   2.029   4.010  17.136  0.9310 -0.5815  0.3699
 2486TIP3   OH231652   4.484   7.330  19.145 -0.3538  0.5981  0.3493
 2486TIP3    H131653   4.500   7.407  19.199  1.5756  0.9266 -0.6019
 2486TIP3    H231654   4.565   7.318  19.095  0.0107 -2.9008  1.5042
 2487TIP3   OH231655   5.980   6.491  18.510 -0.3970  0.2422 -0.4748
 2487TIP3    H131656   5.963   6.585  18.504 -0.0641  0.2139 -2.6565
 2487TIP3    H231657   5.893   6.451  18.507 -0.6387  0.4618  1.7919
 2488TIP3   OH231658   2.927   3.164  19.466  1.0472  0.2057  0.3658
 2488TIP3    H131659   2.973   3.198  19.542  0.0396  1.5582  0.4047
 2488TIP3    H231660   2.868   3.235  19.440 -1.6381 -1.7091  0.8393
 2489TIP3   OH231661   1.243   0.866  17.166  0.4259 -0.0953 -0.2492
 2489TIP3    H131662   1.277   0.831  17.249 -0.0384 -0.2334 -0.1156
 2489TIP3    H231663   1.199   0.947  17.190 -0.3053 -0.4819 -0.2543
 2490TIP3   OH231664   4.671   7.256  16.656  0.1806 -0.2360  0.1788
 2490TIP3    H131665   4.606   7.187  16.661  0.5024 -0.6480 -1.0025
 2490TIP3    H231666   4.661   7.305  16.738 -2.3722  0.3940 -0.4424
 2491TIP3   OH231667   4.412   1.068  17.307  0.1312  0.0295  0.2323
 2491TIP3    H131668   4.373   1.014  17.239  0.2883 -1.0898  1.0005
 2491TIP3    H231669   4.374   1.035  17.389  1.1810  0.2482  0.8346
 2492TIP3   OH231670   0.398   0.914  19.241  0.1031 -0.5233  0.1060
 2492TIP3    H131671   0.357   0.899  19.156 -1.9893 -0.0064  0.9556
 2492TIP3    H231672   0.427   1.005  19.238  2.1057 -1.1346 -0.8123
 2493TIP3   OH231673   6.006   5.336  17.585 -0.6353  0.1490 -0.6098
 2493TIP3    H131674   6.081   5.315  17.641 -1.2432  0.2746  0.2844
 2493TIP3    H231675   6.035   5.313  17.497  0.1908 -0.5013 -0.1927
 2494TIP3   OH231676   0.497   6.342  17.792  0.0009  0.3834  1.0924
 2494TIP3    H131677   0.474   6.385  17.710  0.2408 -0.2018  0.7075
 2494TIP3    H231678   0.430   6.371  17.854 -0.0060  1.0685  0.7690
 2495TIP3   OH231679   5.743   1.910  18.021 -0.1595 -0.1166 -0.4952
 2495TIP3    H131680   5.663   1.874  17.981  0.1545 -0.0224 -1.2311
 2495TIP3    H231681   5.802   1.835  18.026 -0.4583 -0.2954  0.5074
 2496TIP3   OH231682   6.079   4.043  19.083 -0.3145  0.4033  0.3329
 2496TIP3    H131683   6.101   3.963  19.037 -0.7766 -0.7509  2.0186
 2496TIP3    H231684   6.053   4.104  19.014  3.0128  0.1964 -1.3056
 2497TIP3   OH231685   5.799   4.169  17.999 -0.3485  0.3597 -0.0605
 2497TIP3    H131686   5.779   4.171  18.092 -0.3197  2.2429 -0.0528
 2497TIP3    H231687   5.782   4.259  17.969  1.2131  0.2121 -1.5231
 2498TIP3   OH231688   3.364   0.419  18.369 -0.6335  0.2078  0.1193
 2498TIP3    H131689   3.403   0.463  18.293  0.7473  0.3869  0.9048
 2498TIP3    H231690   3.270   0.439  18.362 -0.4022  1.0308 -1.0046
 2499TIP3   OH231691   2.065   2.783  18.281  0.1913  0.0545  0.1048
 2499TIP3    H131692   2.064   2.691  18.253 -0.7246 -0.5374  1.9474
 2499TIP3    H231693   2.157   2.801  18.301  0.4129 -0.3812 -0.4838
 2500TIP3   OH231694   6.584   6.359  18.011 -0.2620  0.7705  0.5711
 2500TIP3    H131695   6.620   6.439  18.050 -1.0744  1.0989  0.6664
 2500TIP3    H231696   6.491   6.378  17.999 -0.2266  0.2947 -0.5660
 2501TIP3   OH231697   2.427   3.917  19.388 -0.0516  0.7068 -0.0827
 2501TIP3    H131698   2.468   3.965  19.461  0.0467  0.5867 -0.0573
 2501TIP3    H231699   2.451   3.967  19.310  0.7317  0.2634 -0.1427
 2502TIP3   OH231700   7.520   0.515  18.854  0.4101 -0.0028 -0.1293
 2502TIP3    H131701   7.600   0.552  18.892  0.3232 -1.3268  1.4747
 2502TIP3    H231702   7.549   0.472  18.774  1.5987 -1.5770  1.0750
 2503TIP3   OH231703   3.045   1.817  17.700  0.1110  0.0371 -0.1979
 2503TIP3    H131704   2.965   1.821  17.646  0.5984 -0.1037 -0.9478
 2503TIP3    H231705   3.025   1.872  17.776  0.0919  1.8382 -1.4437
 2504TIP3   OH231706   4.227   6.800  19.239 -0.0003 -0.1510  0.2892
 2504TIP3    H131707   4.230   6.838  19.327  0.8030 -1.6351  0.9335
 2504TIP3    H231708   4.136   6.775  19.227 -0.1899  0.3990  0.5302
 2505TIP3   OH231709   1.042   0.150  17.999 -1.0285  0.2306  0.3350
 2505TIP3    H131710   1.026   0.177  17.909 -0.4737 -0.4624  0.0226
 2505TIP3    H231711   1.059   0.232  18.046  2.4681  0.4012 -0.9642
 2506TIP3   OH231712   7.459   2.510  17.300 -0.3161  0.0484 -0.1260
 2506TIP3    H131713   7.373   2.524  17.340 -1.0129 -0.7356 -1.2759
 2506TIP3    H231714   7.470   2.584  17.239  0.0938  0.4649  0.4478
 2507TIP3   OH231715   6.173   3.918  18.265  0.4247 -0.0387 -0.2404
 2507TIP3    H131716   6.081   3.937  18.245  0.5070 -0.6114 -1.2460
 2507TIP3    H231717   6.196   3.980  18.334 -0.3567  1.0121 -0.8833
 2508TIP3   OH231718   3.395   7.237  17.266  0.3459 -0.0948  0.5395
 2508TIP3    H131719   3.408   7.150  17.228  0.5537  0.3183 -0.3436
 2508TIP3    H231720   3.308   7.233  17.305 -0.6876  0.0691 -1.6460
 2509TIP3   OH231721   1.259   2.337  19.097  0.5912  0.1148 -0.2928
 2509TIP3    H131722   1.176   2.289  19.096  1.0404 -0.6917 -1.9625
 2509TIP3    H231723   1.280   2.345  19.190 -0.4744 -1.2119  0.1096
 2510TIP3   OH231724   0.119   2.492  18.283  0.2661  0.1083 -0.2498
 2510TIP3    H131725   0.070   2.566  18.319 -1.6593 -1.5916  0.7997
 2510TIP3    H231726   0.130   2.513  18.191 -1.1170  1.2379 -0.1906
 2511TIP3   OH231727   3.647   5.359  19.315 -0.2831 -0.4432 -0.1775
 2511TIP3    H131728   3.717   5.302  19.282  1.2060 -0.3557  2.5835
 2511TIP3    H231729   3.665   5.445  19.277  0.9615 -0.4966  0.2544
 2512TIP3   OH231730   7.282   7.208  17.989 -0.1945  0.3648  0.0865
 2512TIP3    H131731   7.243   7.138  18.042  0.1896  0.0785  0.0008
 2512TIP3    H231732   7.209   7.246  17.941 -0.2841 -0.6001 -0.5683
 2513TIP3   OH231733   3.555   5.333  17.716 -0.2757 -0.3933  0.5368
 2513TIP3    H131734   3.579   5.328  17.623 -0.2872  0.0314  0.5105
 2513TIP3    H231735   3.520   5.422  17.727  1.6936  0.3114  1.4274
 2514TIP3   OH231736   1.531   5.650  16.816 -0.4304  0.0475 -0.8411
 2514TIP3    H131737   1.465   5.599  16.770 -1.2400  0.3451 -0.0511
 2514TIP3    H231738   1.614   5.623  16.778 -0.9715 -0.6765 -1.5349
 2515TIP3   OH231739   5.247   2.516  17.678  0.2384  0.0423  0.2387
 2515TIP3    H131740   5.220   2.496  17.768 -0.1214  0.4813  0.2333
 2515TIP3    H231741   5.176   2.481  17.624 -1.4675  3.0388  0.3270
 2516TIP3   OH231742   7.484   5.316  18.383  0.3672 -0.3985 -0.1712
 2516TIP3    H131743   7.571   5.302  18.420 -0.6288 -0.2511  2.4089
 2516TIP3    H231744   7.477   5.411  18.373  0.4977 -0.4102 -0.3741
 2517TIP3   OH231745   6.501   1.770  19.176  0.3279  0.3617  0.8970
 2517TIP3    H131746   6.578   1.785  19.230  1.2763 -0.7081 -0.1001
 2517TIP3    H231747   6.491   1.851  19.126 -0.0357  1.0232  2.0267
 2518TIP3   OH231748   7.198   0.049  18.499  0.0199 -0.6864  0.8101
 2518TIP3    H131749   7.265  -0.006  18.460  0.6038  0.6243 -0.1041
 2518TIP3    H231750   7.146  -0.011  18.553  2.2187 -1.6478  2.0030
 2519TIP3   OH231751   0.990   4.476  17.494 -0.6167 -0.3615  0.2235
 2519TIP3    H131752   0.945   4.560  17.496 -0.0391 -0.0375 -0.3309
 2519TIP3    H231753   0.944   4.424  17.429 -0.4163 -0.1589 -0.0791
 2520TIP3   OH231754   2.092   5.423  17.425  0.8569 -0.4679 -0.3685
 2520TIP3    H131755   2.091   5.493  17.491  1.8413 -0.2291 -0.6018
 2520TIP3    H231756   2.055   5.347  17.471 -0.6367  0.2904 -0.2335
 2521TIP3   OH231757   6.975   7.252  16.780  0.1250 -0.5609 -0.2007
 2521TIP3    H131758   6.932   7.315  16.838 -0.1806 -1.2702  0.3704
 2521TIP3    H231759   6.999   7.180  16.837 -0.0681 -1.2231 -0.9316
 2522TIP3   OH231760   0.110   4.561  17.269  0.5707  0.4916  0.3209
 2522TIP3    H131761   0.135   4.603  17.351  1.1558  2.7601 -0.9242
 2522TIP3    H231762   0.180   4.585  17.208  0.8201 -2.1770 -0.5805
 2523TIP3   OH231763   5.309   0.688  16.997 -0.3564  0.1656 -0.7783
 2523TIP3    H131764   5.237   0.709  17.057 -0.1448 -1.8341  0.2534
 2523TIP3    H231765   5.381   0.744  17.026  0.1592 -1.6547  1.7725
 2524TIP3   OH231766   1.693   7.550  18.938 -0.0202  0.0610 -0.2159
 2524TIP3    H131767   1.770   7.493  18.938  0.9161  1.2634 -0.3176
 2524TIP3    H231768   1.729   7.637  18.958 -1.3806  0.6294 -0.1529
 2525TIP3   OH231769   0.562   4.346  18.323 -0.0280  0.4074 -0.3876
 2525TIP3    H131770   0.509   4.266  18.316  1.3327 -0.7072  1.2428
 2525TIP3    H231771   0.564   4.381  18.234 -0.7689 -1.3119 -1.1273
 2526TIP3   OH231772   1.107   5.115  17.969  0.4200 -0.0346 -0.6170
 2526TIP3    H131773   1.022   5.116  18.014  1.5035 -1.5240  1.6776
 2526TIP3    H231774   1.095   5.056  17.895 -0.4297 -0.6623  0.0044
 2527TIP3   OH231775   5.243   3.441  16.696 -0.2436  0.5047  0.3562
 2527TIP3    H131776   5.337   3.457  16.689 -0.3133  1.1744  0.8603
 2527TIP3    H231777   5.208   3.469  16.611  0.0253  0.1560  0.1301
 2528TIP3   OH231778   5.777   6.937  16.754  0.0355 -0.0973  0.7182
 2528TIP3    H131779   5.737   6.888  16.682 -0.8203 -1.5139  2.0827
 2528TIP3    H231780   5.853   6.979  16.715 -0.4262 -0.7661 -1.0190
 2529TIP3   OH231781   5.580   0.384  19.295  0.1840  0.4747  0.4977
 2529TIP3    H131782   5.549   0.368  19.385  0.1633  0.0043  0.4061
 2529TIP3    H231783   5.659   0.436  19.307  0.4889 -0.0454  0.8192
 2530TIP3   OH231784   4.657   3.066  18.024  0.5628 -0.1547  0.1031
 2530TIP3    H131785   4.581   3.029  17.980  1.2478 -1.9689  0.3580
 2530TIP3    H231786   4.707   3.109  17.954 -0.6450  1.0185 -0.0700
 2531TIP3   OH231787   2.080   3.877  17.904 -0.1077  0.2178  0.0418
 2531TIP3    H131788   2.008   3.853  17.962  0.8403  0.3564  1.3300
 2531TIP3    H231789   2.054   3.845  17.818 -0.8779 -1.4271  0.8421
 2532TIP3   OH231790   3.816   5.638  16.926 -0.5324  0.9108 -0.4439
 2532TIP3    H131791   3.728   5.600  16.927 -0.4390  0.6997  0.1077
 2532TIP3    H231792   3.872   5.568  16.894 -0.6784  1.3166 -1.6312
 2533TIP3   OH231793   7.285   1.300  17.293  0.2024  0.0309  0.0686
 2533TIP3    H131794   7.254   1.378  17.340  0.6837 -0.1102  0.6401
 2533TIP3    H231795   7.219   1.233  17.312 -0.7929  0.5771 -1.3224
 2534TIP3   OH231796   2.853   3.741  16.764  0.0084  0.4514 -0.3872
 2534TIP3    H131797   2.939   3.757  16.804 -0.3379  0.0235  0.5529
 2534TIP3    H231798   2.864   3.659  16.716  0.6028  1.2827 -1.7404
 2535TIP3   OH231799   2.954   5.777  18.121 -0.0723  0.1362 -0.4391
 2535TIP3    H131800   2.868   5.755  18.157 -0.2551  0.2509 -0.7942
 2535TIP3    H231801   2.941   5.863  18.079  0.2985  0.3064 -0.2118
 2536TIP3   OH231802   3.881   2.965  18.244  0.0943 -0.3681  0.1724
 2536TIP3    H131803   3.805   3.016  18.216  1.0082  0.3635 -1.0712
 2536TIP3    H231804   3.891   2.986  18.337 -0.4242  0.5765  0.0243
 2537TIP3   OH231805   5.782   0.012  17.864  0.1786 -0.1533 -0.2162
 2537TIP3    H131806   5.796  -0.017  17.955 -0.6957  0.4851  0.1383
 2537TIP3    H231807   5.864  -0.008  17.820  1.0077  0.4529  0.9647
 2538TIP3   OH231808   5.121   5.117  18.331  0.3762  0.2829  0.3658
 2538TIP3    H131809   5.150   5.128  18.240  1.4473 -1.0932  0.5053
 2538TIP3    H231810   5.077   5.199  18.352 -2.5155 -0.3647 -2.3350
 2539TIP3   OH231811   1.117   1.085  17.795 -0.1458  0.3995 -0.0779
 2539TIP3    H131812   1.119   1.173  17.756  1.2841  1.3122  1.8927
 2539TIP3    H231813   1.182   1.036  17.744 -1.2355  0.3071 -1.4530
 2540TIP3   OH231814   7.387   0.743  17.552 -0.5257 -0.8383  0.2449
 2540TIP3    H131815   7.420   0.656  17.577  1.2000 -0.3429 -0.1931
 2540TIP3    H231816   7.459   0.803  17.572 -1.4627  0.4262 -0.0396
 2541TIP3   OH231817   0.634   1.073  19.746  0.4578  0.3953 -0.6551
 2541TIP3    H131818   0.559   1.030  19.789  1.6224  0.2001  1.2899
 2541TIP3    H231819   0.690   1.001  19.718  0.8216  0.5754 -0.3970
 2542TIP3   OH231820   3.563   7.157  18.041 -0.2056  0.4276 -0.1773
 2542TIP3    H131821   3.563   7.250  18.064  2.1292  0.8965 -1.7351
 2542TIP3    H231822   3.486   7.148  17.984 -0.1280  1.5522 -0.5030
 2543TIP3   OH231823   2.488   5.129  17.728 -0.8462  0.2865  0.2356
 2543TIP3    H131824   2.578   5.100  17.742 -0.5057  0.8692 -0.6476
 2543TIP3    H231825   2.436   5.079  17.791 -0.4742 -3.1726 -1.9711
 2544TIP3   OH231826   4.256   2.204  16.915 -0.3209  0.1055  0.0874
 2544TIP3    H131827   4.262   2.265  16.841 -1.4703 -0.8431 -0.8277
 2544TIP3    H231828   4.167   2.214  16.948 -0.0879 -0.1030  0.8081
 2545TIP3   OH231829   3.441   2.200  17.904 -0.2226  0.2775 -0.2226
 2545TIP3    H131830   3.362   2.249  17.884 -0.6679 -0.2258  0.2690
 2545TIP3    H231831   3.450   2.138  17.831 -1.3664 -0.9715  0.6450
 2546TIP3   OH231832   3.107   5.208  18.983  0.5273  0.1347 -0.0852
 2546TIP3    H131833   3.184   5.236  18.934  1.7317 -1.4292  0.7969
 2546TIP3    H231834   3.117   5.113  18.991 -1.2487 -0.0500  0.5020
 2547TIP3   OH231835   2.296   5.161  17.514 -0.0699 -0.4452 -0.1093
 2547TIP3    H131836   2.369   5.130  17.568 -0.7131 -0.4993  0.7605
 2547TIP3    H231837   2.321   5.249  17.487  0.1288 -0.2863  0.5646
 2548TIP3   OH231838   6.138   3.126  17.789 -0.1610 -0.2882  0.5967
 2548TIP3    H131839   6.100   3.042  17.816  1.9411 -1.1267  1.2305
 2548TIP3    H231840   6.229   3.104  17.767  0.5279  1.8737  1.0747
 2549TIP3   OH231841   1.923   5.709  17.542  0.1249  0.1895  0.1801
 2549TIP3    H131842   1.928   5.724  17.448  1.1237 -0.1506  0.1665
 2549TIP3    H231843   1.869   5.780  17.575 -4.6092 -2.3381 -1.2261
 2550TIP3   OH231844   7.492   2.837  19.484  0.0230 -0.2009  0.2760
 2550TIP3    H131845   7.553   2.911  19.477  0.6614 -0.7909 -0.4674
 2550TIP3    H231846   7.535   2.776  19.544  0.0707 -0.5297 -0.0942
 2551TIP3   OH231847   3.982   4.187  18.609  0.1389 -0.2932  0.0424
 2551TIP3    H131848   3.919   4.129  18.566  0.1111 -0.3519  0.1631
 2551TIP3    H231849   3.949   4.275  18.590 -0.9861 -0.3287  1.5862
 2552TIP3   OH231850   1.863   2.890  18.455  0.3551 -0.1207  0.2647
 2552TIP3    H131851   1.858   2.816  18.516 -2.1254 -0.3184 -0.0919
 2552TIP3    H231852   1.924   2.860  18.387  0.2934 -1.3888  0.7346
 2553TIP3   OH231853   3.095   3.173  17.756  0.4295 -0.4892 -0.0139
 2553TIP3    H131854   3.169   3.136  17.804 -0.3474  0.0031  1.6433
 2553TIP3    H231855   3.042   3.096  17.733  0.3283 -0.6708  0.7844
 2554TIP3   OH231856   7.116   2.212  18.513 -0.0648 -0.6701 -0.0848
 2554TIP3    H131857   7.054   2.140  18.502  1.3241 -1.8337 -0.5497
 2554TIP3    H231858   7.067   2.279  18.562 -1.3392 -1.9758  0.4913
 2555TIP3   OH231859   0.792   7.366  18.138  0.3087  0.0841  0.3699
 2555TIP3    H131860   0.758   7.280  18.161 -0.3928  0.3079  0.1965
 2555TIP3    H231861   0.823   7.404  18.220 -1.6598  0.6569  0.8905
 2556TIP3   OH231862   7.149   3.291  18.681 -0.4025  0.2476  0.3547
 2556TIP3    H131863   7.090   3.239  18.735  1.2341 -1.4996  0.5581
 2556TIP3    H231864   7.215   3.323  18.743 -0.0440  0.5643 -0.1833
 2557TIP3   OH231865   5.188   6.151  18.000  0.0723  0.1927  0.0891
 2557TIP3    H131866   5.277   6.115  18.000 -0.7385 -1.9469 -0.6065
 2557TIP3    H231867   5.132   6.077  18.022 -1.5310  1.6160  1.0215
 2558TIP3   OH231868   0.168   0.450  19.005  0.0404 -0.1393 -0.1558
 2558TIP3    H131869   0.136   0.506  18.934  1.3905 -0.3874 -1.0071
 2558TIP3    H231870   0.253   0.487  19.029 -0.9687  0.7832  2.3579
 2559TIP3   OH231871   0.532   3.334  18.396  0.4727  0.1098 -0.2815
 2559TIP3    H131872   0.591   3.409  18.386  0.5500 -0.0593 -1.2030
 2559TIP3    H231873   0.447   3.373  18.418  0.6479  0.4263 -0.1545
 2560TIP3   OH231874   4.303   1.232  19.081  0.1206 -0.5686  0.4664
 2560TIP3    H131875   4.355   1.298  19.127 -0.0899  0.0491 -0.1579
 2560TIP3    H231876   4.365   1.189  19.022 -0.2499  0.9246 -1.0942
 2561TIP3   OH231877   4.321   7.129  17.463  0.4049  0.0614 -0.4896
 2561TIP3    H131878   4.322   7.033  17.452 -0.5089 -0.2417  1.5976
 2561TIP3    H231879   4.406   7.158  17.430  1.9282 -1.8401  1.4893
 2562TIP3   OH231880   3.790   0.794  18.572 -0.3287 -0.3348 -0.0725
 2562TIP3    H131881   3.818   0.884  18.589 -0.9871 -0.3203  1.0323
 2562TIP3    H231882   3.840   0.767  18.495  0.6934  0.5999  0.2433
 2563TIP3   OH231883   2.820   4.971  18.075  0.2214  0.3386  0.3014
 2563TIP3    H131884   2.774   4.887  18.083 -1.6568  1.3150  0.3996
 2563TIP3    H231885   2.812   5.011  18.162  0.4842  0.9015  0.0716
 2564TIP3   OH231886   7.388   5.777  17.004  0.0506  0.6305  0.7230
 2564TIP3    H131887   7.347   5.854  17.045 -2.5468 -0.2340 -0.0390
 2564TIP3    H231888   7.341   5.703  17.042  2.3437 -0.6188  1.2573
 2565TIP3   OH231889   0.088   1.628  18.844  0.9183 -0.3337  0.5439
 2565TIP3    H131890   0.133   1.551  18.877 -1.2906 -0.3692  4.0503
 2565TIP3    H231891   0.153   1.698  18.849  2.0921 -1.3699  0.1737
 2566TIP3   OH231892   7.053   3.229  19.296  0.1351  0.0732  0.2223
 2566TIP3    H131893   6.997   3.303  19.273  0.3294  0.2715  0.3785
 2566TIP3    H231894   7.022   3.202  19.382  0.1155  0.0253  0.2005
 2567TIP3   OH231895   1.383   4.277  17.723 -0.1131 -0.2851 -0.1531
 2567TIP3    H131896   1.452   4.262  17.658 -0.6191 -0.1142 -0.7436
 2567TIP3    H231897   1.386   4.200  17.779  2.7671  1.1171  1.9400
 2568TIP3   OH231898   1.397   1.959  17.521  0.1844  0.0726 -0.3598
 2568TIP3    H131899   1.449   1.903  17.464 -1.0161 -0.1001 -1.3328
 2568TIP3    H231900   1.423   1.935  17.609  0.6146 -1.1107 -0.7906
 2569TIP3   OH231901   6.793   2.404  18.428 -0.2446 -0.3724 -0.6290
 2569TIP3    H131902   6.823   2.413  18.337 -0.4634 -2.4775 -0.9481
 2569TIP3    H231903   6.717   2.346  18.423  1.0713 -2.3810  1.0873
 2570TIP3   OH231904   0.788   6.283  16.521  0.1729 -0.2196  0.0260
 2570TIP3    H131905   0.782   6.374  16.550  0.1196  0.3138 -1.5610
 2570TIP3    H231906   0.698   6.260  16.496 -0.0009 -1.0458  1.2967
 2571TIP3   OH231907   3.704   1.377  18.917  0.0357 -0.1440  0.2583
 2571TIP3    H131908   3.734   1.288  18.936  1.9166  0.4509  0.3057
 2571TIP3    H231909   3.628   1.389  18.973 -2.6736 -2.9834 -2.4112
 2572TIP3   OH231910   1.357   5.394  19.046 -0.5340 -0.8080  0.5007
 2572TIP3    H131911   1.329   5.307  19.017 -2.4315 -0.2727  0.5787
 2572TIP3    H231912   1.282   5.428  19.094 -0.7281  1.7641 -1.4332
 2573TIP3   OH231913   0.772   2.119  17.973 -0.5897 -0.0941  0.1640
 2573TIP3    H131914   0.743   2.061  17.903 -0.6885  1.3383 -1.0205
 2573TIP3    H231915   0.693   2.165  18.001 -0.4089 -0.0834  0.6707
 2574TIP3   OH231916   3.809   7.477  17.787  0.0127  0.0579 -0.1367
 2574TIP3    H131917   3.894   7.476  17.742  0.7098 -0.8044  1.1352
 2574TIP3    H231918   3.765   7.398  17.756  0.8104 -0.9616  1.1899
 2575TIP3   OH231919   1.380   4.194  17.362 -0.4496 -0.1809  0.4557
 2575TIP3    H131920   1.337   4.193  17.277 -2.7717  1.4698  1.4949
 2575TIP3    H231921   1.434   4.272  17.361  1.3767 -1.4021 -0.2745
 2576TIP3   OH231922   6.682   7.315  17.966  0.1602 -0.2632  0.0024
 2576TIP3    H131923   6.725   7.366  17.897 -0.4971 -0.9855 -0.9802
 2576TIP3    H231924   6.613   7.373  17.999  0.3789  0.0333 -0.0581
 2577TIP3   OH231925   5.171   6.174  18.609 -0.3169 -0.7014 -0.0644
 2577TIP3    H131926   5.076   6.176  18.625 -0.1833 -0.4947  0.7450
 2577TIP3    H231927   5.192   6.261  18.576 -0.4075 -0.7584 -0.2797
 2578TIP3   OH231928   3.081   6.073  17.185 -0.6957 -0.2707 -0.0866
 2578TIP3    H131929   3.013   6.087  17.120 -1.0527 -1.0093  0.1209
 2578TIP3    H231930   3.163   6.091  17.139 -1.0862  2.6966  0.2148
 2579TIP3   OH231931   0.349   0.070  17.756 -0.4139 -0.8471 -0.4861
 2579TIP3    H131932   0.346   0.061  17.851 -0.8623 -0.7745 -0.4892
 2579TIP3    H231933   0.293   0.146  17.737  1.3038  0.4208 -0.6623
 2580TIP3   OH231934   0.748   6.860  18.259  0.1861 -0.1120  0.1976
 2580TIP3    H131935   0.658   6.884  18.238 -0.4729 -1.4009  1.3883
 2580TIP3    H231936   0.769   6.790  18.197  0.6617  0.6625 -0.5530
 2581TIP3   OH231937   2.102   4.438  18.923 -0.3658 -0.5466 -0.6477
 2581TIP3    H131938   2.066   4.474  19.004  1.2451 -1.3572  0.4786
 2581TIP3    H231939   2.061   4.490  18.853 -1.1063  0.7626  0.7102
 2582TIP3   OH231940   6.991   5.802  17.463  0.0200  0.0897  0.2047
 2582TIP3    H131941   7.042   5.829  17.539  0.7894 -2.0761  0.5253
 2582TIP3    H231942   6.918   5.752  17.499 -0.2381 -0.0133 -0.4397
 2583TIP3   OH231943   4.758   6.119  17.853  1.0269 -0.0024 -0.4127
 2583TIP3    H131944   4.721   6.075  17.777  1.2888 -0.3601 -0.3332
 2583TIP3    H231945   4.724   6.070  17.928 -1.6112  2.0697 -0.1195
 2584TIP3   OH231946   3.736   5.642  18.719 -0.7863 -0.3736  0.2115
 2584TIP3    H131947   3.805   5.576  18.726 -0.9164 -0.5183  0.1269
 2584TIP3    H231948   3.759   5.692  18.640  0.1706  0.6777  1.1222
 2585TIP3   OH231949   6.184   6.738  17.481 -0.6188  0.3385  0.3442
 2585TIP3    H131950   6.135   6.744  17.563 -1.8117 -1.7007 -0.1561
 2585TIP3    H231951   6.131   6.681  17.425  0.8850  0.4770 -1.3284
 2586TIP3   OH231952   6.581   5.689  17.333  0.5750  0.4887 -0.5523
 2586TIP3    H131953   6.499   5.669  17.378  0.2394 -1.7642 -2.0361
 2586TIP3    H231954   6.577   5.639  17.252  3.5285  0.1511 -0.5797
 2587TIP3   OH231955   4.375   0.997  18.631 -0.5464  0.2144  0.7881
 2587TIP3    H131956   4.450   0.958  18.676 -1.0350 -0.2100  1.2511
 2587TIP3    H231957   4.299   0.953  18.668 -0.9678 -0.3057 -0.6144
 2588TIP3   OH231958   6.490   3.678  17.617  0.1457  0.8106  0.0188
 2588TIP3    H131959   6.560   3.719  17.667 -0.0448 -0.9004  1.7936
 2588TIP3    H231960   6.450   3.615  17.677 -1.2486 -0.1001 -1.7464
 2589TIP3   OH231961   0.379   5.038  17.769 -0.4993 -0.1695 -0.2337
 2589TIP3    H131962   0.352   5.019  17.859  0.2420  0.0735  0.0493
 2589TIP3    H231963   0.307   5.090  17.733  0.2265  1.8269  1.0051
 2590TIP3   OH231964   1.435   5.072  18.469  0.3963 -0.3555  0.2967
 2590TIP3    H131965   1.371   5.001  18.465  0.4250 -0.3327 -0.7121
 2590TIP3    H231966   1.510   5.039  18.420 -0.0024  0.7737 -1.1410
 2591TIP3   OH231967   6.207   5.539  18.347 -0.3202 -0.1970 -0.0324
 2591TIP3    H131968   6.284   5.540  18.403 -0.2226  0.6607 -0.1697
 2591TIP3    H231969   6.169   5.452  18.360 -0.2816 -0.0238  1.3186
 2592TIP3   OH231970   2.390   5.726  17.052  0.0097  0.8255  0.3244
 2592TIP3    H131971   2.483   5.705  17.043  0.0251  1.4343 -1.1278
 2592TIP3    H231972   2.345   5.653  17.009 -0.0864  1.5703 -0.8826
 2593TIP3   OH231973   5.869   2.644  19.478 -0.1791  0.2250 -0.1751
 2593TIP3    H131974   5.918   2.569  19.510 -0.9766  0.6662  2.2417
 2593TIP3    H231975   5.780   2.632  19.511 -0.3597  2.1565  0.1866
 2594TIP3   OH231976   7.577   5.298  16.883 -1.2770  0.1213  0.2716
 2594TIP3    H131977   7.631   5.354  16.827 -1.0972  1.2692  1.5334
 2594TIP3    H231978   7.537   5.235  16.823  0.3869  0.1025 -0.8790
 2595TIP3   OH231979   2.646   7.603  17.000 -0.1139  0.2072 -0.4853
 2595TIP3    H131980   2.572   7.614  16.940 -0.6886 -0.1541  0.1609
 2595TIP3    H231981   2.718   7.650  16.957  0.1563 -1.9875 -2.6272
 2596TIP3   OH231982   2.049   5.044  19.248 -0.0817 -0.2526  0.3525
 2596TIP3    H131983   2.089   5.059  19.162 -0.8229  0.7304  0.1592
 2596TIP3    H231984   1.972   5.100  19.249 -0.2979 -0.5353  1.5245
 2597TIP3   OH231985   7.534   4.280  16.968 -0.0063  0.0396  0.1375
 2597TIP3    H131986   7.594   4.242  16.903 -0.4092 -1.5286  0.6442
 2597TIP3    H231987   7.447   4.254  16.937 -0.3754  1.4396 -0.0458
 2598TIP3   OH231988   5.733   0.439  16.648 -0.3302 -0.1310  0.2484
 2598TIP3    H131989   5.767   0.380  16.716 -0.5468 -1.1952 -0.5444
 2598TIP3    H231990   5.697   0.380  16.581 -2.0286  0.9316  0.1754
 2599TIP3   OH231991   6.003   1.669  17.641  0.2774  0.0885 -0.0536
 2599TIP3    H131992   5.999   1.715  17.724  1.2557 -0.7751  0.4850
 2599TIP3    H231993   5.975   1.734  17.576 -0.8441  0.6619  0.9731
 2600TIP3   OH231994   1.529   6.973  19.344 -0.1519  0.0990  0.1297
 2600TIP3    H131995   1.609   7.025  19.335 -0.7413  1.4501  2.1612
 2600TIP3    H231996   1.458   7.033  19.322 -0.7744 -0.2044  1.2543
 2601TIP3   OH231997   6.553   4.826  17.226 -0.2919 -0.1064 -0.1190
 2601TIP3    H131998   6.573   4.889  17.156 -0.9084  0.7711  0.4834
 2601TIP3    H231999   6.510   4.754  17.181 -0.9329  0.5725 -0.6144
 2602TIP3   OH232000   6.851   5.003  18.826  0.6114  0.2109 -0.6135
 2602TIP3    H132001   6.887   5.002  18.915 -1.7451  2.4233  0.5062
 2602TIP3    H232002   6.928   5.009  18.769  2.1822  3.7940  1.5556
 2603TIP3   OH232003   5.346   6.940  19.545 -0.2240  0.5655 -0.1704
 2603TIP3    H132004   5.314   6.941  19.635 -0.2612  1.4467 -0.1805
 2603TIP3    H232005   5.278   6.985  19.495 -0.4447 -0.3715 -0.7328
 2604TIP3   OH232006   5.916   1.592  19.262 -0.3487  0.4352 -0.4329
 2604TIP3    H132007   5.931   1.684  19.285  1.0946  0.3560 -0.9614
 2604TIP3    H232008   5.946   1.543  19.339 -3.5181  0.4407  0.9314
 2605TIP3   OH232009   1.125   7.495  17.510 -0.0248 -0.4966  0.4875
 2605TIP3    H132010   1.157   7.494  17.420  0.2776 -1.6473  0.5947
 2605TIP3    H232011   1.102   7.586  17.527 -1.7842 -0.5355 -1.3548
 2606TIP3   OH232012   3.359   4.633  18.631 -0.0396  0.7770  0.2498
 2606TIP3    H132013   3.332   4.699  18.567 -0.1214 -1.1386 -1.8502
 2606TIP3    H232014   3.452   4.617  18.611 -0.9155 -2.4777 -2.1297
 2607TIP3   OH232015   7.541   6.911  18.004  0.0262 -0.0587 -0.3463
 2607TIP3    H132016   7.560   6.837  17.946  2.1942 -1.2414  1.6834
 2607TIP3    H232017   7.553   6.876  18.092  0.0113  2.4649  0.7462
 2608TIP3   OH232018   5.263   4.227  19.572  0.1759  0.0645 -0.5834
 2608TIP3    H132019   5.191   4.182  19.528 -2.8558  2.8092  1.1227
 2608TIP3    H232020   5.282   4.302  19.517  1.2638 -0.2295 -0.6316
 2609TIP3   OH232021   2.547   0.367  16.667 -0.4164 -0.5672 -0.5992
 2609TIP3    H132022   2.619   0.412  16.623  1.0750  0.6584  2.7710
 2609TIP3    H232023   2.578   0.277  16.678  0.8307  0.0155  1.0662
 2610TIP3   OH232024   7.274   2.937  19.613  0.3883 -0.4841 -0.3023
 2610TIP3    H132025   7.290   2.935  19.707  1.0666 -0.5125 -0.4132
 2610TIP3    H232026   7.352   2.897  19.575  0.0396 -0.6303 -0.8671
 2611TIP3   OH232027   1.888   4.635  16.855  0.4224 -1.0162 -0.2217
 2611TIP3    H132028   1.873   4.730  16.855 -0.4802 -1.1206  1.4618
 2611TIP3    H232029   1.819   4.600  16.912  0.4044 -2.7511 -1.2496
 2612TIP3   OH232030   5.146   5.550  18.214  0.0483  0.5093  0.4057
 2612TIP3    H132031   5.112   5.485  18.153 -0.2067  0.9154  0.1091
 2612TIP3    H232032   5.119   5.519  18.300  2.1889 -1.2021  0.5707
 2613TIP3   OH232033   7.346   2.147  18.631 -0.1970  0.2424  0.0932
 2613TIP3    H132034   7.282   2.137  18.560  3.4157  0.0682 -3.4661
 2613TIP3    H232035   7.334   2.237  18.662 -2.5612 -0.0138  0.0872
 2614TIP3   OH232036   4.586   3.218  18.551  0.2760  0.2826 -0.4710
 2614TIP3    H132037   4.626   3.152  18.609  0.5319  2.5452  2.1529
 2614TIP3    H232038   4.533   3.167  18.490 -1.2536 -2.3623  2.7021
 2615TIP3   OH232039   6.369   1.026  19.334 -0.5366  0.1818  0.0964
 2615TIP3    H132040   6.455   1.067  19.320  0.0627 -0.4363  1.7387
 2615TIP3    H232041   6.306   1.093  19.306  0.4460  1.5872  1.1080
 2616TIP3   OH232042   5.132   3.749  19.022  0.0936  0.2919  0.0677
 2616TIP3    H132043   5.039   3.744  19.042  0.2429 -0.4355  0.6100
 2616TIP3    H232044   5.146   3.840  18.995 -1.2679 -0.1958 -2.6306
 2617TIP3   OH232045   5.828   3.969  18.248 -0.0383  0.1136  0.4831
 2617TIP3    H132046   5.803   3.907  18.316  0.2279 -0.1454  0.3465
 2617TIP3    H232047   5.772   4.045  18.263 -2.6035 -1.2726 -1.2007
 2618TIP3   OH232048   6.213   1.934  18.688 -0.3226 -0.3164  0.4046
 2618TIP3    H132049   6.279   1.925  18.619  0.1118 -2.2972  1.0128
 2618TIP3    H232050   6.251   1.998  18.748  1.2183 -1.5469  0.8355
 2619TIP3   OH232051   0.762   0.522  19.088 -0.1510 -0.2918  0.0889
 2619TIP3    H132052   0.762   0.477  19.172  0.6867 -0.4909 -0.0035
 2619TIP3    H232053   0.761   0.451  19.023  1.2675 -0.2052 -0.0554
 2620TIP3   OH232054   1.652   1.576  17.071  0.0614  0.0394 -0.1727
 2620TIP3    H132055   1.740   1.600  17.045 -0.4390 -0.5165 -2.6156
 2620TIP3    H232056   1.595   1.614  17.003 -1.2979 -2.0685 -0.3212
 2621TIP3   OH232057   2.132   5.290  18.463  0.0946  1.2796  0.4581
 2621TIP3    H132058   2.207   5.319  18.516  0.7700 -0.8765  0.7659
 2621TIP3    H232059   2.102   5.210  18.505 -2.3240  1.9748  0.2216
 2622TIP3   OH232060   0.267   2.678  18.046 -0.0143 -0.1731  0.1041
 2622TIP3    H132061   0.348   2.728  18.039 -1.2663  1.7929 -1.8473
 2622TIP3    H232062   0.208   2.734  18.097 -1.0315 -0.2129 -0.9815
 2623TIP3   OH232063   4.938   7.657  17.743  0.1764 -0.0028 -0.0451
 2623TIP3    H132064   4.935   7.562  17.744 -2.7035 -0.0820  2.7755
 2623TIP3    H232065   5.031   7.679  17.753  0.6750 -2.7027  3.2759
 2624TIP3   OH232066   0.645   4.394  17.463  0.0762  0.3742  0.1677
 2624TIP3    H132067   0.714   4.384  17.398 -0.0770 -0.9070  0.1674
 2624TIP3    H232068   0.645   4.310  17.510 -0.6695  0.8060  0.9650
 2625TIP3   OH232069   4.250   0.554  18.236 -0.9426 -0.3343 -0.3020
 2625TIP3    H132070   4.214   0.638  18.209 -1.8303 -0.9788 -1.2543
 2625TIP3    H232071   4.177   0.493  18.226 -0.5044 -1.1124  0.9938
 2626TIP3   OH232072   6.788   0.084  17.998 -0.3378  0.6421  0.0627
 2626TIP3    H132073   6.751   0.110  17.914 -0.8911 -0.9782 -0.2334
 2626TIP3    H232074   6.733   0.128  18.063 -0.6967  0.8880 -0.4004
 2627TIP3   OH232075   1.821   4.113  18.168  0.0295  0.2737  0.6709
 2627TIP3    H132076   1.849   4.054  18.239 -1.7683 -2.2277 -0.5579
 2627TIP3    H232077   1.884   4.097  18.098 -0.2560  0.0822  0.4588
 2628TIP3   OH232078   7.136   1.162  18.933 -0.1272 -0.1307 -0.1374
 2628TIP3    H132079   7.202   1.111  18.885 -0.2939 -1.2411  0.7748
 2628TIP3    H232080   7.054   1.146  18.887 -0.4463 -1.8774  0.9379
 2629TIP3   OH232081   5.205   0.833  17.834  0.5060 -0.3077  0.2601
 2629TIP3    H132082   5.299   0.843  17.849  0.8063 -1.2939 -0.7383
 2629TIP3    H232083   5.187   0.887  17.757  0.3215 -0.3388  0.2793
 2630TIP3   OH232084   2.108   6.094  18.511  0.3563 -0.3622  0.0481
 2630TIP3    H132085   2.056   6.094  18.592  0.4674 -0.1780  0.1196
 2630TIP3    H232086   2.134   6.185  18.500 -1.0192 -0.0767 -1.0800
 2631TIP3   OH232087   0.502   7.663  17.092 -0.1348 -0.5965 -0.2517
 2631TIP3    H132088   0.476   7.658  17.001  2.0580 -1.0190 -0.9180
 2631TIP3    H232089   0.522   7.755  17.107 -0.8411 -0.4646 -0.0624
 2632TIP3   OH232090   1.521   2.968  18.295  0.2119  0.0391  0.0678
 2632TIP3    H132091   1.543   3.061  18.299  0.1895  0.0373  0.2222
 2632TIP3    H232092   1.556   2.938  18.211  2.3655 -0.3797  1.0650
 2633TIP3   OH232093   7.059   2.730  18.752 -0.1300  0.4697  0.5341
 2633TIP3    H132094   7.130   2.792  18.765 -0.8878  1.6285 -0.6295
 2633TIP3    H232095   6.979   2.780  18.771 -0.6890 -0.6734  1.3745
 2634TIP3   OH232096   1.697   4.645  18.057  0.2127  0.2808 -0.0542
 2634TIP3    H132097   1.701   4.598  17.974  2.6723 -1.0659  0.7154
 2634TIP3    H232098   1.679   4.576  18.122  0.3767  0.9664  0.7293
 2635TIP3   OH232099   2.447   1.051  17.565  0.3560 -0.7411  0.1322
 2635TIP3    H132100   2.364   1.079  17.604  0.0927  0.0323 -0.9225
 2635TIP3    H232101   2.490   1.132  17.538  0.9052 -1.1943 -0.4091
 2636TIP3   OH232102   3.553   1.438  17.182 -0.1854 -0.5336 -0.0295
 2636TIP3    H132103   3.480   1.441  17.120 -1.8528 -3.0052  1.6302
 2636TIP3    H232104   3.629   1.413  17.129 -0.8169  0.5932 -1.5432
 2637TIP3   OH232105   4.703   6.596  16.967 -0.1900  0.3536  0.2436
 2637TIP3    H132106   4.727   6.618  16.877 -0.3847  1.3543  0.4258
 2637TIP3    H232107   4.654   6.513  16.960  0.8684 -0.2332 -0.4246
 2638TIP3   OH232108   4.893   7.166  19.102 -0.3036 -0.0913  0.6655
 2638TIP3    H132109   4.933   7.184  19.187  0.5616 -0.3802  0.3407
 2638TIP3    H232110   4.968   7.156  19.043 -0.8981  0.3320 -0.1727
 2639TIP3   OH232111   1.600   0.610  17.948 -0.1640  0.5772 -0.2794
 2639TIP3    H132112   1.516   0.564  17.958  0.7599 -1.2551 -0.5323
 2639TIP3    H232113   1.663   0.555  17.994  1.2430  0.8232 -1.8173
 2640TIP3   OH232114   3.114   6.446  16.965  0.6732 -0.3936  0.4500
 2640TIP3    H132115   3.036   6.432  16.912  0.9873 -1.6458  0.3068
 2640TIP3    H232116   3.159   6.519  16.922  0.5179 -0.8658 -0.5455
 2641TIP3   OH232117   4.701   3.348  17.609 -0.0730 -0.3331 -0.3700
 2641TIP3    H132118   4.725   3.367  17.518 -0.1731 -0.6302 -0.4572
 2641TIP3    H232119   4.683   3.255  17.610  0.8722 -0.5233  0.1645
 2642TIP3   OH232120   0.444   7.618  16.819  0.1195 -0.0593  0.7383
 2642TIP3    H132121   0.363   7.660  16.789  0.8744  0.8045 -0.1153
 2642TIP3    H232122   0.458   7.547  16.757 -0.7772 -1.1893  1.7741
 2643TIP3   OH232123   3.433   1.689  18.757 -0.2261 -0.9432 -0.4724
 2643TIP3    H132124   3.469   1.705  18.844  0.5507  0.2365 -0.9900
 2643TIP3    H232125   3.409   1.596  18.758  0.6659 -1.1871  0.6675
 2644TIP3   OH232126   1.759   6.423  18.251  0.1091  0.7263  0.0876
 2644TIP3    H132127   1.686   6.372  18.285  0.8785  1.6258  3.4625
 2644TIP3    H232128   1.833   6.362  18.252 -0.0200  0.5408 -0.8227
 2645TIP3   OH232129   3.185   7.480  17.852  0.0047 -0.6481 -0.0969
 2645TIP3    H132130   3.109   7.462  17.907  1.0186 -3.0048  0.6431
 2645TIP3    H232131   3.245   7.528  17.910  0.4694 -1.8478  0.4551
 2646TIP3   OH232132   4.988   4.461  19.252 -0.8148 -0.1592 -0.1193
 2646TIP3    H132133   4.928   4.388  19.269 -0.0120 -0.8313 -0.0484
 2646TIP3    H232134   5.060   4.447  19.315 -0.5120  0.5315 -0.3051
 2647TIP3   OH232135   6.334   5.722  18.850  0.1615 -0.4501 -0.4108
 2647TIP3    H132136   6.254   5.689  18.891  0.7647  0.3891  1.6137
 2647TIP3    H232137   6.313   5.731  18.757 -1.4038 -2.1970 -0.2740
 2648TIP3   OH232138   7.271   0.672  17.966 -0.4051  0.0069 -0.1393
 2648TIP3    H132139   7.239   0.726  17.894  0.0659  0.9074  0.3173
 2648TIP3    H232140   7.205   0.604  17.976 -1.9724  1.5468  0.4844
 2649TIP3   OH232141   1.452   2.178  19.331  0.1024  0.1810 -0.8166
 2649TIP3    H132142   1.530   2.177  19.386 -0.7536 -0.0452  0.4439
 2649TIP3    H232143   1.459   2.258  19.279  0.2296  1.1779  0.6841
 2650TIP3   OH232144   0.582   2.594  17.836  0.5127 -0.0380  0.2309
 2650TIP3    H132145   0.618   2.670  17.791 -0.3385 -0.1478 -0.6754
 2650TIP3    H232146   0.616   2.600  17.925 -0.7660  2.2351  0.6196
 2651TIP3   OH232147   4.823   6.566  17.222 -0.4063 -0.0415 -0.1758
 2651TIP3    H132148   4.780   6.599  17.143  1.5928  1.8131 -0.5878
 2651TIP3    H232149   4.807   6.633  17.288 -0.6122 -0.7525  0.5094
 2652TIP3   OH232150   6.787   3.774  18.021 -0.2561 -0.2455  0.2239
 2652TIP3    H132151   6.872   3.763  18.065 -0.2074 -0.6019  0.0428
 2652TIP3    H232152   6.723   3.775  18.092 -0.2544 -1.5769  0.2679
 2653TIP3   OH232153   1.493   6.332  18.351 -0.2535  0.3133  0.2214
 2653TIP3    H132154   1.504   6.386  18.429  1.4254 -1.9281  1.6811
 2653TIP3    H232155   1.414   6.280  18.368 -0.5025  0.5758 -0.0986
 2654TIP3   OH232156   6.638   5.995  19.440 -0.4129 -0.1990  0.5136
 2654TIP3    H132157   6.596   5.968  19.359  4.1179 -0.4388 -2.0897
 2654TIP3    H232158   6.639   5.916  19.494  0.3662 -1.3774 -1.1379
 2655TIP3   OH232159   4.693   2.899  18.880  0.1409  0.3051 -0.7372
 2655TIP3    H132160   4.644   2.839  18.823 -0.0975  0.0247 -0.2359
 2655TIP3    H232161   4.718   2.970  18.822 -0.5871  0.2977 -1.0754
 2656TIP3   OH232162   3.619   6.378  19.118  0.1781  0.1328  0.5815
 2656TIP3    H132163   3.625   6.283  19.105 -1.1873  0.1901 -0.7537
 2656TIP3    H232164   3.693   6.399  19.175  0.2378 -1.7995  1.3004
 2657TIP3   OH232165   4.674   0.090  17.318  0.9600 -0.1390 -0.0831
 2657TIP3    H132166   4.641   0.176  17.344  2.1255  0.4784 -0.5714
 2657TIP3    H232167   4.641   0.078  17.229  0.1127 -0.5755  0.2811
 2658TIP3   OH232168   0.660   4.658  17.703 -0.1168 -0.1814 -0.1183
 2658TIP3    H132169   0.575   4.700  17.711 -1.8582 -3.4233  0.0934
 2658TIP3    H232170   0.662   4.622  17.614  0.6393 -0.8510  0.1443
 2659TIP3   OH232171   2.404   3.571  17.967  0.3268 -0.3502  0.4500
 2659TIP3    H132172   2.356   3.531  17.895  2.3407  0.4896 -1.4611
 2659TIP3    H232173   2.441   3.498  18.016  0.2464 -0.8950 -0.3050
 2660TIP3   OH232174   0.616   0.181  17.243 -0.5822  0.0908 -0.1534
 2660TIP3    H132175   0.578   0.167  17.330  0.8940  0.6509  0.6156
 2660TIP3    H232176   0.707   0.153  17.252 -0.4610 -0.0588 -1.5981
 2661TIP3   OH232177   5.968   3.785  17.979 -0.2032  0.2198 -0.4737
 2661TIP3    H132178   5.904   3.831  18.034  0.4323  1.2970 -0.5862
 2661TIP3    H232179   5.918   3.755  17.904 -0.8107 -0.0166  0.0202
 2662TIP3   OH232180   5.088   6.755  17.464 -0.4588  0.3951 -0.3438
 2662TIP3    H132181   5.107   6.690  17.397 -1.7834 -0.0922 -0.2775
 2662TIP3    H232182   5.003   6.728  17.500 -0.7145  1.7787  0.1495
 2663TIP3   OH232183   2.969   2.922  17.706  0.2860 -0.0437 -0.2305
 2663TIP3    H132184   2.969   2.880  17.792  0.7027 -2.3822 -1.2917
 2663TIP3    H232185   2.878   2.947  17.691  0.1937  0.3124  0.8338
 2664TIP3   OH232186   3.404   5.202  19.299  0.2120  0.3545 -0.1392
 2664TIP3    H132187   3.419   5.190  19.206  1.1600 -1.3553  0.1989
 2664TIP3    H232188   3.489   5.233  19.333  0.5860 -1.2836  0.4939
 2665TIP3   OH232189   3.613   3.850  17.057 -0.1117 -0.4854  0.2222
 2665TIP3    H132190   3.632   3.915  17.125 -3.6651  0.1194  0.8333
 2665TIP3    H232191   3.626   3.766  17.101 -2.1395 -0.1067  1.6894
 2666TIP3   OH232192   0.369   1.591  17.678 -0.3456 -0.0413 -0.2922
 2666TIP3    H132193   0.361   1.498  17.657 -2.7137 -0.0722  0.4711
 2666TIP3    H232194   0.452   1.598  17.726 -1.2955 -2.2809  1.9114
 2667TIP3   OH232195   3.809   1.106  18.955 -0.2356  0.3529 -0.2363
 2667TIP3    H132196   3.860   1.141  19.028  1.5283  0.1470 -1.3191
 2667TIP3    H232197   3.817   1.011  18.964  0.5008  0.3309 -1.0237
 2668TIP3   OH232198   1.182   1.004  18.070  0.5282  0.1942 -0.4000
 2668TIP3    H132199   1.275   0.984  18.060  0.6208 -0.1855  1.0329
 2668TIP3    H232200   1.147   0.999  17.981  2.1653  1.9255 -1.2107
 2669TIP3   OH232201   7.335   0.415  18.585  0.1743  0.1413 -0.0130
 2669TIP3    H132202   7.299   0.490  18.538 -0.5380  0.9324  1.7391
 2669TIP3    H232203   7.429   0.433  18.589  0.2792 -0.0394 -1.2738
 2670TIP3   OH232204   5.154   3.131  17.560 -0.3668 -0.3457 -0.3088
 2670TIP3    H132205   5.195   3.059  17.608 -2.8794 -0.1667  2.4180
 2670TIP3    H232206   5.103   3.178  17.626 -2.7077  1.0349 -2.8645
 2671TIP3   OH232207   2.255   3.564  18.897 -0.4518  0.2235  0.2664
 2671TIP3    H132208   2.219   3.607  18.975  0.7835 -1.6336  1.9448
 2671TIP3    H232209   2.209   3.606  18.824 -0.0987  3.5895  1.7918
 2672TIP3   OH232210   3.629   3.507  19.174 -0.3808 -0.4268  0.0410
 2672TIP3    H132211   3.638   3.592  19.131 -0.5860 -1.0496 -1.2858
 2672TIP3    H232212   3.649   3.443  19.106  0.1624 -1.4458  1.1174
 2673TIP3   OH232213   7.629   6.452  18.874  0.0918  0.3183  0.4006
 2673TIP3    H132214   7.665   6.364  18.888 -0.4250 -0.0479 -0.4900
 2673TIP3    H232215   7.538   6.437  18.849 -0.2969  1.1750  1.2578
 2674TIP3   OH232216   2.106   5.279  16.700  0.5032  0.3232  0.5039
 2674TIP3    H132217   2.044   5.234  16.644  2.0081 -1.2688  0.0411
 2674TIP3    H232218   2.072   5.266  16.789  0.1395 -0.4765  0.2543
 2675TIP3   OH232219   3.272   1.903  17.577  0.0214  0.0521 -0.0047
 2675TIP3    H132220   3.253   1.942  17.491 -1.4456 -0.6695 -0.0432
 2675TIP3    H232221   3.187   1.901  17.621  0.4825 -0.9703  0.8735
 2676TIP3   OH232222   3.870   4.426  18.627  0.1752  0.4260 -0.5069
 2676TIP3    H132223   3.778   4.405  18.645 -0.0757  1.6028 -0.3238
 2676TIP3    H232224   3.866   4.500  18.567  1.0211 -0.5071 -1.7672
 2677TIP3   OH232225   7.097   7.033  19.132  0.5759  0.2908 -0.6455
 2677TIP3    H132226   7.022   7.013  19.188  1.5153 -1.8315 -0.0270
 2677TIP3    H232227   7.151   6.954  19.137  2.0179  1.1150 -2.4181
 2678TIP3   OH232228   4.757   2.430  17.044 -0.0603  0.0356 -0.0537
 2678TIP3    H132229   4.677   2.481  17.027  0.3884  0.7456 -0.0636
 2678TIP3    H232230   4.766   2.374  16.967 -0.4132  0.1329 -0.1704
 2679TIP3   OH232231   2.959   4.901  19.408  0.2669  0.2755 -0.6501
 2679TIP3    H132232   3.045   4.919  19.372  0.4658  0.8962  0.1260
 2679TIP3    H232233   2.899   4.952  19.354  0.2938 -0.7173 -1.6502
 2680TIP3   OH232234   4.542   2.377  17.780 -0.0392 -0.0074 -0.4183
 2680TIP3    H132235   4.567   2.447  17.840  1.3281 -1.0396  0.2407
 2680TIP3    H232236   4.576   2.405  17.695  1.2927 -0.2687  0.0141
 2681TIP3   OH232237   1.859   6.692  17.626  0.0942  0.0090 -0.4535
 2681TIP3    H132238   1.834   6.625  17.690  2.0549 -1.3013 -0.9740
 2681TIP3    H232239   1.779   6.742  17.610 -0.6280 -0.0289  2.5131
 2682TIP3   OH232240   6.363   1.802  16.691  0.0279  0.8908 -0.3224
 2682TIP3    H132241   6.294   1.814  16.626  0.0466  1.5715 -0.2223
 2682TIP3    H232242   6.443   1.789  16.640 -0.3003 -0.8404 -0.4532
 2683TIP3   OH232243   4.288   1.754  19.207  0.0168 -0.1192 -0.4585
 2683TIP3    H132244   4.239   1.736  19.126 -0.6811 -0.7411  0.0804
 2683TIP3    H232245   4.224   1.739  19.276 -0.2089  3.0198  0.1526
 2684TIP3   OH232246   3.128   3.863  18.589  0.6831 -0.0147  0.2131
 2684TIP3    H132247   3.082   3.780  18.574 -1.1710  0.8708  0.8120
 2684TIP3    H232248   3.075   3.909  18.653  2.1902  1.2746  0.5982
 2685TIP3   OH232249   0.721   5.827  18.286  0.3623 -0.5878  0.2363
 2685TIP3    H132250   0.751   5.737  18.296  2.6160  0.0516 -0.1776
 2685TIP3    H232251   0.693   5.832  18.194  0.3687 -0.8076  0.2212
 2686TIP3   OH232252   0.911   3.301  17.929 -0.4232 -0.3945  0.4641
 2686TIP3    H132253   0.993   3.337  17.965 -1.4159  1.0902  1.3472
 2686TIP3    H232254   0.904   3.338  17.841 -0.7996  0.5970  0.8957
 2687TIP3   OH232255   6.188   7.118  17.749  0.0631  0.7546  0.3829
 2687TIP3    H132256   6.182   7.191  17.686 -0.5999 -0.4010 -0.9450
 2687TIP3    H232257   6.098   7.088  17.759  0.5982 -1.7397 -1.4105
 2688TIP3   OH232258   5.197   6.325  17.123 -0.0940  0.2937  0.1939
 2688TIP3    H132259   5.245   6.243  17.114 -1.6931 -0.6864  0.2804
 2688TIP3    H232260   5.132   6.322  17.053 -1.2159  0.7364  1.1952
 2689TIP3   OH232261   1.216   4.220  18.328 -0.2524  0.1607 -0.0916
 2689TIP3    H132262   1.252   4.204  18.241 -0.9283  1.2752 -0.5899
 2689TIP3    H232263   1.289   4.201  18.387  1.1518  2.1361 -1.0744
 2690TIP3   OH232264   1.667   2.515  18.371  0.2724 -0.2671  0.0085
 2690TIP3    H132265   1.705   2.445  18.319  2.3074  0.8277 -0.0948
 2690TIP3    H232266   1.738   2.545  18.427 -0.9482  0.7525  1.0902
 2691TIP3   OH232267   3.128   2.558  19.266  0.5376 -0.4953  0.1278
 2691TIP3    H132268   3.049   2.609  19.286  0.8715  1.4876 -2.8822
 2691TIP3    H232269   3.197   2.624  19.260  1.4086 -1.5184 -2.0364
 2692TIP3   OH232270   0.237   1.941  18.565 -0.1088  0.3440 -0.3036
 2692TIP3    H132271   0.166   2.002  18.546 -2.5550 -1.3950  2.2495
 2692TIP3    H232272   0.273   1.971  18.649  1.2276  0.3666 -0.8614
 2693TIP3   OH232273   0.991   1.309  19.556  0.2239  0.2129  0.1418
 2693TIP3    H132274   1.028   1.258  19.628 -0.4401 -0.2728  0.1470
 2693TIP3    H232275   0.999   1.252  19.480 -0.8134 -0.0372  0.2102
 2694TIP3   OH232276   0.017   5.276  19.051 -0.0538 -0.1715 -0.0621
 2694TIP3    H132277  -0.040   5.204  19.026  0.3601 -0.1483 -1.0955
 2694TIP3    H232278   0.051   5.310  18.969  1.0169  0.1725  0.5071
 2695TIP3   OH232279   3.585   0.779  18.018  0.5157 -0.0770 -0.0216
 2695TIP3    H132280   3.670   0.800  17.980  0.2950 -0.9503 -1.0288
 2695TIP3    H232281   3.526   0.768  17.943 -0.0244 -1.4032  0.5609
 2696TIP3   OH232282   6.021   1.853  16.840 -0.0224 -0.5708 -0.0310
 2696TIP3    H132283   6.035   1.927  16.781  0.4605 -1.7302 -1.4358
 2696TIP3    H232284   5.947   1.805  16.802 -0.9211 -0.3488  1.3610
 2697TIP3   OH232285   5.329   4.553  19.105  0.0220  0.3080 -0.3493
 2697TIP3    H132286   5.352   4.461  19.089  1.6218  0.6181 -0.0049
 2697TIP3    H232287   5.412   4.596  19.124 -0.3782  2.2929 -2.5922
 2698TIP3   OH232288   2.944   5.254  17.527  0.1384 -0.6010 -0.2398
 2698TIP3    H132289   2.945   5.158  17.528 -0.2032 -0.6547 -1.9196
 2698TIP3    H232290   2.856   5.277  17.555 -0.5208 -0.8768 -1.9891
 2699TIP3   OH232291   2.926   3.483  16.672 -0.5664  0.4416 -0.5497
 2699TIP3    H132292   2.858   3.421  16.645  1.3305 -1.9508 -0.1485
 2699TIP3    H232293   2.990   3.480  16.602  1.4785 -1.2196  1.2368
 2700TIP3   OH232294   2.879   5.317  18.151 -0.2391  0.6027 -0.2355
 2700TIP3    H132295   2.894   5.399  18.103  0.2607 -0.3573 -1.7754
 2700TIP3    H232296   2.801   5.279  18.109  0.1169 -0.1865 -0.1986
 2701TIP3   OH232297   1.126   1.952  19.173 -0.3806 -0.3067 -0.2034
 2701TIP3    H132298   1.113   1.993  19.088 -1.8910  3.4755  1.5838
 2701TIP3    H232299   1.221   1.958  19.189 -0.4484  2.0679 -0.3482
 2702TIP3   OH232300   0.347   4.342  17.909  0.3158 -0.1958  0.4890
 2702TIP3    H132301   0.305   4.425  17.887  0.7169  0.1310  0.9191
 2702TIP3    H232302   0.430   4.367  17.949  2.1595 -0.8209 -2.5950
 2703TIP3   OH232303   6.147   5.587  19.170  0.7553  0.3391  0.2332
 2703TIP3    H132304   6.120   5.614  19.082 -0.3635  0.5924  0.6340
 2703TIP3    H232305   6.066   5.559  19.213  1.2747  0.2521  1.2029
 2704TIP3   OH232306   1.592   6.017  17.152 -0.2516 -0.6518  0.2274
 2704TIP3    H132307   1.673   5.973  17.127  1.3787  1.4503  1.4790
 2704TIP3    H232308   1.589   6.096  17.098 -0.6077  0.1110  1.3191
 2705TIP3   OH232309   5.976   1.734  19.561 -0.0024  0.3778  0.1375
 2705TIP3    H132310   5.968   1.772  19.474  0.5147  2.4802  0.9590
 2705TIP3    H232311   5.887   1.737  19.597 -0.2607 -0.6980 -0.3507
 2706TIP3   OH232312   5.063   7.273  18.243  0.2134  0.0040  0.0207
 2706TIP3    H132313   5.137   7.315  18.286  0.8368 -0.1400 -0.8931
 2706TIP3    H232314   4.991   7.336  18.251  0.0274 -0.3821  2.0513
 2707TIP3   OH232315   5.779   4.455  18.037  0.2781  0.3692 -0.5009
 2707TIP3    H132316   5.796   4.525  18.100  1.0316  2.0196 -2.4436
 2707TIP3    H232317   5.684   4.456  18.026  0.1728  0.2943  0.3250
 2708TIP3   OH232318   5.700   3.263  18.695 -0.0738  0.9765  0.2192
 2708TIP3    H132319   5.731   3.347  18.726 -1.9286  1.2634  1.4642
 2708TIP3    H232320   5.682   3.276  18.602  2.1260  1.1516 -0.2262
 2709TIP3   OH232321   3.258   2.781  17.624 -0.0884 -0.3546  0.1442
 2709TIP3    H132322   3.171   2.813  17.651  0.3266  0.7119  0.2468
 2709TIP3    H232323   3.240   2.697  17.581 -1.1317 -0.3392  0.5177
 2710TIP3   OH232324   1.793   0.500  17.089  0.0197  0.5287 -0.2325
 2710TIP3    H132325   1.787   0.424  17.146  0.4473 -0.4519 -1.4392
 2710TIP3    H232326   1.745   0.475  17.010  1.5912  0.8242 -1.3341
 2711TIP3   OH232327   0.685   3.042  19.202 -0.4398  0.4079  0.5324
 2711TIP3    H132328   0.759   3.086  19.161  0.2838 -2.8843 -2.1187
 2711TIP3    H232329   0.612   3.103  19.193  1.3703  2.7824  1.1287
 2712TIP3   OH232330   2.350   5.307  18.287 -0.7275  0.2172  0.0565
 2712TIP3    H132331   2.268   5.325  18.332 -1.8416 -2.6845 -0.5942
 2712TIP3    H232332   2.361   5.212  18.293  1.7757  0.3259 -1.2687
 2713TIP3   OH232333   5.322   0.579  19.208  0.7317  0.1561 -0.2057
 2713TIP3    H132334   5.352   0.656  19.159  0.2609  2.0299  2.2516
 2713TIP3    H232335   5.379   0.576  19.285  0.3464 -1.6376  0.0493
 2714TIP3   OH232336   5.681   1.802  16.980 -0.2479  0.0373 -0.0668
 2714TIP3    H132337   5.676   1.707  16.985  0.9214 -0.0154  0.5005
 2714TIP3    H232338   5.764   1.820  16.937 -0.5060  0.8093 -0.2681
 2715TIP3   OH232339   5.559   3.935  17.447 -0.2311  0.4546  0.0291
 2715TIP3    H132340   5.628   3.873  17.472  0.7621  2.1697  1.8464
 2715TIP3    H232341   5.479   3.882  17.445  0.8167 -1.2113 -0.2545
 2716TIP3   OH232342   6.137   6.053  17.685  1.0682  0.4728  0.3049
 2716TIP3    H132343   6.077   6.055  17.610  2.1580  2.0342 -0.6123
 2716TIP3    H232344   6.081   6.065  17.761 -0.2334 -2.4862 -0.0700
 2717TIP3   OH232345   5.590   4.615  19.129 -0.2632 -0.1680 -0.3954
 2717TIP3    H132346   5.650   4.680  19.166 -1.6989  0.4654  0.8816
 2717TIP3    H232347   5.641   4.534  19.128  1.6480  0.9338 -2.2207
 2718TIP3   OH232348   5.872   1.648  18.662 -0.0892  0.4192 -0.0353
 2718TIP3    H132349   5.833   1.662  18.576 -0.8432 -1.0793  0.0375
 2718TIP3    H232350   5.798   1.645  18.723  0.4934  2.5305  0.8671
 2719TIP3   OH232351   2.014   7.242  18.654 -0.0571 -0.3714  0.4473
 2719TIP3    H132352   2.064   7.160  18.652  1.0837  0.2926  0.6497
 2719TIP3    H232353   2.053   7.295  18.585 -1.4942 -0.3743 -0.4013
 2720TIP3   OH232354   7.299   0.303  17.432 -0.3991  0.2190 -0.0442
 2720TIP3    H132355   7.206   0.281  17.441 -0.3551  0.3639  0.8511
 2720TIP3    H232356   7.313   0.309  17.337 -0.9901 -1.0938 -0.2385
 2721TIP3   OH232357   7.327   4.347  16.709  0.2583 -0.2261  0.4986
 2721TIP3    H132358   7.284   4.279  16.761  0.0134 -0.2947  0.2092
 2721TIP3    H232359   7.407   4.307  16.676 -0.4112 -0.7333 -0.5633
 2722TIP3   OH232360   5.247   3.169  18.226 -0.0714  0.0689  0.3658
 2722TIP3    H132361   5.276   3.155  18.136  0.1654 -0.0152  0.4544
 2722TIP3    H232362   5.238   3.081  18.262 -3.7739 -0.1575 -0.6771
 2723TIP3   OH232363   2.546   6.050  18.071  0.2446  0.0120 -0.4398
 2723TIP3    H132364   2.552   6.146  18.070  1.3989 -0.0313  0.8479
 2723TIP3    H232365   2.454   6.033  18.050 -0.9258  1.5561  2.6737
 2724TIP3   OH232366   0.780   4.040  19.153 -0.1422  0.0245  0.4404
 2724TIP3    H132367   0.752   4.036  19.244 -1.3772  1.6046  0.1869
 2724TIP3    H232368   0.845   3.970  19.144 -1.0783 -1.1267  2.1337
 2725TIP3   OH232369   3.802   3.206  16.899  0.1068 -0.0360  0.3886
 2725TIP3    H132370   3.754   3.259  16.836  0.2107 -0.6577 -0.2262
 2725TIP3    H232371   3.796   3.255  16.981  0.2160  0.9251 -0.1611
 2726TIP3   OH232372   0.409   5.286  18.452  0.1655  0.0886  0.4396
 2726TIP3    H132373   0.494   5.242  18.452 -0.6341 -1.5474  0.6585
 2726TIP3    H232374   0.385   5.294  18.360 -1.0767 -2.9155  0.3954
 2727TIP3   OH232375   1.388   2.994  17.157 -0.1369 -0.8987 -0.2954
 2727TIP3    H132376   1.297   2.999  17.127 -0.0497 -0.2616 -0.4512
 2727TIP3    H232377   1.420   3.084  17.153  0.4480 -1.0940 -0.0679
 2728TIP3   OH232378   3.159   0.602  18.611 -0.2674  0.3402 -0.3269
 2728TIP3    H132379   3.192   0.630  18.696 -1.3772 -0.1921  0.3107
 2728TIP3    H232380   3.199   0.662  18.548  0.9477  0.4457  0.5089
 2729TIP3   OH232381   6.469   5.528  17.944  0.4016  0.1778  0.3247
 2729TIP3    H132382   6.396   5.469  17.923  1.1123 -0.0277 -1.8509
 2729TIP3    H232383   6.453   5.554  18.035 -2.1771 -0.1457  0.0637
 2730TIP3   OH232384   6.670   6.415  18.887  0.3805 -0.7197 -0.2212
 2730TIP3    H132385   6.634   6.434  18.800 -0.4102  1.3895  0.4972
 2730TIP3    H232386   6.719   6.494  18.909  0.1523 -1.0220  1.4466
 2731TIP3   OH232387   0.428   4.792  17.699  0.4892  0.4769 -0.0044
 2731TIP3    H132388   0.388   4.752  17.776  0.1659 -1.2608 -1.0051
 2731TIP3    H232389   0.399   4.883  17.702 -0.5559  0.1415  1.2543
 2732TIP3   OH232390   5.431   1.374  18.828 -0.4837  0.4037 -0.1682
 2732TIP3    H132391   5.481   1.325  18.763  0.6076  0.1435  0.8210
 2732TIP3    H232392   5.468   1.462  18.825  0.5337  0.0485  1.0154
 2733TIP3   OH232393   2.425   0.308  19.015 -0.0995 -0.0650  0.0524
 2733TIP3    H132394   2.430   0.397  18.980 -1.5707 -0.4036 -1.1213
 2733TIP3    H232395   2.410   0.319  19.109 -0.6619  0.9248 -0.1492
 2734TIP3   OH232396   3.515   2.810  17.578 -0.4562  0.0847  0.0209
 2734TIP3    H132397   3.505   2.906  17.577  0.0373  0.1409 -0.9444
 2734TIP3    H232398   3.429   2.777  17.603 -0.8868  0.7583 -0.5351
 2735TIP3   OH232399   0.130   1.675  17.391 -0.2739  0.4577  0.0056
 2735TIP3    H132400   0.157   1.588  17.361 -1.2187  0.0331  0.3690
 2735TIP3    H232401   0.036   1.678  17.376 -0.5265  0.8079  1.4744
 2736TIP3   OH232402   5.532   4.189  17.518  0.7117  0.3601 -0.1550
 2736TIP3    H132403   5.495   4.103  17.500 -0.9218  1.1413 -0.6833
 2736TIP3    H232404   5.586   4.176  17.596 -0.4958 -0.8930  0.5168
 2737TIP3   OH232405   3.587   5.329  18.589  0.0641 -0.2118 -0.1419
 2737TIP3    H132406   3.664   5.341  18.534  1.0049 -1.8960  0.7290
 2737TIP3    H232407   3.607   5.376  18.670 -0.4817  0.6029 -0.4661
 2738TIP3   OH232408   2.498   1.629  16.880 -0.5015  0.5086  0.5587
 2738TIP3    H132409   2.488   1.718  16.847 -1.0077  0.5273  0.7464
 2738TIP3    H232410   2.574   1.594  16.834 -2.5957 -0.3301 -2.5940
 2739TIP3   OH232411   3.864   0.257  18.773 -0.3540  0.3052  0.4967
 2739TIP3    H132412   3.947   0.286  18.735  0.1002 -2.3840 -0.7516
 2739TIP3    H232413   3.888   0.224  18.860 -0.4256  1.0516  0.8099
 2740TIP3   OH232414   0.676   1.273  17.407  0.1897  0.1755  0.4937
 2740TIP3    H132415   0.697   1.299  17.317  1.5643 -0.4624  0.6119
 2740TIP3    H232416   0.692   1.352  17.459 -0.6678  0.5631  0.1834
 2741TIP3   OH232417   7.512   5.083  17.348 -0.6106  0.3319 -0.4977
 2741TIP3    H132418   7.591   5.029  17.357 -0.7429  0.3716  1.3540
 2741TIP3    H232419   7.513   5.112  17.257  2.1112  1.2194 -0.2707
 2742TIP3   OH232420   5.449   1.291  18.562  0.4329  0.1126 -0.2372
 2742TIP3    H132421   5.537   1.326  18.549  0.0766  0.4278 -1.9420
 2742TIP3    H232422   5.403   1.310  18.481 -0.2222 -3.0389 -0.7023
 2743TIP3   OH232423   3.173   7.438  17.564 -0.1593 -0.0055 -0.0968
 2743TIP3    H132424   3.199   7.451  17.656  0.0964 -0.1355 -0.1511
 2743TIP3    H232425   3.091   7.389  17.569  0.4702 -1.0645  0.0380
 2744TIP3   OH232426   1.088   1.886  17.360 -0.2388 -0.7537  0.1735
 2744TIP3    H132427   1.015   1.853  17.412  1.0748 -1.5744  1.5612
 2744TIP3    H232428   1.166   1.853  17.404  0.9722 -0.5502 -1.6963
 2745TIP3   OH232429   6.519   2.630  18.990 -0.4888  0.4130 -0.5069
 2745TIP3    H132430   6.532   2.558  19.051  0.2026  1.6598  0.8768
 2745TIP3    H232431   6.599   2.682  18.995 -0.1863  0.2928 -2.8993
 2746TIP3   OH232432   0.395   2.325  16.817 -0.2186  0.1829  0.0514
 2746TIP3    H132433   0.310   2.355  16.785  0.4608  1.9460 -0.2366
 2746TIP3    H232434   0.458   2.358  16.753  0.6559 -1.5810 -0.0481
 2747TIP3   OH232435   7.016   2.249  17.058 -0.1829  0.1873  0.4000
 2747TIP3    H132436   7.016   2.344  17.047 -0.2573  0.0912 -0.5034
 2747TIP3    H232437   6.941   2.232  17.116 -0.6284  0.6213 -0.0296
 2748TIP3   OH232438   2.959   7.323  18.552  0.3410 -0.3359 -0.0403
 2748TIP3    H132439   3.009   7.368  18.483 -1.4415 -0.0635 -1.2085
 2748TIP3    H232440   2.885   7.283  18.506 -1.1475  0.1967  1.7770
 2749TIP3   OH232441   3.033   5.241  18.366  0.6906  0.2572 -0.0319
 2749TIP3    H132442   2.996   5.171  18.420  1.6043  0.1147  0.4268
 2749TIP3    H232443   2.970   5.253  18.295  0.4267 -0.9074 -0.0099
 2750TIP3   OH232444   5.110   2.241  18.506  0.5233  0.1936 -0.1028
 2750TIP3    H132445   5.198   2.254  18.470  0.5827  1.7629  0.5209
 2750TIP3    H232446   5.119   2.167  18.567  1.9666  1.6578  1.5809
 2751TIP3   OH232447   2.897   3.104  19.077  0.3157  0.2817  0.4732
 2751TIP3    H132448   2.959   3.032  19.088  2.1458  1.8119  0.7307
 2751TIP3    H232449   2.831   3.071  19.016  0.5320 -1.9228  1.3617
 2752TIP3   OH232450   3.355   6.159  17.466  0.1894  0.1787 -0.0087
 2752TIP3    H132451   3.398   6.245  17.472  0.6001 -0.0994  1.2184
 2752TIP3    H232452   3.396   6.107  17.535  0.6669 -1.3353 -1.3857
 2753TIP3   OH232453   0.339   0.871  16.518 -0.0201 -0.0326  0.2345
 2753TIP3    H132454   0.276   0.802  16.539 -0.8807  0.5694 -0.2926
 2753TIP3    H232455   0.338   0.928  16.595 -1.6677  1.0802 -0.5631
 2754TIP3   OH232456   3.511   4.556  17.952 -0.4343 -0.1433 -0.1496
 2754TIP3    H132457   3.427   4.570  17.908 -1.5142 -2.0617  1.1522
 2754TIP3    H232458   3.487   4.514  18.035  1.8824 -1.8816 -0.2692
 2755TIP3   OH232459   5.459   3.164  17.467  0.4854  0.0730  0.2883
 2755TIP3    H132460   5.469   3.155  17.372  2.3089  0.6365  0.3799
 2755TIP3    H232461   5.373   3.202  17.479 -0.1378 -0.8194 -1.0831
 2756TIP3   OH232462   0.135   5.037  16.716 -0.2164  0.1233 -0.1195
 2756TIP3    H132463   0.040   5.033  16.731 -0.7214  0.4739 -2.7861
 2756TIP3    H232464   0.146   5.103  16.648  2.1000  0.9014  0.9088
 2757TIP3   OH232465   1.125   6.946  18.342  0.0560 -0.2437 -0.6923
 2757TIP3    H132466   1.047   6.997  18.363  0.6012  0.9402 -1.3883
 2757TIP3    H232467   1.178   6.949  18.422  0.1407  0.4105 -0.7678
 2758TIP3   OH232468   4.269   2.349  19.598  0.4507 -0.1344  0.0326
 2758TIP3    H132469   4.174   2.355  19.592  0.3571 -0.2057  1.2498
 2758TIP3    H232470   4.297   2.436  19.628  0.6071 -0.5963  1.2699
 2759TIP3   OH232471   4.614   5.986  17.625  0.3877  0.0549 -0.1477
 2759TIP3    H132472   4.657   5.949  17.548  0.4661  1.0856 -0.6198
 2759TIP3    H232473   4.548   5.922  17.649  1.9843 -1.4636  0.4533
 2760TIP3   OH232474   7.642   5.157  16.331 -0.1119 -0.3723  0.1983
 2760TIP3    H132475   7.614   5.235  16.379  1.6061  1.0891 -1.0334
 2760TIP3    H232476   7.737   5.163  16.328 -0.0562 -1.3766 -1.7689
 2761TIP3   OH232477   4.458   3.032  17.611  0.1364  0.2035 -0.7329
 2761TIP3    H132478   4.428   3.111  17.656 -0.7105  1.4512 -3.2916
 2761TIP3    H232479   4.553   3.030  17.626 -0.0296  0.8766  0.5495
 2762TIP3   OH232480   4.615   5.656  18.303  0.6897 -0.3884 -0.0619
 2762TIP3    H132481   4.528   5.615  18.309  0.9683 -1.7085 -3.2505
 2762TIP3    H232482   4.601   5.747  18.330 -1.9127 -0.3192 -1.3530
 2763TIP3   OH232483   6.793   1.579  17.797 -0.4312 -0.0478  0.0929
 2763TIP3    H132484   6.720   1.525  17.766 -1.4696 -0.5168  3.0105
 2763TIP3    H232485   6.780   1.664  17.754 -1.9495 -0.5273 -0.4749
 2764TIP3   OH232486   1.874   7.073  19.023  0.9856 -0.6915  0.0592
 2764TIP3    H132487   1.785   7.055  18.995  1.1275 -1.0766 -0.1378
 2764TIP3    H232488   1.907   7.137  18.959  1.1288 -1.1667 -0.3425
 2765TIP3   OH232489   2.908   5.748  17.146  0.0201  0.4679 -0.3167
 2765TIP3    H132490   2.886   5.842  17.145 -0.8344  0.2956  0.6197
 2765TIP3    H232491   2.913   5.726  17.239  0.3753 -0.3893 -0.5316
 2766TIP3   OH232492   4.836   4.225  19.310 -0.1165 -0.4400  0.1277
 2766TIP3    H132493   4.762   4.252  19.364  0.2469  0.0242  0.3911
 2766TIP3    H232494   4.806   4.142  19.270 -0.7351 -0.3126  0.3068
 2767TIP3   OH232495   3.742   4.977  18.359  0.3718  0.1763 -0.1826
 2767TIP3    H132496   3.725   5.068  18.335 -0.3249  0.9207  2.7111
 2767TIP3    H232497   3.836   4.974  18.378  0.5858  0.0091 -1.2013
 2768TIP3   OH232498   4.161   2.631  18.440 -0.4242 -0.1174  0.0878
 2768TIP3    H132499   4.134   2.709  18.489 -1.4702  0.0093 -0.6644
 2768TIP3    H232500   4.148   2.654  18.348  0.3414 -0.7892 -0.2033
 2769TIP3   OH232501   7.053   0.833  18.538  0.1511 -0.4879 -0.0867
 2769TIP3    H132502   6.998   0.825  18.616 -0.6991 -0.9049 -0.7111
 2769TIP3    H232503   7.060   0.743  18.504 -1.2158 -0.0634 -1.6272
 2770TIP3   OH232504   0.118   5.123  17.726  0.5535 -0.1181  0.5153
 2770TIP3    H132505   0.038   5.168  17.697  1.1100  0.2177 -0.5728
 2770TIP3    H232506   0.087   5.044  17.769 -0.4744  1.3240  2.6132
 2771TIP3   OH232507   4.082   3.408  18.261  0.1362 -0.2325  0.3439
 2771TIP3    H132508   4.123   3.322  18.265  1.8299  0.4292 -1.3202
 2771TIP3    H232509   4.137   3.458  18.201 -1.4193  1.6862  0.4168
 2772TIP3   OH232510   6.070   0.748  18.362 -0.3106  0.4255  0.2059
 2772TIP3    H132511   6.088   0.839  18.381  0.3175  0.2541  0.4442
 2772TIP3    H232512   6.131   0.699  18.417 -0.8167 -0.1420  0.2757
 2773TIP3   OH232513   4.557   4.142  16.692  0.5071  0.1409 -0.3128
 2773TIP3    H132514   4.502   4.075  16.733  1.3468  0.3748  1.2831
 2773TIP3    H232515   4.552   4.123  16.598  0.8586 -2.2699  0.0909
 2774TIP3   OH232516   0.090   1.647  17.711 -0.1882  0.3754 -0.0830
 2774TIP3    H132517   0.183   1.648  17.689 -0.4705 -2.2706 -1.8664
 2774TIP3    H232518   0.046   1.672  17.630 -1.0646  1.9353  0.8397
 2775TIP3   OH232519   6.366   3.512  19.560  0.2369  0.1091 -0.0237
 2775TIP3    H132520   6.342   3.445  19.496  2.3507  0.5645 -1.4079
 2775TIP3    H232521   6.429   3.469  19.619 -0.2404  0.2192  0.5760
 2776TIP3   OH232522   7.051   0.783  17.288 -0.4708 -0.4628  0.0290
 2776TIP3    H132523   6.990   0.823  17.350 -0.6885  1.6005 -1.4419
 2776TIP3    H232524   7.136   0.819  17.311 -0.3187 -0.8108  0.0161
 2777TIP3   OH232525   4.201   0.423  18.000 -0.2557  0.5298 -0.1037
 2777TIP3    H132526   4.111   0.429  18.033 -0.0211  0.6058  0.5396
 2777TIP3    H232527   4.255   0.413  18.079  0.2393 -0.2063 -0.5277
 2778TIP3   OH232528   5.333   5.560  17.384  0.3704 -0.5204  0.1300
 2778TIP3    H132529   5.273   5.630  17.357  0.2452 -0.7543 -0.2069
 2778TIP3    H232530   5.417   5.585  17.345  0.4441 -0.3069  0.4182
 2779TIP3   OH232531   0.111   1.169  18.454  0.3146  0.2862 -0.2084
 2779TIP3    H132532   0.030   1.220  18.454  0.9694  1.3738 -1.0478
 2779TIP3    H232533   0.087   1.087  18.409 -0.0662  1.0656 -1.4835
 2780TIP3   OH232534   7.440   1.313  17.629  0.1322  0.3973  0.6977
 2780TIP3    H132535   7.417   1.343  17.541  0.1905 -1.0006  0.1894
 2780TIP3    H232536   7.392   1.373  17.687  0.9260  2.0148 -0.2301
 2781TIP3   OH232537   3.371   5.702  18.602  0.0388  0.3958 -0.4918
 2781TIP3    H132538   3.413   5.656  18.529 -0.3322  1.0129 -1.1023
 2781TIP3    H232539   3.278   5.701  18.580  0.0171  1.3645 -0.4782
 2782TIP3   OH232540   1.413   2.842  16.923  0.4598  0.2161  0.6187
 2782TIP3    H132541   1.403   2.884  17.009  0.9256  2.5250 -0.3868
 2782TIP3    H232542   1.341   2.877  16.871  0.0821 -1.2968  0.0773
 2783TIP3   OH232543   3.884   6.407  18.553  0.3158 -0.3748 -0.2428
 2783TIP3    H132544   3.934   6.484  18.524  1.0323 -0.9299 -0.5244
 2783TIP3    H232545   3.864   6.360  18.472 -1.5067  0.3211 -0.2284
 2784TIP3   OH232546   4.256   5.789  18.426 -0.5865  0.5295  0.6771
 2784TIP3    H132547   4.248   5.751  18.513 -0.3425 -0.2036  0.3853
 2784TIP3    H232548   4.332   5.846  18.431  0.5761 -0.9490  0.4403
 2785TIP3   OH232549   2.349   3.506  16.844  0.8856 -0.7986  0.1028
 2785TIP3    H132550   2.270   3.489  16.896 -0.1250 -0.6792 -1.3000
 2785TIP3    H232551   2.367   3.423  16.801  2.3158 -1.1790  1.3884
 2786TIP3   OH232552   4.958   3.218  17.737  0.0406  0.0381  0.1186
 2786TIP3    H132553   4.908   3.299  17.730 -0.3942 -0.2705 -0.4153
 2786TIP3    H232554   5.028   3.238  17.800 -1.3182  0.1800  1.6275
 2787TIP3   OH232555   4.883   6.396  19.044  0.0943  0.1877  0.3547
 2787TIP3    H132556   4.945   6.424  18.977 -1.3560  0.3258 -0.9926
 2787TIP3    H232557   4.931   6.332  19.096  0.9417 -0.7831 -1.5038
 2788TIP3   OH232558   6.733   7.529  19.397 -0.3948  0.2593 -0.4920
 2788TIP3    H132559   6.677   7.453  19.381  0.1699 -0.2568 -0.0411
 2788TIP3    H232560   6.698   7.597  19.338  1.6764 -1.5357 -4.0986
 2789TIP3   OH232561   4.192   2.502  19.279  0.2548  0.5474  0.6203
 2789TIP3    H132562   4.163   2.590  19.302  0.5024  0.8094 -0.0441
 2789TIP3    H232563   4.240   2.514  19.197 -1.0346 -0.4220 -0.3073
 2790TIP3   OH232564   6.786   0.339  17.204 -0.0712  0.3801  0.3822
 2790TIP3    H132565   6.768   0.384  17.287  0.1291  1.9624 -0.3975
 2790TIP3    H232566   6.847   0.396  17.159  0.5622 -0.9329 -0.4702
 2791TIP3   OH232567   6.639   3.199  18.114 -0.6047  0.1323  0.1755
 2791TIP3    H132568   6.592   3.273  18.077 -0.3184  0.3393  0.2251
 2791TIP3    H232569   6.731   3.213  18.089 -0.6790 -0.6953 -0.6121
 2792TIP3   OH232570   6.747   1.792  17.621 -0.0380 -0.3604 -0.0791
 2792TIP3    H132571   6.683   1.831  17.681 -1.7480 -3.0109 -0.0469
 2792TIP3    H232572   6.724   1.828  17.535  1.7880  2.6586  0.5326
 2793TIP3   OH232573   1.686   4.618  19.157  0.0737 -0.0559  0.0820
 2793TIP3    H132574   1.655   4.707  19.139  0.3502  0.0511  0.1284
 2793TIP3    H232575   1.606   4.564  19.157 -0.0607  0.1386 -0.2686
 2794TIP3   OH232576   7.487   2.247  17.179 -0.1076 -0.5004 -0.7792
 2794TIP3    H132577   7.456   2.335  17.155  0.0372  0.8452  3.2834
 2794TIP3    H232578   7.577   2.245  17.147  0.4897  1.6047  0.5627
 2795TIP3   OH232579   4.664   3.345  17.894 -0.0097 -0.6246  0.0571
 2795TIP3    H132580   4.718   3.384  17.826  0.6859 -1.4740  0.0974
 2795TIP3    H232581   4.712   3.360  17.975 -1.1180  0.8921  0.4664
 2796TIP3   OH232582   1.570   2.740  18.495 -0.4802  0.3544  0.0921
 2796TIP3    H132583   1.618   2.667  18.456 -2.7369 -0.7842 -0.7580
 2796TIP3    H232584   1.566   2.806  18.426 -0.3838  0.3198  0.0537
 2797TIP3   OH232585   5.313   0.912  17.181  0.5584 -0.0929  0.2855
 2797TIP3    H132586   5.373   0.896  17.108  1.6204 -0.2630  1.1528
 2797TIP3    H232587   5.324   1.005  17.201  0.2660 -0.0456  0.2247
 2798TIP3   OH232588   2.292   1.384  18.094 -0.1489  0.3970 -0.6706
 2798TIP3    H132589   2.282   1.477  18.077  2.8103  1.0862  0.5554
 2798TIP3    H232590   2.275   1.375  18.188  0.3258 -0.1129 -0.6228
 2799TIP3   OH232591   6.938   5.673  18.919 -0.1539  0.0985  0.0893
 2799TIP3    H132592   6.843   5.664  18.920 -0.0121 -1.4911  0.5585
 2799TIP3    H232593   6.962   5.685  19.010  0.0026  2.0122 -0.1592
 2800TIP3   OH232594   1.110   2.210  17.791 -0.4020  0.9974  0.2728
 2800TIP3    H132595   1.088   2.210  17.884 -0.9103  0.3248  0.1580
 2800TIP3    H232596   1.193   2.257  17.786  1.0429 -1.2497  1.4048
 2801TIP3   OH232597   3.523   3.048  18.894  0.5935 -0.3370 -0.1195
 2801TIP3    H132598   3.602   3.081  18.937  1.0021  0.7204 -1.5952
 2801TIP3    H232599   3.545   3.047  18.801 -1.4027  0.8783 -0.6777
 2802TIP3   OH232600   1.882   6.829  18.798  0.0089 -0.1295  0.0901
 2802TIP3    H132601   1.812   6.879  18.756 -1.5322 -0.8818  1.6413
 2802TIP3    H232602   1.941   6.806  18.726  0.7520  3.6756 -0.7559
 2803TIP3   OH232603   0.608   3.762  18.307  0.0367 -0.9411 -0.0342
 2803TIP3    H132604   0.531   3.756  18.364 -0.0244 -1.8597 -0.2047
 2803TIP3    H232605   0.662   3.829  18.349 -1.1291  0.2006 -0.2569
 2804TIP3   OH232606   2.225   5.853  19.257 -0.3629 -0.1432 -0.3633
 2804TIP3    H132607   2.156   5.907  19.296 -1.5733 -1.0789 -1.1532
 2804TIP3    H232608   2.209   5.858  19.163  1.7290  1.0145 -0.7286
 2805TIP3   OH232609   6.500   5.908  16.924  0.2999  0.2399  0.0633
 2805TIP3    H132610   6.411   5.908  16.960 -0.4964 -0.6763 -1.7729
 2805TIP3    H232611   6.502   5.833  16.865  2.2877  0.2934  0.0019
 2806TIP3   OH232612   5.135   2.030  19.182  0.0122  0.5496  0.5354
 2806TIP3    H132613   5.147   2.059  19.272  0.1912 -0.4052  0.8291
 2806TIP3    H232614   5.041   2.012  19.176 -0.1468  1.3927  0.2746
 2807TIP3   OH232615   6.812   1.175  19.555 -0.0856 -0.2021 -0.1145
 2807TIP3    H132616   6.899   1.175  19.515  0.3495 -1.5082  0.7596
 2807TIP3    H232617   6.771   1.257  19.525  2.2387  1.5619  1.2027
 2808TIP3   OH232618   7.576   0.122  16.522  0.6297 -0.3903  0.4346
 2808TIP3    H132619   7.651   0.173  16.553  0.5885 -1.8818  3.3913
 2808TIP3    H232620   7.615   0.043  16.485  0.5673 -0.4166  0.4244
 2809TIP3   OH232621   6.506   3.968  17.251  0.3640  0.6748  0.5374
 2809TIP3    H132622   6.574   3.971  17.184 -0.4025  0.2341 -0.2830
 2809TIP3    H232623   6.524   3.887  17.299 -1.5019 -1.2930 -1.8316
 2810TIP3   OH232624   3.976   4.000  18.824  0.0160  0.4253  0.4264
 2810TIP3    H132625   3.950   3.913  18.795 -0.1385  0.8006 -0.6294
 2810TIP3    H232626   3.975   4.053  18.744  2.9628  0.7234  0.4920
 2811TIP3   OH232627   3.633   1.648  18.215  0.1542  0.6355 -0.1657
 2811TIP3    H132628   3.599   1.656  18.304 -1.5436  0.4259 -0.7610
 2811TIP3    H232629   3.612   1.558  18.190  2.1590  0.1298 -0.2057
 2812TIP3   OH232630   4.776   1.954  18.172  0.6757 -0.9451 -0.1191
 2812TIP3    H132631   4.839   1.890  18.137  1.1263 -0.3816 -0.3696
 2812TIP3    H232632   4.719   1.904  18.229  0.2526 -1.8087 -1.2628
 2813TIP3   OH232633   0.879   5.471  17.978  0.3279 -0.0353  0.4900
 2813TIP3    H132634   0.881   5.565  17.994  1.1893  0.2577 -1.1032
 2813TIP3    H232635   0.787   5.449  17.970  0.0270  0.3589  2.3757
 2814TIP3   OH232636   6.327   6.086  16.508 -0.2679  0.0452  0.4735
 2814TIP3    H132637   6.399   6.066  16.448 -0.1212  0.2297  0.5858
 2814TIP3    H232638   6.267   6.140  16.457 -0.0501  0.3590  0.5525
 2815TIP3   OH232639   2.684   1.263  18.577  0.2279  0.4804  0.5107
 2815TIP3    H132640   2.669   1.285  18.669  1.5205  0.3274  0.7671
 2815TIP3    H232641   2.624   1.321  18.529 -1.4254 -0.3603  1.4745
 2816TIP3   OH232642   0.660   0.489  17.417 -0.0263 -0.3736  0.2078
 2816TIP3    H132643   0.662   0.542  17.337 -0.4832 -1.5013 -0.5761
 2816TIP3    H232644   0.746   0.446  17.419  0.3756  0.4322  0.8879
 2817TIP3   OH232645   0.142   4.646  19.287  0.2575  0.0266  0.1867
 2817TIP3    H132646   0.171   4.624  19.198  0.3914  0.5801  0.0914
 2817TIP3    H232647   0.089   4.571  19.314  0.3134 -0.1980 -0.3181
 2818TIP3   OH232648   6.191   5.460  18.688 -0.2032 -0.0585  0.4095
 2818TIP3    H132649   6.111   5.500  18.655  0.4513 -0.4362 -1.7618
 2818TIP3    H232650   6.262   5.499  18.636  1.3115  1.6430  3.4795
 2819TIP3   OH232651   3.746   6.529  17.190  0.1858 -0.0796 -0.3848
 2819TIP3    H132652   3.717   6.444  17.222  0.7188 -0.6667 -1.3913
 2819TIP3    H232653   3.816   6.508  17.128  1.2019  1.1623  0.2916
 2820TIP3   OH232654   1.000   3.534  18.221 -0.2960 -0.4500  0.3920
 2820TIP3    H132655   0.956   3.616  18.203 -0.7923 -0.9246 -0.6274
 2820TIP3    H232656   0.956   3.500  18.299  0.9475  0.9541  1.7804
 2821TIP3   OH232657   1.673   0.845  17.127  0.0287  0.1512  0.1024
 2821TIP3    H132658   1.714   0.807  17.204 -0.3018 -0.4510 -0.0167
 2821TIP3    H232659   1.743   0.852  17.062  0.4050  1.0437  0.5825
 2822TIP3   OH232660   6.548   7.312  17.603 -0.2331  0.0039 -0.0164
 2822TIP3    H132661   6.625   7.331  17.657  1.9598 -0.7389 -2.7113
 2822TIP3    H232662   6.545   7.217  17.599 -3.0169 -0.1513  2.1973
 2823TIP3   OH232663   3.745   4.366  18.365  0.1180 -0.0506  0.3886
 2823TIP3    H132664   3.719   4.347  18.275  0.2258 -3.0271  0.9002
 2823TIP3    H232665   3.838   4.388  18.359  0.0638  0.0218 -0.2346
 2824TIP3   OH232666   2.908   0.639  18.265 -0.2372 -0.0141  0.2116
 2824TIP3    H132667   2.961   0.665  18.190  0.2635 -0.8027  0.2716
 2824TIP3    H232668   2.926   0.706  18.331  1.4176 -0.7171  0.5420
 2825TIP3   OH232669   6.151   3.582  18.045 -0.2313 -0.1531  0.2174
 2825TIP3    H132670   6.101   3.664  18.036  0.2708  0.0623 -0.7898
 2825TIP3    H232671   6.182   3.583  18.135  0.1068  0.9774  0.1038
 2826TIP3   OH232672   7.069   3.567  19.317 -0.3605  0.1055  0.1933
 2826TIP3    H132673   6.991   3.514  19.326 -0.8921  0.2795 -2.4118
 2826TIP3    H232674   7.046   3.633  19.251  1.2614  1.6146  1.0304
 2827TIP3   OH232675   4.326   2.356  17.595  0.9868 -0.3491 -0.1806
 2827TIP3    H132676   4.383   2.373  17.669  0.8103  1.5115 -0.4250
 2827TIP3    H232677   4.357   2.415  17.527  0.9690 -1.8175 -1.5290
 2828TIP3   OH232678   4.558   3.279  19.161  0.2772 -0.0355 -0.6119
 2828TIP3    H132679   4.592   3.350  19.216  0.3028  0.8166 -1.6928
 2828TIP3    H232680   4.635   3.245  19.116  0.0125  0.4570 -1.4475
 2829TIP3   OH232681   7.031   6.078  17.201 -0.1735 -0.3054  0.0544
 2829TIP3    H132682   6.945   6.120  17.196 -1.2116 -2.2974  0.1090
 2829TIP3    H232683   7.087   6.143  17.242 -1.6785  1.0329  0.0807
 2830TIP3   OH232684   6.300   5.908  17.130 -0.2585  0.3310  0.3065
 2830TIP3    H132685   6.222   5.889  17.182  0.0717 -0.4933  0.5174
 2830TIP3    H232686   6.363   5.943  17.194  0.3658 -1.2745  0.6077
 2831TIP3   OH232687   6.844   2.550  18.890  0.0852  0.2859 -0.3258
 2831TIP3    H132688   6.831   2.637  18.854  0.7059  0.2645 -0.6107
 2831TIP3    H232689   6.868   2.496  18.814 -1.4138 -0.3950 -0.3535
 2832TIP3   OH232690   0.537   4.780  18.595 -0.2242  0.3556  0.4140
 2832TIP3    H132691   0.616   4.835  18.597 -0.9812  1.6075 -1.3315
 2832TIP3    H232692   0.514   4.775  18.502 -0.3767 -2.7456  0.5122
 2833TIP3   OH232693   6.300   6.754  18.276 -0.4768 -0.4704  0.2544
 2833TIP3    H132694   6.280   6.793  18.191 -1.9687  0.2302  0.8972
 2833TIP3    H232695   6.273   6.820  18.340  1.7070 -0.5066  1.2769
 2834TIP3   OH232696   2.198   5.682  17.271  0.3745 -0.1931  0.5028
 2834TIP3    H132697   2.225   5.701  17.181  0.9251  1.2603  0.9351
 2834TIP3    H232698   2.102   5.682  17.268  0.3871 -0.7698 -0.1834
 2835TIP3   OH232699   6.795   3.395  17.752 -0.2661  0.1457 -0.0569
 2835TIP3    H132700   6.882   3.369  17.721 -1.0183 -0.4173 -1.7837
 2835TIP3    H232701   6.735   3.335  17.708 -1.4577 -0.5241  2.3202
 2836TIP3   OH232702   4.812   4.229  18.371 -0.5604 -0.0873 -0.2009
 2836TIP3    H132703   4.737   4.248  18.427  1.4374  0.6307  2.4199
 2836TIP3    H232704   4.841   4.314  18.338 -0.8649 -0.3600 -1.2159
 2837TIP3   OH232705   1.485   3.185  19.030  0.1806  0.0450  0.0858
 2837TIP3    H132706   1.529   3.140  18.958 -0.4718  1.1910 -1.0682
 2837TIP3    H232707   1.549   3.248  19.062  0.2490 -0.0208  0.0782
 2838TIP3   OH232708   2.498   5.010  19.159 -0.2422  0.1846  0.0235
 2838TIP3    H132709   2.542   5.077  19.107  0.8298 -0.1752  0.4421
 2838TIP3    H232710   2.451   5.059  19.227 -0.5105  0.5785 -0.4460
 2839TIP3   OH232711   5.303   3.367  17.846  0.1033 -0.5169 -0.0615
 2839TIP3    H132712   5.293   3.278  17.879  0.1767 -0.5353 -0.0905
 2839TIP3    H232713   5.393   3.372  17.816  0.0414 -0.4956 -0.2453
 2840TIP3   OH232714   0.509   6.320  19.494 -0.0925 -0.3312 -0.0358
 2840TIP3    H132715   0.525   6.258  19.565  2.0634  0.7038  0.4827
 2840TIP3    H232716   0.583   6.308  19.434 -1.6675 -0.9143 -1.9563
 2841TIP3   OH232717   7.012   6.561  18.587  0.0522  0.0076 -0.2609
 2841TIP3    H132718   6.959   6.640  18.600  1.5656  1.3426 -1.8156
 2841TIP3    H232719   7.066   6.555  18.666 -0.1277  0.4699 -0.1021
 2842TIP3   OH232720   0.993   1.385  17.310 -0.0771 -0.5129 -0.3126
 2842TIP3    H132721   0.926   1.399  17.243 -0.1568  0.3565 -0.0656
 2842TIP3    H232722   1.073   1.365  17.260  0.1539  1.3181 -0.7500
 2843TIP3   OH232723   6.324   1.077  19.624 -0.3826 -0.1222 -0.6743
 2843TIP3    H132724   6.274   1.158  19.616  0.7271  0.7078  0.4766
 2843TIP3    H232725   6.388   1.082  19.552 -0.4309 -0.0664 -0.7145
 2844TIP3   OH232726   3.174   3.306  18.970 -0.3007  0.1338 -0.4528
 2844TIP3    H132727   3.105   3.367  18.994 -1.0185 -0.3978 -1.1306
 2844TIP3    H232728   3.227   3.297  19.050 -0.5131  1.1843 -0.1814
 2845TIP3   OH232729   4.480   5.981  18.770  0.1335  0.6005  0.5344
 2845TIP3    H132730   4.486   6.068  18.733 -0.8396  0.5877  0.3218
 2845TIP3    H232731   4.387   5.968  18.787  0.5618  0.8941  3.6668
 2846TIP3   OH232732   0.217   6.277  17.746 -0.3965 -0.3198  0.1800
 2846TIP3    H132733   0.241   6.207  17.685 -0.0803 -0.5051  0.5153
 2846TIP3    H232734   0.242   6.243  17.832  0.0262  0.3237  0.3119
 2847TIP3   OH232735   2.494   4.054  19.151  0.6879  1.1002 -0.0554
 2847TIP3    H132736   2.484   4.137  19.104 -0.9579  0.4234 -0.9984
 2847TIP3    H232737   2.523   3.992  19.083 -1.7109  0.1100 -0.2605
 2848TIP3   OH232738   6.396   1.913  18.038 -0.3406  0.4567 -0.5244
 2848TIP3    H132739   6.393   1.832  18.090  1.5265  1.2738  1.0038
 2848TIP3    H232740   6.305   1.936  18.023 -0.9087 -1.4777 -0.2663
 2849TIP3   OH232741   7.006   4.081  18.887  0.4033  0.0054 -0.4255
 2849TIP3    H132742   6.962   4.165  18.901 -0.7307 -0.8259  1.2639
 2849TIP3    H232743   7.013   4.073  18.792  0.7702  2.1159 -0.6245
 2850TIP3   OH232744   0.821   4.973  17.471  0.2015  0.1769 -0.5937
 2850TIP3    H132745   0.727   4.994  17.465 -0.3055 -1.4767  0.6502
 2850TIP3    H232746   0.856   5.039  17.532 -0.9305 -1.1666  1.6607
 2851TIP3   OH232747   7.430   7.559  18.385  0.3451 -0.5905 -0.5007
 2851TIP3    H132748   7.485   7.616  18.438 -0.7185 -0.1998  0.2263
 2851TIP3    H232749   7.491   7.510  18.330  1.4502 -0.6511  0.7305
 2852TIP3   OH232750   0.626   7.145  17.687  0.2507  0.0593 -0.9729
 2852TIP3    H132751   0.677   7.213  17.731 -0.2360  0.2928 -0.7678
 2852TIP3    H232752   0.537   7.157  17.718  0.0816 -0.4096 -1.2579
 2853TIP3   OH232753   0.546   1.778  17.226  0.6884  0.2174 -0.2451
 2853TIP3    H132754   0.562   1.720  17.151 -1.2526  0.9183 -1.2967
 2853TIP3    H232755   0.550   1.721  17.302  0.1940 -1.0368 -1.1249
 2854TIP3   OH232756   1.935   1.335  17.105  0.0105 -0.0930 -0.1989
 2854TIP3    H132757   1.901   1.253  17.068 -0.5895  0.4300 -0.8525
 2854TIP3    H232758   1.935   1.320  17.199 -3.0893  0.1970 -0.0476
 2855TIP3   OH232759   4.952   0.369  18.785  0.3315 -0.3904  0.3677
 2855TIP3    H132760   5.040   0.404  18.790  0.1217 -0.0385  2.1345
 2855TIP3    H232761   4.895   0.446  18.781  0.0207 -0.5773  1.0830
 2856TIP3   OH232762   1.929   1.826  19.259 -0.1861  0.0530 -0.5044
 2856TIP3    H132763   2.025   1.832  19.268 -0.2225 -0.1230 -0.0283
 2856TIP3    H232764   1.916   1.762  19.189  0.0317 -0.4460 -0.0963
 2857TIP3   OH232765   4.249   4.201  17.193 -0.0805  0.4982 -0.2678
 2857TIP3    H132766   4.271   4.201  17.286 -0.8747 -0.5474 -0.0725
 2857TIP3    H232767   4.324   4.158  17.150  0.1495  0.7180 -0.0904
 2858TIP3   OH232768   4.737   3.089  17.634 -0.5400  0.2241 -0.7455
 2858TIP3    H132769   4.742   3.001  17.598  1.2092 -0.1881  0.3937
 2858TIP3    H232770   4.823   3.105  17.672 -0.5859  2.6885 -1.4884
 2859TIP3   OH232771   0.373   1.178  19.307 -0.2944 -0.1937  0.1853
 2859TIP3    H132772   0.372   1.274  19.303  1.5268 -0.1623 -0.5069
 2859TIP3    H232773   0.422   1.158  19.387 -1.1328 -0.5666  0.6167
 2860TIP3   OH232774   4.582   4.536  19.135 -0.3781  0.2646 -0.2910
 2860TIP3    H132775   4.511   4.502  19.190  0.9661 -0.4728  1.0515
 2860TIP3    H232776   4.604   4.620  19.175  0.3031 -0.0689  0.0518
 2861TIP3   OH232777   6.389   6.382  17.219  0.0362 -0.2307  0.0108
 2861TIP3    H132778   6.367   6.323  17.146 -1.4437  2.8395 -2.2352
 2861TIP3    H232779   6.326   6.359  17.288  0.0345 -1.7431 -0.4479
 2862TIP3   OH232780   0.056   4.805  18.711  0.4552  0.4199 -0.4401
 2862TIP3    H132781   0.150   4.801  18.728  0.1809  1.2546  1.5975
 2862TIP3    H232782   0.032   4.715  18.687  1.6744  0.0893 -0.4903
 2863TIP3   OH232783   4.886   3.509  17.811  0.0132  0.0670 -0.4320
 2863TIP3    H132784   4.942   3.562  17.754  0.6418  0.5536  0.6129
 2863TIP3    H232785   4.863   3.568  17.883 -2.1016 -0.0231 -0.9536
 2864TIP3   OH232786   3.457   5.184  17.935 -0.3973  0.0640 -0.7627
 2864TIP3    H132787   3.430   5.092  17.937  1.1321 -0.4057  0.9251
 2864TIP3    H232788   3.518   5.189  17.861  2.3489 -1.2338  1.2662
 2865TIP3   OH232789   7.294   1.430  18.241  0.8019 -0.3140 -0.0311
 2865TIP3    H132790   7.216   1.479  18.213  0.5165 -0.6648  0.1549
 2865TIP3    H232791   7.364   1.461  18.182  1.5370  3.0318  2.3305
 2866TIP3   OH232792   4.628   3.782  19.170  0.2677  0.6317 -0.4861
 2866TIP3    H132793   4.594   3.838  19.100 -0.1601  2.7443  1.2934
 2866TIP3    H232794   4.689   3.838  19.218  1.2160 -1.0340  0.3062
 2867TIP3   OH232795   7.468   6.772  17.625  0.4458 -0.2027  0.5889
 2867TIP3    H132796   7.469   6.731  17.711  0.4630 -0.6979  0.3518
 2867TIP3    H232797   7.557   6.807  17.614  0.5999 -0.6094  0.5450
 2868TIP3   OH232798   2.575   6.013  17.423  0.3485 -0.4271  0.0604
 2868TIP3    H132799   2.533   5.958  17.356 -0.5028 -0.7916  0.8742
 2868TIP3    H232800   2.541   6.101  17.405  0.1646 -0.5137 -0.0238
 2869TIP3   OH232801   4.255   5.188  16.676  0.2328  0.1360  0.0592
 2869TIP3    H132802   4.180   5.236  16.640  0.5945  0.8603  0.2432
 2869TIP3    H232803   4.270   5.116  16.614 -1.0338 -0.4204  0.3825
 2870TIP3   OH232804   7.067   3.619  17.654 -0.4204  1.0080 -0.1592
 2870TIP3    H132805   7.156   3.630  17.622 -0.3768  0.1868 -0.3471
 2870TIP3    H232806   7.063   3.672  17.734 -0.1481  2.0575 -0.8264
 2871TIP3   OH232807   6.869   5.976  17.738  0.4991  0.1594  0.3247
 2871TIP3    H132808   6.893   5.939  17.653 -0.5389  0.9253 -0.3158
 2871TIP3    H232809   6.865   5.900  17.796 -0.3523 -0.5897 -0.6656
 2872TIP3   OH232810   0.375   1.666  18.876 -0.5160 -0.4662 -0.4901
 2872TIP3    H132811   0.441   1.637  18.813  2.5599 -1.9275  3.0662
 2872TIP3    H232812   0.400   1.756  18.898 -0.8978 -0.3507 -0.5067
 2873TIP3   OH232813   2.308   3.545  18.428 -0.0806  0.1146 -0.1577
 2873TIP3    H132814   2.217   3.572  18.412  0.2891  2.8853  1.8305
 2873TIP3    H232815   2.300   3.463  18.476 -1.5869  0.8443  0.9005
 2874TIP3   OH232816   1.283   0.014  17.927  0.2636 -0.3534 -0.2648
 2874TIP3    H132817   1.353   0.062  17.971  0.3108 -1.7393  1.2963
 2874TIP3    H232818   1.204   0.035  17.977 -0.1952  0.1537 -1.1918
 2875TIP3   OH232819   4.366   2.870  17.950 -0.6288  0.4385  0.1843
 2875TIP3    H132820   4.323   2.857  18.034 -1.7450 -0.9935 -0.5407
 2875TIP3    H232821   4.320   2.945  17.911 -0.1428  1.0714  0.8088
 2876TIP3   OH232822   6.345   5.987  17.920  0.0770  0.0975 -0.0792
 2876TIP3    H132823   6.380   5.940  17.995 -0.3792 -0.5643 -0.2770
 2876TIP3    H232824   6.272   6.038  17.955 -0.2981 -0.4060 -0.1072
 2877TIP3   OH232825   2.417   2.601  18.324 -0.0496 -0.0066 -0.2061
 2877TIP3    H132826   2.388   2.692  18.325 -0.9823 -0.2970 -0.1595
 2877TIP3    H232827   2.338   2.551  18.304 -0.0776 -0.9874  2.1038
 2878TIP3   OH232828   5.721   0.458  17.139 -0.4130 -0.0002  0.1639
 2878TIP3    H132829   5.672   0.477  17.219  0.6857  1.0085  0.6381
 2878TIP3    H232830   5.661   0.407  17.086 -0.8098 -1.6182  2.0513
 2879TIP3   OH232831   3.969   1.252  19.127 -0.0053 -0.0726  0.1110
 2879TIP3    H132832   3.994   1.329  19.179  1.1863 -0.2934 -0.1020
 2879TIP3    H232833   4.030   1.184  19.156 -0.8774 -0.8679  0.1060
 2880TIP3   OH232834   5.770   2.126  16.877 -0.1406  0.4898 -0.4618
 2880TIP3    H132835   5.861   2.151  16.864 -0.1480 -0.2408 -2.3568
 2880TIP3    H232836   5.722   2.177  16.812 -1.2422  1.5444  1.1127
 2881TIP3   OH232837   1.766   3.355  18.682  0.0322 -0.3827 -0.3040
 2881TIP3    H132838   1.717   3.436  18.669 -3.1759 -2.0151  0.5353
 2881TIP3    H232839   1.723   3.292  18.623  0.3949 -2.1767  1.2581
 2882TIP3   OH232840   6.743   7.092  18.746  0.2901 -0.1503  0.5631
 2882TIP3    H132841   6.819   7.072  18.692  1.3714  0.6911  1.7268
 2882TIP3    H232842   6.675   7.118  18.684  1.3706  0.4114 -0.4156
 2883TIP3   OH232843   5.240   6.698  17.009 -0.1188  0.5646  0.2527
 2883TIP3    H132844   5.231   6.655  16.924 -1.0395  0.8035  0.2206
 2883TIP3    H232845   5.180   6.650  17.067  0.2314  0.6330  0.6852
 2884TIP3   OH232846   4.800   6.275  17.238  0.2084 -0.4970 -0.6205
 2884TIP3    H132847   4.812   6.369  17.223  1.6359 -0.9962 -3.3627
 2884TIP3    H232848   4.883   6.246  17.275 -0.3845 -0.6342  0.6311
 2885TIP3   OH232849   6.916   3.013  18.174 -0.3097 -0.2873 -0.3919
 2885TIP3    H132850   6.989   3.072  18.192  0.0664 -1.2465  1.4200
 2885TIP3    H232851   6.842   3.051  18.221 -0.3286 -0.7058 -0.0825
 2886TIP3   OH232852   2.907   7.325  17.584  0.2210 -0.1930  0.0993
 2886TIP3    H132853   2.816   7.352  17.593  0.1125 -1.0813  2.4117
 2886TIP3    H232854   2.905   7.230  17.597  1.3211 -0.4611 -1.4262
 2887TIP3   OH232855   0.023   3.436  17.954  0.5049 -0.1419 -0.5831
 2887TIP3    H132856  -0.023   3.354  17.933 -0.0886 -0.8188  2.7118
 2887TIP3    H232857  -0.035   3.505  17.921 -1.7553 -1.0308  1.2472
 2888TIP3   OH232858   2.074   0.079  16.908  0.1833  0.1280 -0.0462
 2888TIP3    H132859   2.035   0.163  16.885 -1.1382 -1.0180 -2.4001
 2888TIP3    H232860   2.005   0.033  16.955  0.4722 -0.0909  0.1680
 2889TIP3   OH232861   2.266   2.010  18.004  0.7035  0.2945 -0.2779
 2889TIP3    H132862   2.270   2.005  18.099  0.5506  0.3997 -0.2646
 2889TIP3    H232863   2.355   2.031  17.977  0.9568 -0.6930 -0.2254
 2890TIP3   OH232864   0.092   7.037  19.106  0.3624  0.1104  0.0223
 2890TIP3    H132865   0.084   7.126  19.142 -0.1064  0.4297 -0.8325
 2890TIP3    H232866   0.002   7.003  19.109  0.2040  0.3593 -1.3503
 2891TIP3   OH232867   0.751   5.815  17.200 -0.0812  0.0392 -0.0357
 2891TIP3    H132868   0.664   5.795  17.165 -0.1872 -0.0431  0.2732
 2891TIP3    H232869   0.790   5.730  17.218 -0.2939  0.0833  0.6922
 2892TIP3   OH232870   0.590   1.188  17.043 -0.3386 -0.2063 -0.1360
 2892TIP3    H132871   0.647   1.113  17.023 -1.3074 -1.2957  1.0387
 2892TIP3    H232872   0.544   1.205  16.961  0.0818 -0.7219 -0.4930
 2893TIP3   OH232873   1.042   5.248  19.046 -0.0921  0.2014  0.2020
 2893TIP3    H132874   0.983   5.181  19.009 -3.2551  2.0275  1.5645
 2893TIP3    H232875   1.053   5.222  19.137 -0.9288  1.2289  0.6060
 2894TIP3   OH232876   0.271   3.092  18.751 -0.1032 -0.5798  0.4559
 2894TIP3    H132877   0.216   3.085  18.829 -1.3759  2.0071 -0.1017
 2894TIP3    H232878   0.357   3.118  18.785  0.7149 -3.8625  1.2626
 2895TIP3   OH232879   4.861   4.505  17.658  0.2983  0.6063  0.1667
 2895TIP3    H132880   4.912   4.525  17.737  0.7615  2.2537 -0.5000
 2895TIP3    H232881   4.898   4.423  17.625  0.9178  0.5428  0.9873
 2896TIP3   OH232882   6.620   6.802  18.452  0.1038  0.3580 -0.0435
 2896TIP3    H132883   6.672   6.839  18.381 -0.5423  2.9880  0.7641
 2896TIP3    H232884   6.553   6.868  18.470 -2.9384 -2.3858 -0.3336
 2897TIP3   OH232885   2.382   4.583  18.939 -0.1131  0.5426  0.7585
 2897TIP3    H132886   2.335   4.553  19.017 -3.7582  2.2525 -0.5210
 2897TIP3    H232887   2.394   4.677  18.952  1.6221  0.4201  0.3120
 2898TIP3   OH232888   6.417   5.628  18.187  0.0110  0.4192 -0.3507
 2898TIP3    H132889   6.442   5.713  18.223  2.2145 -0.9371  1.6145
 2898TIP3    H232890   6.335   5.605  18.230 -0.3163  1.2815 -0.5020
 2899TIP3   OH232891   4.841   4.721  19.258 -0.2267  0.1903 -0.7607
 2899TIP3    H132892   4.917   4.753  19.209 -0.3287  0.1581 -0.9399
 2899TIP3    H232893   4.856   4.627  19.268 -0.3326  0.1507 -0.9586
 2900TIP3   OH232894   4.166   2.036  19.008 -0.2320  0.3665  0.1304
 2900TIP3    H132895   4.086   2.089  19.008 -0.5663 -0.0661  1.7754
 2900TIP3    H232896   4.136   1.946  19.023  0.5277  0.1577  0.4634
 2901TIP3   OH232897   6.030   3.649  19.131  0.1884 -0.4507  0.3440
 2901TIP3    H132898   5.948   3.634  19.084  0.0134  0.2053  0.4321
 2901TIP3    H232899   6.093   3.673  19.063 -0.0897  0.5994  0.4314
 2902TIP3   OH232900   7.579   2.086  16.489 -0.4267 -0.0166  0.3444
 2902TIP3    H132901   7.581   2.174  16.451 -0.1798  0.3709  1.2290
 2902TIP3    H232902   7.524   2.035  16.429  1.4711  0.0685 -1.5744
 2903TIP3   OH232903   1.772   5.433  18.983 -0.3599  0.2413 -0.0179
 2903TIP3    H132904   1.727   5.440  18.899  1.7064  4.4018 -1.0271
 2903TIP3    H232905   1.713   5.474  19.046 -0.0482  1.2379 -0.3644
 2904TIP3   OH232906   7.250   2.829  17.764 -0.1084 -0.0051 -0.4965
 2904TIP3    H132907   7.213   2.851  17.850  0.7686 -1.4380  0.2812
 2904TIP3    H232908   7.190   2.870  17.701 -2.2163 -1.0329  0.7400
 2905TIP3   OH232909   2.210   1.816  17.822  0.1858  0.0586 -0.1163
 2905TIP3    H132910   2.134   1.760  17.842 -0.6221  0.8922 -0.7655
 2905TIP3    H232911   2.228   1.862  17.904  1.9926 -2.3806  0.9862
 2906TIP3   OH232912   6.284   1.622  19.414  0.5071  0.0927  0.2854
 2906TIP3    H132913   6.364   1.589  19.372  1.7054  1.5791  1.2744
 2906TIP3    H232914   6.242   1.675  19.346  1.3612  0.8190  0.2932
 2907TIP3   OH232915   5.068   3.480  19.197  0.9099  0.0336  0.3711
 2907TIP3    H132916   5.132   3.547  19.221 -0.9542  2.0912 -0.0065
 2907TIP3    H232917   4.986   3.529  19.185 -0.2871 -2.1628 -1.1360
 2908TIP3   OH232918   0.076   0.713  18.894 -0.2272  0.0889 -0.0850
 2908TIP3    H132919   0.120   0.758  18.821  0.5925 -0.2138  0.2131
 2908TIP3    H232920   0.007   0.774  18.920  1.6015  1.7853  1.0897
 2909TIP3   OH232921   3.410   1.350  17.832  0.0113  0.6890  0.7952
 2909TIP3    H132922   3.441   1.400  17.757 -0.7057 -1.7464 -1.2744
 2909TIP3    H232923   3.317   1.370  17.837 -0.4549 -0.9048 -0.5533
 2910TIP3   OH232924   4.254   5.533  17.915  0.4589  0.1407 -0.2057
 2910TIP3    H132925   4.199   5.509  17.840  0.6922  0.4134 -0.4680
 2910TIP3    H232926   4.245   5.628  17.922  0.2064  0.0834  0.2993
 2911TIP3   OH232927   0.429   3.777  17.593 -0.0344 -0.5248 -0.2579
 2911TIP3    H132928   0.462   3.694  17.557  3.1364  1.2022 -1.7833
 2911TIP3    H232929   0.344   3.790  17.550  0.5806 -1.7848 -1.9925
 2912TIP3   OH232930   4.577   2.006  18.612  0.2930 -0.1997  0.1640
 2912TIP3    H132931   4.537   2.082  18.654  0.5981  0.5718 -0.9233
 2912TIP3    H232932   4.555   1.933  18.670 -0.9487  0.5301  0.6409
 2913TIP3   OH232933   6.807   2.816  18.811 -0.1506  0.1195  0.2763
 2913TIP3    H132934   6.757   2.898  18.810 -1.2358 -0.4983  1.1907
 2913TIP3    H232935   6.769   2.762  18.742 -1.9673 -0.9993  2.0513
 2914TIP3   OH232936   2.651   5.174  18.994  0.0279 -0.3327  0.0892
 2914TIP3    H132937   2.700   5.255  19.004  0.4392 -0.5360 -0.2611
 2914TIP3    H232938   2.715   5.111  18.961  0.0918 -1.2112  1.7643
 2915TIP3   OH232939   4.467   4.641  18.222  1.1022 -0.3167 -0.5336
 2915TIP3    H132940   4.539   4.591  18.261  1.2308 -0.1600 -0.5702
 2915TIP3    H232941   4.416   4.672  18.297  0.6838 -0.9977 -0.5304
 2916TIP3   OH232942   3.772   7.203  18.604 -0.4851 -0.0426  0.1463
 2916TIP3    H132943   3.773   7.278  18.545  1.1057  0.6746  1.0257
 2916TIP3    H232944   3.810   7.132  18.553  1.0305  0.6131  0.3287
 2917TIP3   OH232945   2.443   4.730  19.237 -0.2513 -0.1315  0.1309
 2917TIP3    H132946   2.471   4.820  19.223  0.4674 -0.3623  0.0673
 2917TIP3    H232947   2.519   4.686  19.275 -0.5597 -0.7360  0.0618
 2918TIP3   OH232948   2.377   6.993  18.769  0.8871 -0.3541  0.1734
 2918TIP3    H132949   2.371   7.089  18.767 -0.4131 -0.3811  1.4201
 2918TIP3    H232950   2.433   6.974  18.844  3.3670 -0.5589 -1.6189
 2919TIP3   OH232951   0.517   1.060  19.504 -0.2170  0.2707  0.0848
 2919TIP3    H132952   0.489   0.969  19.511  1.5852 -0.2771  0.5681
 2919TIP3    H232953   0.544   1.084  19.593 -1.5294  1.5930  0.1675
 2920TIP3   OH232954   6.554   0.384  18.208  0.4794 -0.5673 -0.6730
 2920TIP3    H132955   6.542   0.392  18.302  1.6247  2.9269 -0.6967
 2920TIP3    H232956   6.627   0.323  18.198  2.0425  0.9388  0.9122
 2921TIP3   OH232957   4.863   4.288  18.879  0.5934 -0.2814 -0.7213
 2921TIP3    H132958   4.879   4.289  18.785 -0.9049 -0.2221 -1.0030
 2921TIP3    H232959   4.938   4.334  18.917  1.8019 -1.3019 -1.7671
 2922TIP3   OH232960   2.883   7.089  18.885  0.0515  0.4928 -0.2261
 2922TIP3    H132961   2.947   7.159  18.887  0.0574  0.4817  0.1154
 2922TIP3    H232962   2.934   7.008  18.893  0.0124  0.4736 -0.1655
 2923TIP3   OH232963   3.924   6.082  17.857 -0.2664  0.9385  0.4451
 2923TIP3    H132964   3.996   6.026  17.830 -0.7158  0.6894 -0.2666
 2923TIP3    H232965   3.858   6.021  17.891 -0.3704  1.1166  0.5660
 2924TIP3   OH232966   6.013   6.562  17.340  0.7192 -0.2113 -0.1662
 2924TIP3    H132967   6.040   6.471  17.336  0.1326 -0.4374  0.7355
 2924TIP3    H232968   5.932   6.561  17.391  0.0317  0.6737 -1.1980
 2925TIP3   OH232969   1.928   5.025  17.756  0.0981  0.0972  0.7214
 2925TIP3    H132970   1.974   5.102  17.723  0.3599  0.8680  2.7340
 2925TIP3    H232971   1.836   5.052  17.762  0.1551  0.1941  1.2160
 2926TIP3   OH232972   6.487   6.655  19.253 -0.1600 -0.3394  0.1822
 2926TIP3    H132973   6.514   6.747  19.243 -0.6987 -0.3002 -1.0775
 2926TIP3    H232974   6.404   6.660  19.301 -0.2698 -0.1663 -0.0275
 2927TIP3   OH232975   1.401   1.726  17.030  0.0688  0.1161 -0.1063
 2927TIP3    H132976   1.359   1.811  17.039 -1.4249 -0.6833  0.8625
 2927TIP3    H232977   1.338   1.673  16.982  1.4594 -0.1538 -1.7168
 2928TIP3   OH232978   2.672   5.759  17.713 -0.2217  0.1521  0.1682
 2928TIP3    H132979   2.766   5.761  17.696  0.1952  1.9914  2.1461
 2928TIP3    H232980   2.660   5.685  17.772 -0.0458 -0.1786 -0.2094
 2929TIP3   OH232981   0.888   5.223  17.681 -0.1186 -0.5084 -0.6759
 2929TIP3    H132982   0.842   5.297  17.640 -0.0716  0.7313  1.3577
 2929TIP3    H232983   0.980   5.244  17.671 -0.1064 -0.1882  0.0115
 2930TIP3   OH232984   5.648   1.456  19.459 -0.2574 -0.1761 -0.0198
 2930TIP3    H132985   5.685   1.427  19.375  0.3821  0.5177  0.0114
 2930TIP3    H232986   5.555   1.437  19.452 -0.1804 -0.3088 -0.8114
 2931TIP3   OH232987   1.703   7.431  17.897  0.9502  0.6443 -0.0246
 2931TIP3    H132988   1.674   7.340  17.894  1.4977  0.4406  0.6723
 2931TIP3    H232989   1.646   7.472  17.963  1.3028  0.5878  0.3146
 2932TIP3   OH232990   3.674   1.502  17.816  0.2894 -0.1719 -0.2300
 2932TIP3    H132991   3.713   1.516  17.730 -0.7966 -1.2204 -0.9174
 2932TIP3    H232992   3.674   1.407  17.828 -2.4307 -0.2857 -0.4934
 2933TIP3   OH232993   1.965   7.176  18.228  0.7817  0.0413 -0.2647
 2933TIP3    H132994   1.985   7.216  18.144  0.3588 -1.1622 -0.9690
 2933TIP3    H232995   1.870   7.181  18.235  0.7575 -0.4355 -0.1762
 2934TIP3   OH232996   1.703   6.730  17.280 -0.2195 -0.2541 -0.0426
 2934TIP3    H132997   1.791   6.693  17.292 -0.4458 -0.0325  3.3510
 2934TIP3    H232998   1.712   6.822  17.307 -1.3282  0.0414 -0.6158
 2935TIP3   OH232999   5.225   2.894  18.338  0.2225  0.3797  0.3253
 2935TIP3    H133000   5.149   2.855  18.380 -2.0848  0.8879 -2.9593
 2935TIP3    H233001   5.273   2.819  18.301  1.2154  0.0837  2.1229
 2936TIP3   OH233002   7.413   5.581  17.983 -0.4852 -0.9687 -0.3505
 2936TIP3    H133003   7.428   5.642  18.056 -0.2464 -1.5272  0.0675
 2936TIP3    H233004   7.323   5.549  17.996  0.6239 -3.5884  1.6135
 2937TIP3   OH233005   6.995   6.203  17.778 -0.6875 -0.6102  0.0226
 2937TIP3    H133006   7.013   6.209  17.684 -2.1206  0.1588 -0.2219
 2937TIP3    H233007   6.940   6.126  17.787 -0.5451 -0.6878  0.2417
 2938TIP3   OH233008   5.406   3.497  19.367  0.3216 -0.1553  0.3441
 2938TIP3    H133009   5.353   3.517  19.444 -0.1852 -2.3103  0.6185
 2938TIP3    H233010   5.496   3.511  19.396  0.0560  1.4689  0.5170
 2939TIP3   OH233011   6.085   3.009  17.226 -0.5704 -0.8713 -0.2530
 2939TIP3    H133012   6.107   3.063  17.150 -0.5251  1.3452  1.2340
 2939TIP3    H233013   5.989   3.015  17.233 -0.4644  0.2047  0.6732
 2940TIP3   OH233014   2.767   5.030  19.249  0.3943  0.2635 -0.3948
 2940TIP3    H133015   2.679   5.005  19.224  0.2328 -0.9853  1.2271
 2940TIP3    H233016   2.768   5.126  19.244 -1.7500  0.4768  1.6039
 2941TIP3   OH233017   3.722   3.530  18.310 -0.4835 -0.2326  0.1665
 2941TIP3    H133018   3.794   3.524  18.247 -0.1303  1.9969  0.2710
 2941TIP3    H233019   3.703   3.439  18.333  0.5063 -1.0307 -1.8643
 2942TIP3   OH233020   5.381   5.507  18.474  0.1911  0.6871  0.2290
 2942TIP3    H133021   5.309   5.448  18.499  1.4472 -1.4088 -0.8337
 2942TIP3    H233022   5.350   5.550  18.395  0.6936 -1.5904 -1.3128
 2943TIP3   OH233023   5.338   5.143  18.517 -0.1874 -0.0858  0.1123
 2943TIP3    H133024   5.380   5.057  18.511  0.1187  0.0754 -0.0686
 2943TIP3    H233025   5.274   5.143  18.445 -0.8300 -0.5076  0.6705
 2944TIP3   OH233026   7.230   4.282  18.062 -0.2331 -0.2449  0.0161
 2944TIP3    H133027   7.279   4.309  18.139 -0.3995  1.8785 -0.5546
 2944TIP3    H233028   7.297   4.257  17.999 -0.0663 -1.2467  0.5826
 2945TIP3   OH233029   6.956   1.146  18.402 -0.2782  0.4507  0.3105
 2945TIP3    H133030   7.044   1.170  18.373 -1.2430  4.5559  0.1503
 2945TIP3    H233031   6.908   1.130  18.321  0.0225 -0.6035  0.3378
 2946TIP3   OH233032   0.814   1.023  18.211 -0.1237  0.3461 -0.3366
 2946TIP3    H133033   0.812   1.005  18.117  1.7530  2.0584 -0.7732
 2946TIP3    H233034   0.729   1.064  18.230 -0.4256  0.1901 -1.3231
 2947TIP3   OH233035   7.302   5.508  17.030 -0.1830 -0.1044  0.3317
 2947TIP3    H133036   7.226   5.492  17.086  0.4225  1.2450  1.5916
 2947TIP3    H233037   7.304   5.433  16.971 -1.8253 -0.7357  1.0135
 2948TIP3   OH233038   2.747   4.685  17.338 -0.6802  0.5448  0.2290
 2948TIP3    H133039   2.731   4.771  17.299 -2.3636  0.0092 -0.3689
 2948TIP3    H233040   2.690   4.683  17.415  0.9531  0.7388  1.4848
 2949TIP3   OH233041   4.831   2.267  18.538  0.2367  0.7048  0.3097
 2949TIP3    H133042   4.801   2.357  18.527 -1.2293  0.1346 -0.5468
 2949TIP3    H233043   4.926   2.272  18.524  0.0745  1.9869 -0.5420
 2950TIP3   OH233044   3.189   1.736  18.648 -0.2469 -0.2762 -0.0383
 2950TIP3    H133045   3.279   1.741  18.680 -0.0901  1.5956 -0.6811
 2950TIP3    H233046   3.196   1.691  18.564  0.2842  0.9702 -0.6840
 2951TIP3   OH233047   0.292   6.058  17.324  0.2099  0.1640 -0.0842
 2951TIP3    H133048   0.382   6.089  17.311  0.6889 -0.6209  1.1350
 2951TIP3    H233049   0.254   6.059  17.236  0.9423  1.8533 -0.4364
 2952TIP3   OH233050   0.224   2.859  17.724 -0.5019 -0.3689 -0.3651
 2952TIP3    H133051   0.236   2.886  17.815 -2.1155 -0.6546 -0.0502
 2952TIP3    H233052   0.313   2.842  17.693  0.1639  0.7865  0.8152
 2953TIP3   OH233053   5.102   7.230  18.586 -0.9717 -0.4711 -0.1248
 2953TIP3    H133054   5.016   7.260  18.615 -0.6730  1.2992 -0.9333
 2953TIP3    H233055   5.153   7.310  18.577  1.0632 -1.5377  1.1685
 2954TIP3   OH233056   1.409   2.461  17.535  0.4335 -0.1085 -0.4849
 2954TIP3    H133057   1.480   2.525  17.533  1.7576 -1.4644  0.2870
 2954TIP3    H233058   1.368   2.467  17.449  1.9625  0.2273 -1.2261
 2955TIP3   OH233059   3.872   3.433  18.080 -0.6545  0.2067  0.3465
 2955TIP3    H133060   3.901   3.516  18.043  0.2473  0.4867  1.5788
 2955TIP3    H233061   3.945   3.406  18.136 -1.1634 -1.1444  0.3919
 2956TIP3   OH233062   2.943   5.523  18.002 -0.5092 -0.4156 -0.3171
 2956TIP3    H133063   2.933   5.616  18.024  2.5258 -0.2623  0.9563
 2956TIP3    H233064   2.924   5.519  17.908 -0.4504  1.5452 -0.4628
 2957TIP3   OH233065   0.674   1.094  19.024 -0.0056  0.2947  0.1157
 2957TIP3    H133066   0.596   1.091  18.968 -0.4088  1.7856  0.5456
 2957TIP3    H233067   0.703   1.003  19.029 -0.5564 -0.0235 -1.6596
 2958TIP3   OH233068   5.844   2.131  18.119  0.2972 -0.0338 -0.0328
 2958TIP3    H133069   5.824   2.120  18.211  0.3175  0.2060  0.0019
 2958TIP3    H233070   5.813   2.051  18.077  1.9463 -0.9602  0.4450
 2959TIP3   OH233071   2.320   5.258  18.001  0.4889 -0.4975  0.0131
 2959TIP3    H133072   2.351   5.181  17.954  0.1632 -0.0020 -1.0516
 2959TIP3    H233073   2.338   5.239  18.094 -1.2766 -2.6608  0.0043
 2960TIP3   OH233074   6.167   3.059  19.604  0.3538 -0.7235 -0.3757
 2960TIP3    H133075   6.110   2.995  19.562 -1.6447 -0.0773  1.2152
 2960TIP3    H233076   6.173   3.030  19.695 -1.0096  1.5150  0.5117
 2961TIP3   OH233077   0.581   7.663  18.618 -0.4680  0.5524 -0.4494
 2961TIP3    H133078   0.574   7.575  18.580  2.1222 -0.0268  0.2206
 2961TIP3    H233079   0.603   7.719  18.544 -2.3867  0.7373 -0.9249
 2962TIP3   OH233080   1.430   0.581  18.603  0.5509  0.3286  0.2105
 2962TIP3    H133081   1.401   0.499  18.564  2.0003 -0.6152  1.0307
 2962TIP3    H233082   1.439   0.561  18.697 -0.0432  1.7076  0.5853
 2963TIP3   OH233083   3.498   5.169  19.042 -0.5631 -0.7958  0.3205
 2963TIP3    H133084   3.562   5.099  19.040  0.8772  0.4818 -1.2278
 2963TIP3    H233085   3.477   5.185  18.950  0.2607  1.7242  0.4936
 2964TIP3   OH233086   0.966   0.654  18.885 -0.0504 -0.2509  0.0337
 2964TIP3    H133087   0.958   0.615  18.798  0.1681  1.0968 -0.6247
 2964TIP3    H233088   0.958   0.580  18.945 -0.1457 -1.2249 -1.1243
 2965TIP3   OH233089   1.590   6.211  18.834  0.4226 -0.3177  0.0250
 2965TIP3    H133090   1.497   6.188  18.831  0.1221  0.7035  0.8821
 2965TIP3    H233091   1.592   6.296  18.879  1.6139  0.5824 -1.6532
 2966TIP3   OH233092   4.409   5.933  19.207  0.0220  0.0270  0.5887
 2966TIP3    H133093   4.461   5.993  19.261  0.3639  0.0511  0.2349
 2966TIP3    H233094   4.421   5.965  19.118  0.2041 -0.5664  0.3985
 2967TIP3   OH233095   1.077   2.618  19.062 -0.2779 -0.0940 -0.5300
 2967TIP3    H133096   1.053   2.541  19.114 -0.0506 -0.6600 -1.2459
 2967TIP3    H233097   0.995   2.644  19.019 -0.2135 -0.3402 -0.8046
 2968TIP3   OH233098   5.165   5.747  16.659 -0.2818 -0.1939  0.3402
 2968TIP3    H133099   5.220   5.785  16.727 -1.8526  1.7180  0.6349
 2968TIP3    H233100   5.172   5.809  16.586 -3.6824  1.3775  1.1823
 2969TIP3   OH233101   1.926   1.639  17.073 -0.3837  0.0080  0.4146
 2969TIP3    H133102   1.932   1.544  17.084  1.6889  0.0045 -0.1642
 2969TIP3    H233103   1.990   1.674  17.135 -0.5274  0.9619  0.0363
 2970TIP3   OH233104   5.672   6.958  18.166 -0.4651 -0.1603  0.8563
 2970TIP3    H133105   5.610   6.995  18.102 -1.1383 -0.5123  1.2868
 2970TIP3    H233106   5.620   6.950  18.246  0.0527 -0.7976  1.1265
 2971TIP3   OH233107   3.888   1.506  18.120  0.0983 -0.7370 -0.2547
 2971TIP3    H133108   3.921   1.492  18.208 -0.3580 -2.6470 -0.3562
 2971TIP3    H233109   3.796   1.531  18.132  0.0876 -0.8089 -0.1903
 2972TIP3   OH233110   4.608   0.516  18.684  0.1869 -0.0390  0.1723
 2972TIP3    H133111   4.635   0.446  18.624 -0.5638  0.1158 -0.3708
 2972TIP3    H233112   4.512   0.517  18.678  0.1001 -0.0120  1.3790
 2973TIP3   OH233113   2.784   5.415  17.176  0.2070  0.1325  0.3227
 2973TIP3    H133114   2.794   5.325  17.143  0.4494  0.8992 -1.8370
 2973TIP3    H233115   2.873   5.441  17.201  0.7270  0.7845 -1.9849
 2974TIP3   OH233116   6.519   5.850  16.600 -0.2658  0.1582 -0.5907
 2974TIP3    H133117   6.470   5.790  16.656  1.6642 -0.2315  0.7564
 2974TIP3    H233118   6.456   5.919  16.579 -1.4948 -0.4896  0.7710
 2975TIP3   OH233119   3.743   2.288  17.901 -0.2504 -0.0116 -0.9480
 2975TIP3    H133120   3.665   2.343  17.890 -0.2252 -0.1855 -2.0656
 2975TIP3    H233121   3.721   2.207  17.856  0.8778  0.2301 -1.9736
 2976TIP3   OH233122   1.034   1.578  18.589  0.1135 -0.3265  0.1025
 2976TIP3    H133123   0.947   1.599  18.624 -0.3057  0.1358 -1.1767
 2976TIP3    H233124   1.061   1.501  18.639 -0.7461 -0.0999  0.9679
 2977TIP3   OH233125   0.641   3.900  17.136 -0.5474 -0.1182 -0.2103
 2977TIP3    H133126   0.657   3.990  17.163 -0.1025 -0.0744 -0.6053
 2977TIP3    H233127   0.616   3.906  17.044 -1.2492 -0.3355 -0.0414
 2978TIP3   OH233128   0.333   7.136  19.010  0.5196 -0.3882  0.4791
 2978TIP3    H133129   0.340   7.062  18.949 -0.9187  0.2059 -0.4506
 2978TIP3    H233130   0.246   7.127  19.049 -0.2786  1.5697 -0.7085
 2979TIP3   OH233131   0.922   3.805  19.133 -0.0121  0.4962 -0.0682
 2979TIP3    H133132   0.852   3.745  19.108 -0.3071 -0.1746  2.1290
 2979TIP3    H233133   1.002   3.758  19.109 -0.2663 -0.3929  0.7206
 2980TIP3   OH233134   0.315   5.248  18.193 -0.1604  0.0438 -0.6735
 2980TIP3    H133135   0.392   5.241  18.138 -0.8756  1.0919 -1.8531
 2980TIP3    H233136   0.250   5.193  18.150 -0.4668  0.1952 -0.4062
 2981TIP3   OH233137   4.245   5.528  16.694  0.0020  0.0839 -0.0841
 2981TIP3    H133138   4.177   5.464  16.674  0.3259 -0.4062  0.3620
 2981TIP3    H233139   4.215   5.609  16.652  0.7564 -0.9025 -2.7075
 2982TIP3   OH233140   6.045   0.374  16.702 -0.1073 -0.0205 -0.0734
 2982TIP3    H133141   6.020   0.427  16.777 -0.5326  1.0361 -0.9279
 2982TIP3    H233142   5.993   0.294  16.710 -0.9456  0.5435  0.1933
 2983TIP3   OH233143   0.139   0.808  16.876 -0.4604  0.0988  0.0884
 2983TIP3    H133144   0.089   0.848  16.947  0.8459  2.1439 -0.0732
 2983TIP3    H233145   0.181   0.881  16.831  1.8692 -1.4031 -0.4033
 2984TIP3   OH233146   2.358   3.882  18.554  0.3904 -0.2069  0.0041
 2984TIP3    H133147   2.306   3.918  18.482 -0.3713  1.3081  1.2573
 2984TIP3    H233148   2.447   3.875  18.518 -0.2296 -0.8413 -1.5068
 2985TIP3   OH233149   5.303   2.320  18.199  0.1015  0.0476  0.2218
 2985TIP3    H133150   5.210   2.325  18.177  0.0231 -0.0965  0.5223
 2985TIP3    H233151   5.311   2.368  18.281  0.0610 -1.1079  0.9207
 2986TIP3   OH233152   5.162   2.130  19.448 -0.9178  0.4115 -0.0998
 2986TIP3    H133153   5.142   2.185  19.523 -0.4261  1.7839 -0.9329
 2986TIP3    H233154   5.243   2.167  19.412 -0.2473 -1.2283 -0.3622
 2987TIP3   OH233155   3.594   1.987  18.008  0.5035 -0.0284  0.5227
 2987TIP3    H133156   3.545   2.069  18.012 -0.4492 -0.5148 -0.4874
 2987TIP3    H233157   3.637   1.988  17.923  1.9806  0.2089  1.2342
 2988TIP3   OH233158   6.324   0.818  16.948 -0.2146 -0.1619  0.7329
 2988TIP3    H133159   6.387   0.873  16.901  2.1557 -3.0710  0.2160
 2988TIP3    H233160   6.321   0.856  17.036  0.5299  1.3522  0.1568
 2989TIP3   OH233161   3.535   6.949  17.406 -0.1789 -0.5541  0.2846
 2989TIP3    H133162   3.498   6.960  17.319  0.2584 -1.2326  0.0042
 2989TIP3    H233163   3.462   6.966  17.466 -0.2331  0.9525 -0.1738
 2990TIP3   OH233164   4.868   0.520  18.002 -0.9376 -0.3345 -0.1244
 2990TIP3    H133165   4.880   0.426  18.016 -2.6064 -0.5524  0.0456
 2990TIP3    H233166   4.774   0.534  18.011 -0.8469  1.1989 -1.1416
 2991TIP3   OH233167   1.306   2.586  18.864 -0.6653  0.4072  0.1700
 2991TIP3    H133168   1.242   2.563  18.931  0.3519 -1.6883  0.4935
 2991TIP3    H233169   1.257   2.584  18.781 -0.9801 -1.5916  0.3571
 2992TIP3   OH233170   0.435   1.617  18.589 -0.0500 -0.0111 -0.1559
 2992TIP3    H133171   0.363   1.554  18.589 -0.5454  0.5148 -1.7027
 2992TIP3    H233172   0.514   1.563  18.586 -0.3093 -0.6046  2.0053
 2993TIP3   OH233173   2.717   0.922  18.619  0.4147 -0.0917 -0.4148
 2993TIP3    H133174   2.677   0.979  18.685  1.5192  0.2477 -0.0048
 2993TIP3    H233175   2.694   0.833  18.647 -0.2369  0.1001 -0.3258
 2994TIP3   OH233176   2.577   7.671  17.990  0.1472 -0.3865 -0.3654
 2994TIP3    H133177   2.527   7.647  18.068 -0.0881 -0.6592 -0.5979
 2994TIP3    H233178   2.515   7.662  17.917  0.3926 -0.2322 -0.5971
 2995TIP3   OH233179   3.936   6.762  18.030 -0.5064  0.4518  0.7294
 2995TIP3    H133180   4.022   6.745  18.069 -0.6462 -0.5086  0.6296
 2995TIP3    H233181   3.956   6.816  17.953  0.2694 -1.6091 -0.5974
 2996TIP3   OH233182   2.521   4.003  17.392 -0.0222  0.1542 -0.3547
 2996TIP3    H133183   2.473   3.955  17.325 -0.7609 -0.0688  0.3150
 2996TIP3    H233184   2.475   3.982  17.474  2.7699 -2.2300  0.7809
 2997TIP3   OH233185   4.632   3.627  17.645  0.4398 -0.6838 -0.1602
 2997TIP3    H133186   4.716   3.671  17.629  0.6773 -1.2442 -0.4939
 2997TIP3    H233187   4.656   3.537  17.669 -0.0308 -0.6086  0.6274
 2998TIP3   OH233188   4.526   0.618  18.320 -0.0491  0.0353 -0.6204
 2998TIP3    H133189   4.582   0.557  18.272 -1.7691  1.5086 -4.9633
 2998TIP3    H233190   4.439   0.577  18.318 -0.3728  0.6621  0.2977
 2999TIP3   OH233191   2.107   0.582  17.357  0.0039 -0.4990 -0.0370
 2999TIP3    H133192   2.156   0.513  17.401  0.6099 -0.0156  0.0596
 2999TIP3    H233193   2.087   0.545  17.270  0.1223 -0.8795  0.0952
 3000TIP3   OH233194   2.654   6.854  17.420 -0.4725  0.4657  0.7162
 3000TIP3    H133195   2.639   6.803  17.340 -0.2830  0.9461  0.3651
 3000TIP3    H233196   2.568   6.888  17.444 -0.3480  1.3101  0.0256
 3001TIP3   OH233197   3.759   4.456  17.320  0.3326 -0.0454 -0.0206
 3001TIP3    H133198   3.692   4.437  17.255 -0.3447  0.9272  0.3653
 3001TIP3    H233199   3.831   4.397  17.299  0.4974  0.8260 -2.1937
 3002TIP3   OH233200   5.484   0.618  17.610 -0.3103 -0.0259 -0.2510
 3002TIP3    H133201   5.482   0.596  17.703 -1.7249  0.5503 -0.1244
 3002TIP3    H233202   5.496   0.713  17.608 -3.7060  0.5178 -0.5039
 3003TIP3   OH233203   6.823   4.151  17.840  0.0783 -0.3116  0.0299
 3003TIP3    H133204   6.894   4.196  17.886  0.5760  0.1616 -1.1496
 3003TIP3    H233205   6.746   4.164  17.895  0.0122  2.6813 -0.5991
 3004TIP3   OH233206   6.934   3.124  17.823  0.1222  0.2491 -0.3740
 3004TIP3    H133207   6.986   3.184  17.770  1.7438 -0.6717  0.0924
 3004TIP3    H233208   6.930   3.165  17.909  2.3888 -0.8152  0.3384
 3005TIP3   OH233209   1.628   6.367  16.793 -0.6518 -0.4399 -0.0855
 3005TIP3    H133210   1.670   6.415  16.865 -0.7739  0.1588 -0.4084
 3005TIP3    H233211   1.537   6.358  16.820 -0.2745 -2.0686  0.7920
 3006TIP3   OH233212   6.199   1.771  19.135  0.4397 -0.7099 -0.4352
 3006TIP3    H133213   6.265   1.728  19.080  2.0401  0.3092  0.5970
 3006TIP3    H233214   6.147   1.822  19.074 -0.1385 -2.3772 -1.4174
 3007TIP3   OH233215   3.490   0.498  18.103 -0.2860  0.0536 -0.4880
 3007TIP3    H133216   3.403   0.477  18.070 -0.8441  0.0610  0.8825
 3007TIP3    H233217   3.515   0.579  18.059 -1.6886  0.9492  0.3091
 3008TIP3   OH233218   1.471   4.467  17.281 -0.4360  0.1833 -0.0896
 3008TIP3    H133219   1.471   4.474  17.186 -0.5315 -0.9450 -0.1879
 3008TIP3    H233220   1.382   4.490  17.308 -0.3368  0.7581 -0.2438
 3009TIP3   OH233221   6.425   5.398  18.924 -0.1065  0.5158 -0.4575
 3009TIP3    H133222   6.485   5.339  18.878 -0.7347 -0.2633 -0.2875
 3009TIP3    H233223   6.375   5.441  18.855 -1.9777 -1.6278 -0.5244
 3010TIP3   OH233224   0.443   2.566  17.510  0.0793  0.5180  0.1275
 3010TIP3    H133225   0.352   2.544  17.528  0.8195 -1.8231  1.4811
 3010TIP3    H233226   0.456   2.652  17.551 -0.9076 -0.2574  2.1942
 3011TIP3   OH233227   6.210   0.659  17.710  0.5571 -0.3067  0.5740
 3011TIP3    H133228   6.228   0.736  17.763  1.4980  0.7136 -1.1272
 3011TIP3    H233229   6.275   0.595  17.736  0.1192 -0.3477  1.6115
 3012TIP3   OH233230   5.299   3.110  17.976 -0.0506 -0.5677 -0.0178
 3012TIP3    H133231   5.231   3.043  17.977  1.1399 -1.9076 -1.7172
 3012TIP3    H233232   5.373   3.067  17.933  1.4690  1.2050  0.7332
 3013TIP3   OH233233   7.636   2.401  19.454 -0.6158 -0.5410 -0.2315
 3013TIP3    H133234   7.644   2.316  19.498  0.0844 -0.6031 -0.4690
 3013TIP3    H233235   7.726   2.426  19.433 -0.8997 -0.2208 -1.0841
 3014TIP3   OH233236   4.690   7.230  18.101  0.9427 -0.1699  0.2335
 3014TIP3    H133237   4.607   7.201  18.139 -0.0601  0.2365 -1.5601
 3014TIP3    H233238   4.668   7.259  18.013  2.8120  1.0581  0.1084
 3015TIP3   OH233239   3.260   2.784  19.258  0.3053 -0.3804 -0.0197
 3015TIP3    H133240   3.340   2.836  19.266 -0.4318  0.9940 -1.1818
 3015TIP3    H233241   3.189   2.847  19.272 -0.6134 -1.0758 -1.3678
 3016TIP3   OH233242   1.716   3.736  17.462  0.4655  0.1257  0.2415
 3016TIP3    H133243   1.655   3.800  17.424  0.6100  0.0776 -0.0744
 3016TIP3    H233244   1.747   3.685  17.386  0.3114 -0.3537  0.4933
 3017TIP3   OH233245   2.321   2.364  17.804 -0.0122 -0.1254 -0.3652
 3017TIP3    H133246   2.279   2.278  17.802  1.0461 -0.6537 -0.1903
 3017TIP3    H233247   2.271   2.416  17.740 -1.7267 -0.3353  0.7385
 3018TIP3   OH233248   4.544   2.853  19.482 -0.3532  0.1952 -0.4821
 3018TIP3    H133249   4.533   2.759  19.472  1.8302 -0.2818  0.7611
 3018TIP3    H233250   4.457   2.890  19.470 -1.1369 -1.9125 -1.6384
 3019TIP3   OH233251   2.580   7.285  18.281 -0.4036 -0.2182 -0.4199
 3019TIP3    H133252   2.486   7.306  18.288 -0.3589  0.3065 -1.2287
 3019TIP3    H233253   2.582   7.203  18.231 -0.4182  0.0025 -0.7856
 3020TIP3   OH233254   0.016   0.741  18.124 -0.0145  0.4927 -0.5915
 3020TIP3    H133255   0.075   0.682  18.170  1.0044  1.0561 -1.1490
 3020TIP3    H233256  -0.032   0.685  18.063  0.2378  0.0880 -0.4191
 3021TIP3   OH233257   7.271   7.615  17.073 -0.4503  0.0721 -0.1388
 3021TIP3    H133258   7.207   7.545  17.067 -2.2371  1.4672  1.6229
 3021TIP3    H233259   7.322   7.595  17.152  0.8527 -0.5987 -1.0945
 3022TIP3   OH233260   1.848   5.535  19.286  0.6631 -0.4671  0.1125
 3022TIP3    H133261   1.839   5.593  19.211  2.0267 -1.6160 -0.9985
 3022TIP3    H233262   1.760   5.529  19.322 -0.1782 -0.3899 -1.7976
 3023TIP3   OH233263   5.073   5.598  19.001  0.3580  0.1437  0.0744
 3023TIP3    H133264   5.119   5.672  19.040 -1.0481  2.4035 -2.2780
 3023TIP3    H233265   4.980   5.621  19.007 -0.0797 -1.1423 -1.2229
 3024TIP3   OH233266   4.405   4.678  18.543  0.3290  0.5905  0.1940
 3024TIP3    H133267   4.318   4.664  18.506  0.9915 -0.8377 -0.9817
 3024TIP3    H233268   4.391   4.730  18.622 -1.7590 -0.9284  0.9007
 3025TIP3   OH233269   5.249   0.296  18.105  0.2113 -0.1968 -0.2587
 3025TIP3    H133270   5.294   0.274  18.186  0.1136 -0.1549 -0.1919
 3025TIP3    H233271   5.159   0.269  18.119 -0.3068  1.7544  0.4637
 3026TIP3   OH233272   6.980   4.030  18.057  0.3660 -0.3328  0.1092
 3026TIP3    H133273   6.997   4.036  17.963  1.4125 -0.9918  0.2374
 3026TIP3    H233274   6.944   3.943  18.069  1.0303 -0.5661  0.4260
 3027TIP3   OH233275   0.652   5.009  18.784  0.2874  0.5821  0.2220
 3027TIP3    H133276   0.596   5.050  18.717  1.2462 -0.2899 -1.1653
 3027TIP3    H233277   0.603   5.019  18.866 -1.5373  0.5147 -0.8153
 3028TIP3   OH233278   1.828   1.358  19.213  0.0213  0.3699 -0.5735
 3028TIP3    H133279   1.869   1.438  19.179 -0.8509  1.8879  1.7126
 3028TIP3    H233280   1.897   1.316  19.264 -0.2218  1.0188  0.3024
 3029TIP3   OH233281   7.019   2.922  19.036 -0.2538 -0.6061  0.1071
 3029TIP3    H133282   7.013   2.919  19.132 -1.7299 -0.4367  0.0319
 3029TIP3    H233283   6.937   2.885  19.005 -1.0589  1.9218 -1.0644
 3030TIP3   OH233284   3.059   3.659  18.426 -0.1101  0.5402 -0.3945
 3030TIP3    H133285   3.114   3.638  18.351  0.5947  1.0123 -0.0200
 3030TIP3    H233286   3.021   3.576  18.453  0.1312  0.2716 -0.8878
 3031TIP3   OH233287   3.691   0.408  17.422 -0.2693  0.4994  0.0508
 3031TIP3    H133288   3.685   0.501  17.440  0.9349  0.9011 -1.3927
 3031TIP3    H233289   3.782   0.386  17.438 -0.6052 -0.5131  0.6747
 3032TIP3   OH233290   5.127   7.548  18.613 -0.3278 -0.3705  0.5726
 3032TIP3    H133291   5.189   7.496  18.663  0.1792 -1.8468 -1.4525
 3032TIP3    H233292   5.111   7.625  18.667 -1.5479 -2.7930  4.0416
 3033TIP3   OH233293   7.506   2.477  17.600  0.0948 -0.0877 -0.5138
 3033TIP3    H133294   7.520   2.567  17.630 -1.6156 -0.5576  2.0044
 3033TIP3    H233295   7.535   2.477  17.509 -0.4207  3.1677 -0.7861
 3034TIP3   OH233296   2.636   2.425  18.627  0.1318  0.6265  0.0210
 3034TIP3    H133297   2.674   2.348  18.670  0.3355  0.9617  0.4474
 3034TIP3    H233298   2.699   2.495  18.642 -1.2673  1.5866  2.0489
 3035TIP3   OH233299   0.721   1.972  19.029  0.0104  0.2844 -0.4509
 3035TIP3    H133300   0.802   1.933  18.997 -0.0619  0.2383 -0.5774
 3035TIP3    H233301   0.667   1.898  19.057  0.1743  0.3390  0.0206
 3036TIP3   OH233302   6.030   1.762  17.910 -0.2015  0.3656 -0.5614
 3036TIP3    H133303   6.104   1.703  17.896  1.1279  2.1556 -1.4339
 3036TIP3    H233304   6.013   1.757  18.004  1.0255 -0.0957 -0.3412
 3037TIP3   OH233305   4.373   4.079  18.218  0.6934 -0.0269 -0.3711
 3037TIP3    H133306   4.368   4.152  18.278 -0.2904 -0.8531  0.5925
 3037TIP3    H233307   4.354   4.002  18.271  3.1496 -1.2096 -1.0042
 3038TIP3   OH233308   1.881   2.802  19.096 -0.0319 -0.0405 -0.4305
 3038TIP3    H133309   1.835   2.882  19.069  0.8357  0.6625  0.1208
 3038TIP3    H233310   1.813   2.734  19.095 -1.3778  1.1586  1.3878
 3039TIP3   OH233311   0.422   6.405  18.602 -0.3851 -0.0842  0.1716
 3039TIP3    H133312   0.380   6.460  18.667  0.7053 -0.5017  1.2760
 3039TIP3    H233313   0.451   6.328  18.650 -0.3714 -0.8397 -0.9993
 3040TIP3   OH233314   1.590   1.788  18.071  0.1961 -0.0695  0.3257
 3040TIP3    H133315   1.670   1.835  18.050 -0.6542  0.8070 -1.2036
 3040TIP3    H233316   1.591   1.778  18.166  1.8347  0.4040  0.3797
 3041TIP3   OH233317   3.673   2.628  18.348 -0.0628 -0.0192  0.1856
 3041TIP3    H133318   3.731   2.632  18.272  1.7288  0.0189  1.4841
 3041TIP3    H233319   3.585   2.635  18.312  0.6794 -0.9465 -1.9510
 3042TIP3   OH233320   5.427   5.155  17.823 -0.0496  0.5244  0.0230
 3042TIP3    H133321   5.383   5.084  17.777 -0.4853 -0.2412  1.5539
 3042TIP3    H233322   5.363   5.226  17.824  0.0043  0.5837 -0.6367
 3043TIP3   OH233323   3.090   3.830  16.926 -0.1032  0.1958 -0.3205
 3043TIP3    H133324   3.158   3.895  16.945 -0.0442  0.1410 -0.3424
 3043TIP3    H233325   3.133   3.745  16.938  0.2319  0.1471 -1.6895
 3044TIP3   OH233326   6.916   6.264  17.511  0.1754  0.4981 -0.3596
 3044TIP3    H133327   6.870   6.348  17.510  1.3519  1.1579 -0.4391
 3044TIP3    H233328   6.849   6.200  17.486 -0.3965  1.5834 -1.7078
 3045TIP3   OH233329   5.393   1.881  17.106  0.1615  0.5163 -0.1380
 3045TIP3    H133330   5.309   1.862  17.064  0.1239  0.1869  0.0780
 3045TIP3    H233331   5.371   1.900  17.197  0.3203  0.4354 -0.0823
 3046TIP3   OH233332   5.656   7.125  17.143  0.7868 -0.3238 -0.3417
 3046TIP3    H133333   5.570   7.128  17.101  1.6295 -0.7336 -2.1760
 3046TIP3    H233334   5.650   7.052  17.205 -0.8029  0.9219  1.0699
 3047TIP3   OH233335   0.021   0.049  18.188 -0.2224 -0.1602  0.6486
 3047TIP3    H133336  -0.030  -0.031  18.197 -1.2740  0.2996 -0.8437
 3047TIP3    H233337   0.110   0.024  18.214 -0.5244 -1.8035  0.1837
 3048TIP3   OH233338   7.199   7.491  17.692  0.3864 -0.7752  0.0113
 3048TIP3    H133339   7.178   7.583  17.707 -0.5253 -0.9189 -0.2858
 3048TIP3    H233340   7.294   7.486  17.699  0.5109  0.3187 -0.6636
 3049TIP3   OH233341   7.600   3.159  18.246  0.3010 -0.5233  0.5919
 3049TIP3    H133342   7.558   3.171  18.161 -0.0140  2.4741  1.0739
 3049TIP3    H233343   7.693   3.171  18.229  0.2626 -0.1799  0.6163
 3050TIP3   OH233344   0.245   5.564  17.460 -0.7874  0.2319 -0.3499
 3050TIP3    H133345   0.268   5.474  17.484 -1.3493  0.1228 -0.2050
 3050TIP3    H233346   0.223   5.559  17.367 -1.0566  0.1686 -0.2837
 3051TIP3   OH233347   2.392   5.168  19.380  0.3278 -0.1785  0.0798
 3051TIP3    H133348   2.393   5.221  19.460 -0.5311 -0.1654  0.0944
 3051TIP3    H233349   2.320   5.205  19.328  0.8836 -0.1804 -0.7015
 3052TIP3   OH233350   4.525   4.879  17.868  0.1198  0.1207 -0.2851
 3052TIP3    H133351   4.529   4.943  17.797  0.0072  0.1323 -0.2803
 3052TIP3    H233352   4.558   4.926  17.945  1.3373 -0.2278 -0.5662
 3053TIP3   OH233353   2.461   6.762  18.273 -0.3561  0.2581 -0.3771
 3053TIP3    H133354   2.446   6.799  18.359  0.2525  1.4064 -0.7495
 3053TIP3    H233355   2.373   6.745  18.239 -0.6089 -2.1689  1.2445
 3054TIP3   OH233356   3.491   6.012  19.143  0.2701 -0.2629 -0.4221
 3054TIP3    H133357   3.471   6.057  19.061  0.0520  1.7252  0.6531
 3054TIP3    H233358   3.565   6.062  19.179  1.5793 -2.2203 -0.2346
 3055TIP3   OH233359   2.163   1.258  16.957  0.5937 -0.3765  0.0155
 3055TIP3    H133360   2.136   1.178  16.912  1.2069 -0.8680  0.5010
 3055TIP3    H233361   2.086   1.284  17.007  0.0454 -0.0618 -0.9722
 3056TIP3   OH233362   2.855   5.855  18.887 -0.2722 -0.2715 -0.1171
 3056TIP3    H133363   2.944   5.878  18.914 -0.3103  3.9237 -2.8012
 3056TIP3    H233364   2.824   5.797  18.956  3.7701 -0.2099  2.0455
 3057TIP3   OH233365   0.413   4.970  19.501  0.1676  0.5378 -0.2974
 3057TIP3    H133366   0.434   4.882  19.471  1.4456  0.4086  0.8911
 3057TIP3    H233367   0.407   4.964  19.596 -1.0371  1.4909 -0.2795
 3058TIP3   OH233368   6.480   3.028  17.313  0.7221 -0.0325  0.2335
 3058TIP3    H133369   6.420   3.029  17.239  0.8985  2.0591  0.0574
 3058TIP3    H233370   6.459   2.947  17.360  0.0304 -0.9762 -1.5944
 3059TIP3   OH233371   0.959   0.627  17.309  0.2519  0.5217 -0.4582
 3059TIP3    H133372   1.039   0.577  17.328 -1.0094 -0.7195  2.1802
 3059TIP3    H233373   0.915   0.577  17.240 -0.3473 -1.4305  1.2265
 3060TIP3   OH233374   1.480   0.786  19.320  0.8134 -0.4012  0.1700
 3060TIP3    H133375   1.411   0.821  19.376  0.7623  1.4280 -0.9364
 3060TIP3    H233376   1.433   0.747  19.247  0.7797  2.8816 -1.7921
 3061TIP3   OH233377   6.184   1.633  19.677  0.3014 -0.0605 -0.0066
 3061TIP3    H133378   6.108   1.689  19.658  0.2504  0.9732  2.7859
 3061TIP3    H233379   6.245   1.653  19.606 -0.6887  1.7225 -0.4493
 3062TIP3   OH233380   4.167   3.912  18.097  0.5797 -0.6240 -0.7143
 3062TIP3    H133381   4.227   3.849  18.137 -0.3331 -0.5882  0.7875
 3062TIP3    H233382   4.215   3.995  18.096  1.5815 -1.1907 -2.1917
 3063TIP3   OH233383   1.184   5.873  17.565 -0.4657 -0.3750 -0.0662
 3063TIP3    H133384   1.096   5.871  17.528 -1.3101  0.3939  1.7693
 3063TIP3    H233385   1.191   5.960  17.605  0.7223 -0.8129  0.7456
 3064TIP3   OH233386   3.637   4.780  17.606  0.2249  0.6974 -0.2916
 3064TIP3    H133387   3.562   4.838  17.600  0.4406  0.9508 -0.5458
 3064TIP3    H233388   3.623   4.731  17.687 -0.0856  0.9226 -0.2073
 3065TIP3   OH233389   5.926   2.261  18.695  0.1965 -0.2711 -0.2523
 3065TIP3    H133390   5.940   2.348  18.658 -0.0451 -0.1116  0.0283
 3065TIP3    H233391   5.902   2.277  18.787  1.3384 -0.6764  0.1422
 3066TIP3   OH233392   7.677   3.733  17.649 -0.4825  0.1631  0.4512
 3066TIP3    H133393   7.728   3.708  17.572 -0.8175  1.6078 -0.2882
 3066TIP3    H233394   7.737   3.788  17.700 -1.1128  1.5715 -0.2427
 3067TIP3   OH233395   3.064   3.433  17.805 -0.5532  0.3726 -0.0649
 3067TIP3    H133396   3.014   3.439  17.886  0.0267  0.5319  0.2793
 3067TIP3    H233397   3.072   3.339  17.788 -1.7164  0.3486 -0.5907
 3068TIP3   OH233398   7.612   0.354  16.913  0.1569 -0.3325 -0.3095
 3068TIP3    H133399   7.659   0.277  16.945  1.1008 -0.7081 -2.4678
 3068TIP3    H233400   7.535   0.318  16.868  0.6988 -0.0508 -1.4840
 3069TIP3   OH233401   1.122   0.342  17.593 -0.0075  0.1556 -0.3272
 3069TIP3    H133402   1.145   0.279  17.662 -1.5873 -1.6329 -1.3466
 3069TIP3    H233403   1.173   0.420  17.615  1.9402 -1.3944  1.0865
 3070TIP3   OH233404   1.612   7.157  17.902 -0.2027 -0.8192  0.1350
 3070TIP3    H133405   1.582   7.174  17.991 -1.2820 -0.5427 -0.2648
 3070TIP3    H233406   1.674   7.085  17.911  0.0409 -0.4963  1.1555
 3071TIP3   OH233407   4.929   2.657  19.005 -0.7275  0.0054 -0.6357
 3071TIP3    H133408   4.979   2.708  19.069 -0.0832 -0.5610 -0.6776
 3071TIP3    H233409   4.872   2.601  19.058  1.4493 -2.1635 -0.4196
 3072TIP3   OH233410   1.695   4.616  17.042  0.4910 -0.5636  0.3011
 3072TIP3    H133411   1.667   4.703  17.070  2.4523  0.2258 -0.0452
 3072TIP3    H233412   1.614   4.567  17.033 -0.8170  1.6432 -0.9152
 3073TIP3   OH233413   5.293   3.752  19.455 -0.3286 -0.2171  0.2365
 3073TIP3    H133414   5.367   3.736  19.396  0.2540 -0.2856  0.9628
 3073TIP3    H233415   5.332   3.795  19.531 -1.1915  0.6165  0.2333
 3074TIP3   OH233416   1.602   6.348  19.202 -0.0443 -0.1550 -0.5119
 3074TIP3    H133417   1.578   6.280  19.265  0.5464 -1.4853 -1.6583
 3074TIP3    H233418   1.691   6.324  19.174  0.4766  1.5151 -0.4169
 3075TIP3   OH233419   1.161   6.913  19.052  0.0432  0.2907  0.2023
 3075TIP3    H133420   1.251   6.940  19.029 -0.1535  1.4305  0.6977
 3075TIP3    H233421   1.129   6.983  19.109 -1.3573  0.1713 -0.4043
 3076TIP3   OH233422   2.615   2.459  17.148  0.3433  0.2595  0.1515
 3076TIP3    H133423   2.555   2.533  17.153  0.3008  0.4936 -2.6111
 3076TIP3    H233424   2.559   2.384  17.128  0.7668  0.1558 -0.6746
 3077TIP3   OH233425   5.775   0.581  19.233 -0.3992 -0.1867  0.6713
 3077TIP3    H133426   5.761   0.658  19.289 -2.4342 -0.9443  1.3254
 3077TIP3    H233427   5.719   0.597  19.156  1.4629  0.3007 -0.6490
 3078TIP3   OH233428   2.327   2.153  19.300  0.0094  0.2546 -0.4132
 3078TIP3    H133429   2.305   2.197  19.382  0.1545 -0.7438  0.1827
 3078TIP3    H233430   2.305   2.216  19.231 -0.1537  1.0870  0.3910
 3079TIP3   OH233431   6.120   5.968  18.743 -0.1247  0.5458 -0.1202
 3079TIP3    H133432   6.156   5.900  18.687  1.5275  1.4361 -0.1743
 3079TIP3    H233433   6.158   5.950  18.829 -0.2438  0.9787  0.0238
 3080TIP3   OH233434   4.987   4.873  18.436  0.5732  0.7746  0.2030
 3080TIP3    H133435   4.943   4.910  18.512  0.3834 -0.2503  0.6121
 3080TIP3    H233436   5.048   4.941  18.408 -1.2379  2.2625 -0.3912
 3081TIP3   OH233437   3.484   0.029  18.231 -0.6542  0.0198  0.1791
 3081TIP3    H133438   3.521   0.099  18.178 -2.6455  0.5688 -0.5640
 3081TIP3    H233439   3.516   0.047  18.320  0.6136  0.5790 -0.3715
 3082TIP3   OH233440   4.045   0.127  17.590 -0.0825 -0.0928  0.1273
 3082TIP3    H133441   3.955   0.115  17.562  0.1517  0.6052 -1.0089
 3082TIP3    H233442   4.085   0.179  17.520  1.5407 -1.5005 -0.0666
 3083TIP3   OH233443   0.046   3.819  19.764 -0.8680  0.2916  0.3613
 3083TIP3    H133444   0.023   3.853  19.677  0.0268 -1.7130 -0.7178
 3083TIP3    H233445  -0.022   3.855  19.822 -1.2619  1.9975 -1.0623
 3084TIP3   OH233446   3.720   2.752  19.117 -0.3954  0.0684  0.4028
 3084TIP3    H133447   3.723   2.668  19.162 -3.6108 -0.4436 -0.0676
 3084TIP3    H233448   3.763   2.736  19.032 -0.7249 -1.0253  0.4321
 3085TIP3   OH233449   7.292   6.999  18.172  0.3389  0.1099 -0.4032
 3085TIP3    H133450   7.353   6.967  18.106  0.9545 -0.4561  0.4288
 3085TIP3    H233451   7.339   6.994  18.255 -0.1383  1.5717  0.0037
 3086TIP3   OH233452   5.013   3.373  18.921 -0.0890  0.3456 -0.4974
 3086TIP3    H133453   5.051   3.420  18.995 -0.4851 -0.5965  0.3192
 3086TIP3    H233454   4.930   3.418  18.905  0.3700  1.0640 -0.9121
 3087TIP3   OH233455   0.309   4.576  19.070  0.3254  0.3609 -0.4484
 3087TIP3    H133456   0.332   4.493  19.113 -0.4500 -0.0415 -0.7839
 3087TIP3    H233457   0.329   4.561  18.978  1.5859  1.0766 -0.3210
 3088TIP3   OH233458   5.552   0.741  17.253 -0.3339 -0.1310 -0.1295
 3088TIP3    H133459   5.463   0.744  17.288 -0.9496  0.1577 -1.6469
 3088TIP3    H233460   5.549   0.794  17.173  1.7892  1.8995  0.9925
 3089TIP3   OH233461   6.039   1.427  17.918  0.4244  0.4739 -0.2864
 3089TIP3    H133462   5.951   1.466  17.922  0.4030  0.4337 -0.3576
 3089TIP3    H233463   6.025   1.335  17.942  0.2422  0.1478 -1.5398
 3090TIP3   OH233464   6.813   4.895  16.375  0.1404  0.6032  0.2263
 3090TIP3    H133465   6.726   4.903  16.413  0.9754  1.3832  2.0959
 3090TIP3    H233466   6.839   4.985  16.355  0.2659  0.3170 -0.9489
 3091TIP3   OH233467   5.262   5.804  18.275 -0.4342 -0.0266  0.0155
 3091TIP3    H133468   5.351   5.819  18.245 -0.6968 -0.6700 -1.1428
 3091TIP3    H233469   5.244   5.713  18.254 -1.1153 -0.1200  0.9352
 3092TIP3   OH233470   1.540   1.219  18.718 -0.2778 -0.1017  0.2638
 3092TIP3    H133471   1.502   1.135  18.746  0.7689 -1.0577 -1.0709
 3092TIP3    H233472   1.549   1.211  18.624  2.0453  0.5633  0.3821
 3093TIP3   OH233473   4.711   2.805  16.779 -0.0252  0.2076 -0.6134
 3093TIP3    H133474   4.765   2.849  16.845 -0.8042 -0.7246  0.6975
 3093TIP3    H233475   4.756   2.822  16.696  0.6565  1.9416  0.0540
 3094TIP3   OH233476   5.357   3.912  19.114 -0.5777 -0.2027  0.4061
 3094TIP3    H133477   5.396   3.828  19.090 -1.2462 -0.4536  0.1632
 3094TIP3    H233478   5.422   3.954  19.169  0.0797 -0.5608 -0.0814
 3095TIP3   OH233479   4.210   7.127  17.020  0.1117 -0.2299 -0.0713
 3095TIP3    H133480   4.285   7.184  17.009  0.7184 -0.8872  0.5465
 3095TIP3    H233481   4.242   7.054  17.074 -1.6935  0.9940  2.9200
 3096TIP3   OH233482   1.355   4.027  17.889 -0.0088  0.1773 -0.2065
 3096TIP3    H133483   1.277   4.001  17.939  0.4402 -0.5180  0.1390
 3096TIP3    H233484   1.424   4.035  17.955  0.4004  0.0259 -0.6147
 3097TIP3   OH233485   0.882   2.300  17.632 -0.3283  0.9114  0.2677
 3097TIP3    H133486   0.944   2.251  17.685  0.2218 -0.5219 -1.5878
 3097TIP3    H233487   0.801   2.299  17.683 -0.3015 -1.8784  0.4353
 3098TIP3   OH233488   7.313   3.404  19.309  0.4087  0.4921  0.4754
 3098TIP3    H133489   7.231   3.452  19.320 -0.2789  0.2810 -2.7282
 3098TIP3    H233490   7.287   3.312  19.311  0.3337  0.4297 -1.4674
 3099TIP3   OH233491   2.695   3.830  17.543 -0.0220  0.9561 -0.7369
 3099TIP3    H133492   2.725   3.764  17.480  0.9555  1.4378 -0.7915
 3099TIP3    H233493   2.652   3.896  17.490 -0.9287  0.4234 -0.6903
 3100TIP3   OH233494   6.537   4.236  18.382 -0.0381 -0.4507  0.4087
 3100TIP3    H133495   6.528   4.167  18.316 -0.6754 -0.5714  0.6178
 3100TIP3    H233496   6.617   4.283  18.357  0.2912 -1.1390  0.1494
 3101TIP3   OH233497   5.438   1.751  16.767 -1.1305 -0.0437  0.1463
 3101TIP3    H133498   5.502   1.788  16.705 -1.5336 -0.8755 -0.7974
 3101TIP3    H233499   5.390   1.826  16.800  0.5113  0.6455  1.1129
 3102TIP3   OH233500   5.941   3.122  17.592 -0.2780 -0.1665 -0.2542
 3102TIP3    H133501   5.952   3.155  17.502  0.3504 -1.9578 -0.8780
 3102TIP3    H233502   6.030   3.118  17.627 -0.3511 -1.0196 -0.1441
 3103TIP3   OH233503   6.356   3.831  18.055  0.2244  0.2074  0.5991
 3103TIP3    H133504   6.268   3.849  18.088 -0.2169 -1.0099  0.1379
 3103TIP3    H233505   6.343   3.812  17.962  0.7589 -1.3096  0.7955
 3104TIP3   OH233506   3.814   5.581  17.225  0.1770 -0.1050 -0.3067
 3104TIP3    H133507   3.827   5.608  17.134 -0.0706 -0.3005 -0.4006
 3104TIP3    H233508   3.897   5.539  17.249  0.4963  0.5569 -0.2175
 3105TIP3   OH233509   4.146   5.461  18.849  0.2523  0.3641 -0.5135
 3105TIP3    H133510   4.184   5.526  18.789 -1.9558  1.4219 -0.8757
 3105TIP3    H233511   4.199   5.467  18.928  1.9369  0.4468 -1.6157
 3106TIP3   OH233512   0.017   0.973  17.454  0.1869 -0.0538 -0.5940
 3106TIP3    H133513   0.034   1.050  17.400 -0.3929 -0.2458 -1.0649
 3106TIP3    H233514  -0.069   0.990  17.492 -0.3063 -0.8048 -1.3257
 3107TIP3   OH233515   3.206   1.956  16.999 -0.3695  0.4229 -0.6226
 3107TIP3    H133516   3.266   1.884  16.979 -0.7798 -0.3145  0.6853
 3107TIP3    H233517   3.255   2.035  16.977  0.8213 -0.1886 -0.2478
 3108TIP3   OH233518   5.416   3.512  18.698  0.7330  0.4962 -0.1678
 3108TIP3    H133519   5.341   3.529  18.642 -2.0341 -2.9758  2.0605
 3108TIP3    H233520   5.401   3.567  18.775  1.2581  0.7711 -0.2548
 3109TIP3   OH233521   2.031   7.304  18.007  0.2408  0.7332  0.0859
 3109TIP3    H133522   2.059   7.242  17.939  0.1269  0.8836 -0.0996
 3109TIP3    H233523   2.034   7.390  17.964 -2.4891  0.5580 -0.5870
 3110TIP3   OH233524   6.250   3.010  19.234 -0.7779  0.5872 -0.3476
 3110TIP3    H133525   6.159   2.994  19.209 -0.5636 -0.1485 -0.6848
 3110TIP3    H233526   6.276   2.931  19.281  0.3252 -0.1453 -2.0883
 3111TIP3   OH233527   2.505   3.654  18.921 -0.3142 -0.7772 -0.6818
 3111TIP3    H133528   2.574   3.588  18.926 -0.9779 -1.4029  0.8977
 3111TIP3    H233529   2.424   3.604  18.930 -0.9344  0.0384 -1.6159
 3112TIP3   OH233530   7.125   6.554  18.880 -0.0357  0.7972  0.3456
 3112TIP3    H133531   7.135   6.649  18.882  1.6435  0.6396  1.9208
 3112TIP3    H233532   7.155   6.525  18.966 -2.5182 -1.0241  0.7308
 3113TIP3   OH233533   3.789   5.678  17.489  0.5378  0.2320  0.1722
 3113TIP3    H133534   3.829   5.764  17.502 -2.0894  1.2922  2.4244
 3113TIP3    H233535   3.777   5.670  17.394  1.6224  1.9513 -0.1360
 3114TIP3   OH233536   5.269   1.509  16.729 -0.7244 -0.2491 -0.3028
 3114TIP3    H133537   5.324   1.586  16.715  3.1958 -2.3137  2.1650
 3114TIP3    H233538   5.299   1.446  16.663  0.6912 -1.7104  1.6274
 3115TIP3   OH233539   4.816   2.962  18.435 -0.0960 -0.5666  0.0326
 3115TIP3    H133540   4.870   3.022  18.384 -1.3401 -0.0921 -0.7718
 3115TIP3    H233541   4.777   2.903  18.370 -0.1968 -1.1937  0.6451
 3116TIP3   OH233542   2.047   3.499  16.923 -0.1385 -0.0864 -0.3583
 3116TIP3    H133543   1.972   3.504  16.864 -2.0438 -1.3977  1.7537
 3116TIP3    H233544   2.040   3.413  16.964  1.3180  0.5705  1.4275
 3117TIP3   OH233545   7.365   5.356  19.380 -0.2892  0.4905  0.5152
 3117TIP3    H133546   7.347   5.450  19.369 -0.1075  0.4059 -0.6848
 3117TIP3    H233547   7.440   5.353  19.438  1.6030  1.2648 -1.7222
 3118TIP3   OH233548   0.450   0.772  17.544 -0.0021  0.0879 -0.3921
 3118TIP3    H133549   0.468   0.697  17.488 -0.0019 -0.5408  0.4457
 3118TIP3    H233550   0.369   0.750  17.589  0.1342  0.4796  0.0554
 3119TIP3   OH233551   6.843   0.489  19.216 -0.1086 -0.8919 -0.1074
 3119TIP3    H133552   6.934   0.494  19.185 -0.5533 -1.4397 -1.6259
 3119TIP3    H233553   6.811   0.579  19.210  0.8085 -0.3622  2.1265
 3120TIP3   OH233554   7.514   2.115  19.433 -0.1176  0.3100 -0.3067
 3120TIP3    H133555   7.542   2.035  19.479  2.0751  1.9910  1.5478
 3120TIP3    H233556   7.430   2.136  19.473 -0.3335 -0.6376 -0.2288
 3121TIP3   OH233557   2.765   5.368  17.827 -0.2404  0.1779  0.4296
 3121TIP3    H133558   2.709   5.432  17.871 -0.6619 -0.0373  0.2119
 3121TIP3    H233559   2.748   5.286  17.872 -0.7233 -0.0584 -0.1614
 3122TIP3   OH233560   0.761   0.086  18.381 -0.0342 -0.1645 -0.0098
 3122TIP3    H133561   0.709   0.096  18.301 -2.3925  2.2620  1.6586
 3122TIP3    H233562   0.816   0.164  18.384 -0.3395  0.0290  0.9367
 3123TIP3   OH233563   2.759   1.908  18.979 -0.6722 -0.2162 -0.1658
 3123TIP3    H133564   2.841   1.953  18.956 -1.4647  1.2243 -0.2773
 3123TIP3    H233565   2.773   1.817  18.949  1.0431 -0.1261  0.2318
 3124TIP3   OH233566   4.081   5.985  18.534  0.0932 -0.7338 -0.0842
 3124TIP3    H133567   4.123   5.921  18.477  2.6385  1.5518 -1.0090
 3124TIP3    H233568   4.039   6.047  18.474 -2.0427 -1.2458  0.7740
 3125TIP3   OH233569   5.908   2.495  18.576 -0.1425 -0.2939 -0.0900
 3125TIP3    H133570   5.981   2.557  18.583 -0.5915  0.2032  0.2731
 3125TIP3    H233571   5.882   2.499  18.484 -1.3745  1.4943  0.2724
 3126TIP3   OH233572   4.779   1.546  18.465  0.1827 -0.3565  0.0392
 3126TIP3    H133573   4.845   1.539  18.533 -0.8212 -0.7270  1.0070
 3126TIP3    H233574   4.776   1.640  18.443  0.9785 -0.3342  0.0221
 3127TIP3   OH233575   2.162   0.360  18.801  0.7566  0.7608 -0.1399
 3127TIP3    H133576   2.257   0.374  18.794  0.3879  3.7252 -0.7882
 3127TIP3    H233577   2.132   0.428  18.862 -0.9508 -0.2911  0.2742
 3128TIP3   OH233578   0.468   0.587  17.160 -0.3850  0.2684 -0.1140
 3128TIP3    H133579   0.531   0.659  17.150 -0.5231  0.3664 -0.2780
 3128TIP3    H233580   0.522   0.509  17.172 -0.1119  0.8580  4.0296
 3129TIP3   OH233581   1.430   4.104  18.564 -0.8786 -0.4695 -0.2508
 3129TIP3    H133582   1.471   4.018  18.562  2.7223  1.0543 -0.3958
 3129TIP3    H233583   1.402   4.115  18.654  0.3326 -1.1276  0.2396
 3130TIP3   OH233584   4.853   1.853  17.856 -0.0794 -0.4158 -0.4097
 3130TIP3    H133585   4.923   1.821  17.913  1.6496  1.4576 -1.3415
 3130TIP3    H233586   4.805   1.774  17.831  0.2250 -1.5098  2.0958
 3131TIP3   OH233587   2.583   0.178  18.581  0.5534  0.2469 -0.1607
 3131TIP3    H133588   2.513   0.161  18.517  1.4296 -0.2445 -1.0232
 3131TIP3    H233589   2.654   0.121  18.553  0.2048 -1.7727  2.6214
 3132TIP3   OH233590   0.273   4.164  19.510  0.2587  0.1407  0.0376
 3132TIP3    H133591   0.210   4.134  19.443 -0.9750  0.6070  0.9536
 3132TIP3    H233592   0.321   4.085  19.534 -2.0655 -0.9588  1.4843
 3133TIP3   OH233593   7.205   5.572  19.247  0.2795 -0.5426  0.7049
 3133TIP3    H133594   7.224   5.657  19.286  0.0724 -0.4599  0.6227
 3133TIP3    H233595   7.117   5.580  19.212 -0.1961 -1.1534  1.7095
 3134TIP3   OH233596   1.027   3.157  17.654 -0.0324  0.5476 -0.7324
 3134TIP3    H133597   1.016   3.245  17.617  2.1471  0.5137 -1.6396
 3134TIP3    H233598   1.033   3.099  17.578 -2.6782 -0.6401 -0.1447
 3135TIP3   OH233599   1.815   0.506  18.086 -0.1206  0.2200 -0.0450
 3135TIP3    H133600   1.868   0.437  18.127 -0.7488 -0.3897 -0.2333
 3135TIP3    H233601   1.834   0.585  18.137 -0.7345 -0.4701  1.3154
 3136TIP3   OH233602   5.355   4.215  17.976 -0.4792  0.3683 -0.0605
 3136TIP3    H133603   5.399   4.211  18.062 -2.1526 -1.9020  0.7977
 3136TIP3    H233604   5.290   4.284  17.986  1.1257  2.0338 -0.5097
 3137TIP3   OH233605   1.459   0.946  18.108 -0.3925 -0.3657 -0.7597
 3137TIP3    H133606   1.475   0.872  18.166  0.3399 -0.4542 -1.0595
 3137TIP3    H233607   1.481   0.914  18.021  1.5199  0.6451 -0.7140
 3138TIP3   OH233608   4.384   2.911  16.936  0.0201  0.5456 -0.1802
 3138TIP3    H133609   4.451   2.935  16.999  1.5768 -0.1166 -1.5190
 3138TIP3    H233610   4.371   2.990  16.883 -0.9816  0.9692  0.6612
 3139TIP3   OH233611   7.175   3.921  17.831  0.1094 -0.3715  0.6538
 3139TIP3    H133612   7.222   3.929  17.914  0.2041 -0.4099  0.6039
 3139TIP3    H233613   7.238   3.948  17.764 -0.1348  0.1713  0.6389
 3140TIP3   OH233614   1.611   1.051  18.428 -0.0585  0.0297  0.1397
 3140TIP3    H133615   1.566   0.982  18.476 -0.9529  2.6263  3.4101
 3140TIP3    H233616   1.541   1.104  18.390  0.3168  1.6714  1.6116
 3141TIP3   OH233617   4.320   7.512  17.558 -0.4826 -0.2707 -0.2470
 3141TIP3    H133618   4.359   7.498  17.471  1.1639 -0.4883  0.4855
 3141TIP3    H233619   4.333   7.605  17.575 -2.4968  0.2056 -0.9622
 3142TIP3   OH233620   7.013   3.059  18.577 -0.4331  0.1645  0.1155
 3142TIP3    H133621   6.938   3.038  18.522 -0.6865  0.6766  0.2557
 3142TIP3    H233622   6.979   3.055  18.667 -1.6231  4.8209  0.1792
 3143TIP3   OH233623   4.343   6.052  16.613 -0.0029  0.3462  0.2422
 3143TIP3    H133624   4.374   5.962  16.612 -1.1670 -0.0644 -0.3968
 3143TIP3    H233625   4.254   6.048  16.577 -1.4888  1.2208  3.3865
 3144TIP3   OH233626   5.241   6.983  17.136  0.4517 -0.3504  0.0213
 3144TIP3    H133627   5.243   6.920  17.064  0.1997 -0.0679 -0.2311
 3144TIP3    H233628   5.295   7.056  17.105 -1.0178  0.5181 -0.5687
 3145TIP3   OH233629   7.610   3.974  18.515  0.1351  0.1854  0.1335
 3145TIP3    H133630   7.601   3.883  18.490 -1.3709  0.2182  0.4841
 3145TIP3    H233631   7.631   3.972  18.608  2.1464  0.1768 -0.2639
 3146TIP3   OH233632   7.430   4.004  18.287 -0.2672 -0.1238  0.2394
 3146TIP3    H133633   7.490   4.035  18.220  0.3182 -1.2915  0.1939
 3146TIP3    H233634   7.466   4.036  18.369  0.3301 -0.6554  0.1943
 3147TIP3   OH233635   6.424   6.440  17.636  0.4097 -0.3469 -0.6153
 3147TIP3    H133636   6.413   6.358  17.685 -1.3538  0.7124  0.8888
 3147TIP3    H233637   6.506   6.477  17.670 -0.2138 -0.1767  0.8100
 3148TIP3   OH233638   3.227   4.387  18.622  0.1118  0.4595  0.1736
 3148TIP3    H133639   3.260   4.477  18.622 -0.0769  0.5435 -0.7562
 3148TIP3    H233640   3.208   4.368  18.714  0.8272  1.1159  0.4678
 3149TIP3   OH233641   7.341   3.128  18.567  0.1414  0.4467 -0.1872
 3149TIP3    H133642   7.345   3.112  18.473  2.0091 -0.9324  0.0709
 3149TIP3    H233643   7.258   3.173  18.580 -0.9229 -0.7593 -2.2846
 3150TIP3   OH233644   0.179   4.140  17.836  0.2670  0.4752  0.1184
 3150TIP3    H133645   0.142   4.210  17.783 -0.7668 -0.0429  0.1428
 3150TIP3    H233646   0.225   4.186  17.907 -0.5625  1.1269  0.2461
 3151TIP3   OH233647   4.076   5.063  16.888 -0.3426 -0.8137  0.0804
 3151TIP3    H133648   4.132   5.027  16.819 -0.3593  0.8100 -0.8421
 3151TIP3    H233649   4.131   5.064  16.966  1.0702  0.9822 -0.8546
 3152TIP3   OH233650   1.075   0.263  18.363  0.2667  0.7613 -0.0570
 3152TIP3    H133651   1.115   0.288  18.279 -0.1886  1.5267 -0.0528
 3152TIP3    H233652   0.999   0.320  18.371 -1.9533 -1.8467 -0.9375
 3153TIP3   OH233653   6.664   6.048  18.011  0.3809  0.1809 -0.2315
 3153TIP3    H133654   6.750   6.028  18.048 -0.7267 -0.9743  1.8738
 3153TIP3    H233655   6.645   6.137  18.043 -0.2047 -0.4870  1.3860
 3154TIP3   OH233656   4.570   5.436  18.611  0.9035 -0.3807 -0.5057
 3154TIP3    H133657   4.617   5.512  18.645 -2.1765  0.7895  1.4869
 3154TIP3    H233658   4.595   5.364  18.669  1.1408 -0.0690 -0.2203
 3155TIP3   OH233659   3.238   0.535  17.731 -0.1848 -0.2751 -0.4908
 3155TIP3    H133660   3.287   0.494  17.659  1.0746  2.6831 -1.4973
 3155TIP3    H233661   3.148   0.504  17.720  0.6858 -2.9053 -0.9203
 3156TIP3   OH233662   7.478   1.769  18.178  0.4871  0.3119  0.2043
 3156TIP3    H133663   7.500   1.817  18.258 -0.7241 -1.4357  1.7002
 3156TIP3    H233664   7.394   1.806  18.150  1.5015  1.7776 -1.0532
 3157TIP3   OH233665   6.165   6.529  17.767  0.6937  0.5725 -0.3309
 3157TIP3    H133666   6.221   6.500  17.695  1.6017 -0.6604  0.8143
 3157TIP3    H233667   6.150   6.622  17.751  2.1754  0.6747 -1.2551
 3158TIP3   OH233668   6.273   0.449  17.282 -0.1536 -0.5410 -0.2827
 3158TIP3    H133669   6.341   0.470  17.346  0.2066  0.2119 -0.8918
 3158TIP3    H233670   6.192   0.448  17.333  0.2105 -0.6377  0.3034
 3159TIP3   OH233671   1.040   1.101  19.382  0.0732 -0.3399 -0.1605
 3159TIP3    H133672   0.957   1.077  19.341  0.5527 -1.1771 -0.6748
 3159TIP3    H233673   1.090   1.143  19.312  0.3213 -0.3949 -0.0162
 3160TIP3   OH233674   7.619   2.368  18.484  0.3389  0.3440  0.5476
 3160TIP3    H133675   7.676   2.418  18.426  0.1381  0.4025  0.3956
 3160TIP3    H233676   7.615   2.420  18.564 -1.2805  1.5125 -0.2278
 3161TIP3   OH233677   6.486   2.714  16.443 -0.1154 -0.0222 -0.0470
 3161TIP3    H133678   6.444   2.643  16.395  1.1539 -1.4694  0.9222
 3161TIP3    H233679   6.434   2.723  16.523  1.0357 -1.4363  0.8925
 3162TIP3   OH233680   0.100   5.925  17.665  0.2037 -0.2785  0.3259
 3162TIP3    H133681   0.037   5.883  17.724 -0.4863 -0.1940 -0.3405
 3162TIP3    H233682   0.090   5.878  17.582  0.8381 -0.0951  0.1463
 3163TIP3   OH233683   6.208   1.050  18.148  0.0808  0.4187  0.2140
 3163TIP3    H133684   6.131   1.105  18.137  0.4892  0.7010 -1.5163
 3163TIP3    H233685   6.200   1.015  18.237 -1.5516  1.1568  0.3934
 3164TIP3   OH233686   4.050   7.488  18.910 -0.0017  0.1643  0.1483
 3164TIP3    H133687   4.076   7.426  18.978 -0.9275 -0.4538 -0.0384
 3164TIP3    H233688   3.968   7.526  18.943  1.2137  2.2914  0.8844
 3165TIP3   OH233689   1.132   1.356  18.707 -0.7393 -0.2537 -0.0400
 3165TIP3    H133690   1.209   1.327  18.756  0.4601  2.4309 -0.1156
 3165TIP3    H233691   1.146   1.323  18.618 -0.0751 -0.4989  0.1509
 3166TIP3   OH233692   4.495   1.091  18.100 -0.0242 -0.0613  0.5143
 3166TIP3    H133693   4.485   1.010  18.150 -3.6398 -0.0529  0.0815
 3166TIP3    H233694   4.497   1.160  18.166 -2.3824 -0.2180  0.8276
 3167TIP3   OH233695   6.019   7.218  19.397  0.1210  0.7872 -0.0011
 3167TIP3    H133696   5.962   7.252  19.328  0.7190 -0.2682 -1.0524
 3167TIP3    H233697   5.998   7.125  19.402  0.1795  0.8222  1.1713
 3168TIP3   OH233698   2.988   2.957  18.628 -0.3633  0.1311  0.1040
 3168TIP3    H133699   2.992   2.864  18.651 -1.5880  0.2113  0.7377
 3168TIP3    H233700   3.051   2.999  18.687 -0.8781 -0.1283  0.8643
 3169TIP3   OH233701   6.146   1.978  17.649 -0.0891  0.4810  0.3903
 3169TIP3    H133702   6.192   1.967  17.566 -1.3082 -0.1577 -0.2329
 3169TIP3    H233703   6.211   2.017  17.708  1.2391 -0.4140 -0.4287
 3170TIP3   OH233704   4.146   3.176  19.305  0.4353  0.4968 -0.3804
 3170TIP3    H133705   4.228   3.189  19.351  0.8763 -0.2602 -0.9148
 3170TIP3    H233706   4.154   3.088  19.266 -2.1373 -1.3390  2.6748
 3171TIP3   OH233707   7.016   7.449  18.237  0.0816 -0.1505  0.0502
 3171TIP3    H133708   7.052   7.515  18.179 -1.4922  0.8522  0.1663
 3171TIP3    H233709   7.076   7.374  18.228  0.8235  0.5855 -1.5291
 3172TIP3   OH233710   2.795   2.669  17.527  0.3543  0.2798 -0.3684
 3172TIP3    H133711   2.710   2.713  17.532 -0.3845 -1.1106 -0.0716
 3172TIP3    H233712   2.810   2.636  17.615  1.8188  1.5645 -0.1042
 3173TIP3   OH233713   2.241   5.508  18.100  0.4229  0.1431 -0.6589
 3173TIP3    H133714   2.168   5.490  18.159  0.4337 -1.8128 -1.1935
 3173TIP3    H233715   2.286   5.424  18.090  2.3072  1.1239 -0.9557
 3174TIP3   OH233716   2.107   3.005  17.607 -0.5810 -0.9651 -0.1030
 3174TIP3    H133717   2.166   2.985  17.535  1.5125 -1.0957  1.5271
 3174TIP3    H233718   2.152   3.075  17.656 -1.7148 -1.1460  1.2767
 3175TIP3   OH233719   3.768   2.873  17.698 -0.1609 -0.4617  0.4461
 3175TIP3    H133720   3.800   2.962  17.684 -0.4074 -0.7325 -2.5479
 3175TIP3    H233721   3.682   2.872  17.657 -0.3959 -1.9397  0.9176
 3176TIP3   OH233722   4.730   3.935  18.795 -0.6128  0.2497 -0.1292
 3176TIP3    H133723   4.755   3.970  18.710 -0.9405 -1.8205 -1.1239
 3176TIP3    H233724   4.785   3.983  18.858  1.2856  0.2143 -1.6758
 3177TIP3   OH233725   3.742   0.860  17.459  0.8504  0.2541 -0.6105
 3177TIP3    H133726   3.707   0.784  17.506  0.8028  1.2526  1.0806
 3177TIP3    H233727   3.755   0.830  17.370 -2.3252 -0.7803 -0.8472
 3178TIP3   OH233728   6.646   6.844  17.248 -0.4522  0.1951 -0.0666
 3178TIP3    H133729   6.661   6.876  17.337 -2.4988  0.6871  0.1552
 3178TIP3    H233730   6.559   6.877  17.225 -0.4966 -0.9791 -1.7851
 3179TIP3   OH233731   3.784   5.969  17.310 -0.2230  0.2199 -0.0167
 3179TIP3    H133732   3.775   5.944  17.218  1.1480 -1.6178  0.2870
 3179TIP3    H233733   3.868   5.931  17.336 -0.4100  1.0468  1.9038
 3180TIP3   OH233734   0.666   4.579  18.802  0.3333 -0.8449  0.0824
 3180TIP3    H133735   0.649   4.567  18.709  0.2949  1.9986 -0.3776
 3180TIP3    H233736   0.581   4.567  18.844 -0.0890 -0.1101 -0.5359
 3181TIP3   OH233737   5.870   5.748  17.126  0.8312  0.1939 -0.7574
 3181TIP3    H133738   5.828   5.827  17.159 -1.8927 -1.8231  1.1255
 3181TIP3    H233739   5.952   5.742  17.175 -0.2728  0.4623  1.2562
 3182TIP3   OH233740   5.291   2.721  19.177  0.6577  0.7751 -0.3309
 3182TIP3    H133741   5.348   2.753  19.246  0.4256 -1.1540  0.8313
 3182TIP3    H233742   5.203   2.746  19.205  0.6311  0.6814 -0.3309
 3183TIP3   OH233743   2.427   0.327  17.763  0.6804 -0.4023 -0.2962
 3183TIP3    H133744   2.440   0.355  17.853 -0.3857 -0.3993 -0.1249
 3183TIP3    H233745   2.511   0.342  17.720  1.0074  0.1994  0.5423
 3184TIP3   OH233746   2.646   4.556  17.958  0.0545 -0.2008  0.5214
 3184TIP3    H133747   2.703   4.625  17.992  0.8002 -0.0219 -1.0086
 3184TIP3    H233748   2.684   4.474  17.991  0.6772 -0.0222  0.2503
 3185TIP3   OH233749   2.085   5.957  18.763  0.4743  0.0464 -0.4285
 3185TIP3    H133750   2.102   5.945  18.856  0.5516 -1.4191 -0.6188
 3185TIP3    H233751   2.001   6.003  18.760 -0.1938 -1.0793  0.3624
 3186TIP3   OH233752   7.372   6.139  19.207 -0.1653  0.4676 -0.1174
 3186TIP3    H133753   7.411   6.203  19.148 -0.6781  1.0253  0.1452
 3186TIP3    H233754   7.340   6.070  19.149 -0.1789  0.7519 -0.4521
 3187TIP3   OH233755   2.456   6.501  17.802  0.1501  0.1105 -0.5451
 3187TIP3    H133756   2.437   6.419  17.756  0.8426  0.5735 -1.6903
 3187TIP3    H233757   2.476   6.474  17.892 -2.7831 -0.6795 -0.0207
 3188TIP3   OH233758   6.045   1.108  18.840  0.3258  0.3752  0.2228
 3188TIP3    H133759   5.978   1.041  18.828 -0.6026  1.0033  1.6042
 3188TIP3    H233760   6.124   1.060  18.861  0.0872 -0.3483 -0.4967
 3189TIP3   OH233761   7.482   1.521  18.064  0.1149  0.3875 -0.2858
 3189TIP3    H133762   7.477   1.606  18.106 -1.3719  0.5300 -0.6926
 3189TIP3    H233763   7.562   1.524  18.012  2.3693 -0.0145  2.8642
 3190TIP3   OH233764   6.302   0.368  18.521 -0.2194 -0.0931  0.6601
 3190TIP3    H133765   6.220   0.380  18.568 -1.0043 -1.5358 -0.2499
 3190TIP3    H233766   6.279   0.374  18.428  0.5178 -1.3649  0.3643
 3191TIP3   OH233767   2.836   1.447  18.133  0.6593 -0.3653  0.3842
 3191TIP3    H133768   2.809   1.485  18.049 -1.7630 -0.0421  1.2233
 3191TIP3    H233769   2.885   1.517  18.177 -0.0299  0.2674  0.1606
 3192TIP3   OH233770   2.055   4.669  17.561  0.4923 -0.2316  0.4522
 3192TIP3    H133771   1.967   4.706  17.555  0.3761 -0.6187 -0.2151
 3192TIP3    H233772   2.106   4.718  17.497  0.2387 -1.4954 -0.7557
 3193TIP3   OH233773   1.862   0.096  18.709  0.4579  0.1084 -0.6207
 3193TIP3    H133774   1.922   0.130  18.643 -0.3311 -1.4075 -2.2145
 3193TIP3    H233775   1.793   0.053  18.659 -1.4284  0.8846  1.1698
 3194TIP3   OH233776   4.509   7.349  18.790  0.1734  0.9191  0.2614
 3194TIP3    H133777   4.549   7.311  18.712  0.8048  2.1576 -0.0545
 3194TIP3    H233778   4.520   7.283  18.858  0.4612  0.2070 -0.4675
 3195TIP3   OH233779   1.232   5.598  17.615  0.0039 -0.6829 -0.0010
 3195TIP3    H133780   1.199   5.668  17.560 -0.8151 -0.7610  0.3685
 3195TIP3    H233781   1.319   5.579  17.582 -0.6162 -1.0013 -1.5183
 3196TIP3   OH233782   7.248   1.843  19.475 -0.1528  0.0626  0.1390
 3196TIP3    H133783   7.344   1.841  19.479 -0.0263 -1.3444 -2.0485
 3196TIP3    H233784   7.226   1.934  19.494  1.8657  1.1885 -2.3008
 3197TIP3   OH233785   4.023   7.467  18.355 -0.2791 -0.0089 -0.2190
 3197TIP3    H133786   3.952   7.434  18.300 -0.8419  1.4192 -0.3885
 3197TIP3    H233787   4.033   7.559  18.330  0.1683  0.3974  1.2999
 3198TIP3   OH233788   2.591   2.471  19.338  0.7201 -0.2348 -0.3663
 3198TIP3    H133789   2.497   2.457  19.348  0.0579  1.1761 -3.3958
 3198TIP3    H233790   2.623   2.390  19.298  1.1330 -1.2540  1.8942
 3199TIP3   OH233791   6.597   1.109  18.488 -0.8053  0.3748 -0.6024
 3199TIP3    H133792   6.563   1.073  18.406 -2.5175  0.4790  0.0276
 3199TIP3    H233793   6.657   1.178  18.460 -0.7951 -0.0714 -1.7668
 3200TIP3   OH233794   2.815   1.630  18.877 -0.0253 -0.0011 -0.4845
 3200TIP3    H133795   2.800   1.548  18.925 -0.5307  1.2583  1.5992
 3200TIP3    H233796   2.909   1.647  18.887 -0.0052 -0.0907 -0.5203
 3201TIP3   OH233797   5.386   4.543  18.765 -0.0737 -0.2954  0.1832
 3201TIP3    H133798   5.375   4.469  18.706  2.2195  0.7448 -1.7027
 3201TIP3    H233799   5.307   4.596  18.752 -0.2844 -0.8325 -0.8584
 3202TIP3   OH233800   5.951   0.267  18.280  0.1635  0.5380  0.1980
 3202TIP3    H133801   5.867   0.224  18.294 -0.4110  1.0035 -1.5334
 3202TIP3    H233802   6.008   0.234  18.350 -0.9537 -1.1338  0.3539
 3203TIP3   OH233803   7.442   2.285  16.087 -0.4961 -0.0526  0.3121
 3203TIP3    H133804   7.456   2.379  16.080 -0.1502 -0.1731 -0.8439
 3203TIP3    H233805   7.354   2.270  16.052 -0.4062 -0.1930  0.1406
 3204TIP3   OH233806   1.224   7.026  17.563 -0.0495 -0.1567 -0.5902
 3204TIP3    H133807   1.310   7.052  17.595 -0.8844  0.4437  1.3144
 3204TIP3    H233808   1.228   6.930  17.558  0.9021 -0.1019 -1.1477
 3205TIP3   OH233809   1.719   2.265  18.989  0.1907 -0.1155 -0.5260
 3205TIP3    H133810   1.627   2.251  19.015 -0.4598  1.2642 -1.9482
 3205TIP3    H233811   1.769   2.235  19.065 -1.5193  1.2668  1.2589
 3206TIP3   OH233812   3.769   2.135  18.230  0.2643 -0.0071  0.0306
 3206TIP3    H133813   3.783   2.042  18.247  0.8839  0.1949  0.6648
 3206TIP3    H233814   3.815   2.151  18.147 -1.4727 -0.6616 -1.1096
 3207TIP3   OH233815   2.998   2.014  18.889  0.8513  0.5314 -0.8049
 3207TIP3    H133816   3.059   2.014  18.963 -0.3766 -1.8530  0.3145
 3207TIP3    H233817   3.051   1.986  18.814  1.3891 -0.4011 -0.0888
 3208TIP3   OH233818   1.138   4.948  17.015 -0.3005 -0.8053  0.3994
 3208TIP3    H133819   1.062   4.970  17.069 -0.1396  0.1287  0.2701
 3208TIP3    H233820   1.103   4.938  16.927 -0.2404 -0.0532  0.2821
 3209TIP3   OH233821   0.496   3.327  18.697 -0.4373 -0.0581 -0.3770
 3209TIP3    H133822   0.535   3.257  18.749 -1.3408 -1.0827 -1.0387
 3209TIP3    H233823   0.503   3.297  18.606 -2.5735 -0.2153 -0.5331
 3210TIP3   OH233824   6.659   2.286  18.969 -0.3657  0.4291 -0.4715
 3210TIP3    H133825   6.680   2.244  18.886  0.8409  0.6609 -0.3018
 3210TIP3    H233826   6.667   2.380  18.952 -1.8179  0.5605 -0.5267
 3211TIP3   OH233827   5.339   4.300  19.028 -0.1924 -0.3651 -0.4257
 3211TIP3    H133828   5.343   4.327  18.936  0.6657  1.6164  0.1448
 3211TIP3    H233829   5.392   4.221  19.032 -0.2599 -0.4865 -1.6351
 3212TIP3   OH233830   0.654   3.673  16.815 -0.4339  0.2493 -0.6585
 3212TIP3    H133831   0.644   3.758  16.859 -0.9246  0.5781 -1.3851
 3212TIP3    H233832   0.567   3.635  16.817 -0.2903 -0.0826 -0.6608
 3213TIP3   OH233833   2.980   5.099  18.601 -0.1030 -0.3392  0.7110
 3213TIP3    H133834   2.929   5.152  18.663 -1.3574 -0.1646 -0.4214
 3213TIP3    H233835   3.068   5.136  18.605 -0.6716  1.0597  0.8342
 3214TIP3   OH233836   3.473   4.536  17.638 -0.2763 -0.0603  0.0322
 3214TIP3    H133837   3.543   4.472  17.654 -0.3726 -0.2640 -0.3597
 3214TIP3    H233838   3.393   4.483  17.637 -0.4463  0.1825  0.5543
 3215TIP3   OH233839   1.237   1.744  18.978 -0.1555  0.5314  0.5203
 3215TIP3    H133840   1.192   1.668  19.016  0.7517 -0.4023 -0.2152
 3215TIP3    H233841   1.311   1.760  19.036 -0.7347  1.3180  1.0644
 3216TIP3   OH233842   6.359   0.323  19.655 -0.0505  0.2056 -0.1088
 3216TIP3    H133843   6.428   0.296  19.716  1.8195 -2.1952 -2.9976
 3216TIP3    H233844   6.396   0.399  19.610 -0.3999  0.4769  0.0579
 3217TIP3   OH233845   4.538   7.423  18.326  0.0985 -0.1052  0.2346
 3217TIP3    H133846   4.450   7.431  18.365  0.4339 -0.0653  0.9947
 3217TIP3    H233847   4.528   7.355  18.260 -0.6277  0.2582 -0.0476
 3218TIP3   OH233848   6.286   2.435  17.970  0.2325 -0.6158 -0.1120
 3218TIP3    H133849   6.310   2.367  18.033 -2.2651 -1.1848  0.3257
 3218TIP3    H233850   6.254   2.387  17.894 -1.2221  0.0069  0.0625
 3219TIP3   OH233851   2.726   3.368  17.783  0.0696 -0.5988  0.0029
 3219TIP3    H133852   2.654   3.405  17.835 -0.6658 -0.6554 -0.9370
 3219TIP3    H233853   2.762   3.298  17.837 -0.6090 -0.5883  0.4834
 3220TIP3   OH233854   4.421   2.155  17.137 -0.3122 -0.4073  0.5588
 3220TIP3    H133855   4.371   2.199  17.068  0.4372 -0.5806 -0.1027
 3220TIP3    H233856   4.354   2.119  17.195 -0.9604 -0.5906 -0.2803
 3221TIP3   OH233857   5.599   2.790  16.635 -0.1938  0.1837 -0.5460
 3221TIP3    H133858   5.564   2.716  16.685 -0.5019  0.3042 -0.5756
 3221TIP3    H233859   5.521   2.836  16.603 -0.0044  0.4246 -0.6695
 3222TIP3   OH233860   4.612   2.561  19.236 -0.4293 -0.2098  0.0988
 3222TIP3    H133861   4.696   2.515  19.228 -0.2502  0.3782 -1.8003
 3222TIP3    H233862   4.592   2.591  19.147 -1.6537  1.4354  0.8724
 3223TIP3   OH233863   6.508   4.303  17.053  0.4202 -0.1153  0.1304
 3223TIP3    H133864   6.422   4.307  17.097  0.6469  0.0693  0.5671
 3223TIP3    H233865   6.529   4.395  17.036 -0.0727 -0.2167 -1.1904
 3224TIP3   OH233866   5.668   2.310  19.632 -0.2179  0.4608  0.2066
 3224TIP3    H133867   5.669   2.221  19.666  0.0122  0.2006 -0.4568
 3224TIP3    H233868   5.760   2.330  19.616  0.0582  1.9187  3.0855
 3225TIP3   OH233869   4.575   0.011  17.707  0.0921 -0.3106  0.3478
 3225TIP3    H133870   4.542   0.047  17.624 -1.1325 -0.5698  0.6969
 3225TIP3    H233871   4.622   0.084  17.747  0.1440  0.0102 -0.2752
 3226TIP3   OH233872   0.849   0.109  18.673 -0.5529 -0.3893 -0.5890
 3226TIP3    H133873   0.819   0.196  18.698 -0.8715 -0.2789 -1.3064
 3226TIP3    H233874   0.802   0.090  18.591  1.0443 -0.3602 -1.5636
 3227TIP3   OH233875   2.127   3.933  19.106  0.0037 -0.1856 -0.2675
 3227TIP3    H133876   2.178   3.866  19.151  1.6575  1.0117 -0.3005
 3227TIP3    H233877   2.187   3.971  19.042 -0.4797  2.1588  0.5737
 3228TIP3   OH233878   4.400   7.559  17.290  0.1978 -0.1146  0.1211
 3228TIP3    H133879   4.356   7.641  17.267  0.9025  0.2820  0.1873
 3228TIP3    H233880   4.440   7.530  17.208 -0.0514 -0.3963  0.0965
 3229TIP3   OH233881   6.669   4.855  18.714 -0.6218 -0.0825  0.1652
 3229TIP3    H133882   6.742   4.907  18.747 -0.4393 -0.4597  0.3688
 3229TIP3    H233883   6.666   4.873  18.620 -1.2707  1.1546  0.4057
 3230TIP3   OH233884   5.619   3.413  17.478  0.3153 -0.7504 -0.1873
 3230TIP3    H133885   5.597   3.321  17.495 -0.2989 -0.8471 -1.3553
 3230TIP3    H233886   5.597   3.425  17.385 -2.4474  1.3800  0.6532
 3231TIP3   OH233887   3.581   4.828  18.166 -0.1399  0.0581 -0.2328
 3231TIP3    H133888   3.637   4.751  18.157 -1.1583 -0.7651  0.3423
 3231TIP3    H233889   3.603   4.864  18.252 -1.1789 -0.8433  0.4288
 3232TIP3   OH233890   1.357   3.769  18.124 -0.3643  0.3315 -0.0972
 3232TIP3    H133891   1.401   3.741  18.044  1.0588  1.7469  0.1358
 3232TIP3    H233892   1.269   3.794  18.096 -0.7412 -1.5883 -0.7553
 3233TIP3   OH233893   2.041   3.274  18.744 -0.4565 -0.6029 -0.4440
 3233TIP3    H133894   2.067   3.340  18.808  0.5458 -0.2191 -1.2101
 3233TIP3    H233895   1.951   3.297  18.721 -0.0500  0.6367 -0.8548
 3234TIP3   OH233896   4.949   6.191  19.218 -0.3203  0.0014 -0.3681
 3234TIP3    H133897   4.870   6.189  19.272 -0.2843  0.8508 -0.2620
 3234TIP3    H233898   4.932   6.129  19.147 -0.9968  0.0190 -0.2251
 3235TIP3   OH233899   4.936   4.616  18.532  0.1546 -0.1564 -0.0745
 3235TIP3    H133900   4.965   4.702  18.502 -1.0763  0.6890  1.0349
 3235TIP3    H233901   4.855   4.599  18.483  0.2721 -0.5737 -0.1265
 3236TIP3   OH233902   2.749   4.763  17.699  0.5399 -0.1576 -0.3907
 3236TIP3    H133903   2.725   4.730  17.786 -0.7186  1.9625  0.1329
 3236TIP3    H233904   2.779   4.686  17.652 -0.1357 -1.6256  1.4511
 3237TIP3   OH233905   0.087   5.787  17.424  0.4561  0.2438 -0.2241
 3237TIP3    H133906   0.016   5.723  17.422 -0.4890  1.2014 -3.4620
 3237TIP3    H233907   0.166   5.735  17.410 -0.1077 -0.4109 -1.0994
 3238TIP3   OH233908   0.821   3.964  17.921 -0.0542 -0.4088  0.6384
 3238TIP3    H133909   0.755   4.003  17.978 -0.4315  0.0504 -0.0879
 3238TIP3    H233910   0.770   3.907  17.862  0.3312 -0.9024  0.7770
 3239TIP3   OH233911   3.690   1.120  17.461 -0.6026 -0.6100 -0.6558
 3239TIP3    H133912   3.699   1.025  17.464  0.9643 -0.4589  0.7735
 3239TIP3    H233913   3.756   1.149  17.399 -0.4731 -0.3913 -0.4181
 3240TIP3   OH233914   7.325   0.130  16.681  0.3264  0.0483 -0.0366
 3240TIP3    H133915   7.400   0.143  16.623 -0.1466  0.4493 -0.5761
 3240TIP3    H233916   7.363   0.118  16.767  0.9840  1.9009 -0.0060
 3241TIP3   OH233917   5.104   6.725  18.743 -0.1794  0.0647  0.7286
 3241TIP3    H133918   5.141   6.739  18.830 -0.5176 -0.4358  0.9552
 3241TIP3    H233919   5.011   6.742  18.753 -0.1781  0.3089  0.3869
 3242TIP3   OH233920   7.246   2.245  17.443 -0.2167  0.6242 -0.6145
 3242TIP3    H133921   7.261   2.168  17.387  1.3478  0.7124 -0.3457
 3242TIP3    H233922   7.331   2.263  17.482 -0.3435  3.0071 -1.3065
 3243TIP3   OH233923   2.805   3.795  17.085  0.1078 -0.0155 -0.0625
 3243TIP3    H133924   2.867   3.730  17.119  0.2803  1.7838  3.5204
 3243TIP3    H233925   2.858   3.854  17.032  1.1834  0.4624  1.4813
 3244TIP3   OH233926   6.308   4.864  18.650 -0.3645 -0.3320  0.0936
 3244TIP3    H133927   6.215   4.854  18.631 -0.2049  1.0374 -1.6860
 3244TIP3    H233928   6.316   4.949  18.692  0.0498 -0.6583  0.7003
 3245TIP3   OH233929   3.570   7.115  19.193  0.5759 -0.3950 -0.5617
 3245TIP3    H133930   3.486   7.114  19.146  0.3142 -1.8232 -0.1403
 3245TIP3    H233931   3.568   7.034  19.244  0.3917  1.5476  2.7417
 3246TIP3   OH233932   6.156   6.815  19.354 -0.1532 -0.2615 -0.0242
 3246TIP3    H133933   6.076   6.846  19.312  0.0988 -0.2581 -0.4983
 3246TIP3    H233934   6.203   6.895  19.377 -0.7814 -0.2288  1.2355
 3247TIP3   OH233935   0.067   2.313  17.348  0.1153  0.0283 -0.4178
 3247TIP3    H133936  -0.014   2.261  17.352  0.0434  0.0657 -1.1834
 3247TIP3    H233937   0.086   2.319  17.254  1.8920 -1.3560 -0.1917
 3248TIP3   OH233938   6.333   3.223  19.449  0.1776  0.6522  0.1012
 3248TIP3    H133939   6.282   3.157  19.497 -0.0754  0.1619 -0.8116
 3248TIP3    H233940   6.313   3.206  19.356  1.1976  1.1207 -0.2200
 3249TIP3   OH233941   1.757   5.488  17.508  0.7509  0.4546  0.1419
 3249TIP3    H133942   1.803   5.564  17.545  1.9975 -0.0802 -0.2634
 3249TIP3    H233943   1.826   5.427  17.483 -0.2272 -0.9289  0.6513
 3250TIP3   OH233944   1.858   3.986  18.408  0.4429  0.6483  0.2272
 3250TIP3    H133945   1.926   4.048  18.434  0.6813  0.0826  1.0069
 3250TIP3    H233946   1.815   3.962  18.490  1.1932 -1.1745  0.1428
 3251TIP3   OH233947   2.591   4.448  17.326  0.1592 -0.0300  0.3581
 3251TIP3    H133948   2.657   4.516  17.325  1.2825 -1.0758 -0.7357
 3251TIP3    H233949   2.507   4.494  17.321  0.9226  1.2574 -2.1361
 3252TIP3   OH233950   0.326   1.789  16.627  0.0374 -0.2422 -1.0094
 3252TIP3    H133951   0.307   1.836  16.546  0.9895  0.9224 -0.5833
 3252TIP3    H233952   0.360   1.705  16.598  0.2471  0.1118 -1.8224
 3253TIP3   OH233953   4.696   6.374  19.265  0.3773 -0.4873 -0.4021
 3253TIP3    H133954   4.704   6.464  19.296  2.2471 -0.7654  0.0929
 3253TIP3    H233955   4.744   6.374  19.182 -0.0767 -0.9129 -0.6666
 3254TIP3   OH233956   5.068   7.029  16.614  0.2139 -0.1158 -0.0134
 3254TIP3    H133957   5.031   7.099  16.561  1.7620  0.9636  0.2604
 3254TIP3    H233958   5.162   7.032  16.596  0.6714 -0.3141  2.0406
 3255TIP3   OH233959   2.372   0.562  16.786 -0.0155  0.0345 -0.0716
 3255TIP3    H133960   2.422   0.490  16.747  0.8082 -0.3807  1.6561
 3255TIP3    H233961   2.426   0.639  16.770 -0.4816  0.1546 -1.1634
 3256TIP3   OH233962   5.516   6.158  17.465 -0.1442 -0.9172  0.1061
 3256TIP3    H133963   5.579   6.100  17.421  0.1210 -0.5774  0.0375
 3256TIP3    H233964   5.517   6.238  17.414  1.4644  0.1553  1.6893
 3257TIP3   OH233965   7.035   7.592  18.009 -0.1920  0.3254  0.0384
 3257TIP3    H133966   6.953   7.640  18.003  1.0730  2.6504  0.3049
 3257TIP3    H233967   7.011   7.502  17.987 -2.5553  1.1643 -1.2025
 3258TIP3   OH233968   7.538   3.663  17.398 -0.6431 -0.3812 -0.7664
 3258TIP3    H133969   7.546   3.740  17.455 -3.1919 -0.9698  0.5514
 3258TIP3    H233970   7.580   3.689  17.316  0.3831  1.6476  0.3404
 3259TIP3   OH233971   4.391   6.147  17.556 -0.3157  0.5844 -0.5610
 3259TIP3    H133972   4.455   6.092  17.603 -0.9200 -0.8963 -1.4119
 3259TIP3    H233973   4.424   6.151  17.466 -1.0406  0.4102 -0.8395
 3260TIP3   OH233974   1.785   5.843  18.865 -0.2940 -0.1951  0.1510
 3260TIP3    H133975   1.849   5.844  18.794 -0.8270 -1.6445 -0.3718
 3260TIP3    H233976   1.700   5.852  18.822 -0.5522  0.0886  0.7059
 3261TIP3   OH233977   3.154   3.812  18.134 -0.2715 -0.2102  0.0181
 3261TIP3    H133978   3.105   3.733  18.113  0.2143 -0.7363  0.8295
 3261TIP3    H233979   3.245   3.783  18.142 -0.1710  0.3179  0.9061
 3262TIP3   OH233980   0.925   6.799  18.920 -0.0068 -0.3164  0.6414
 3262TIP3    H133981   0.986   6.852  18.973 -0.4659 -0.7904  1.6706
 3262TIP3    H233982   0.864   6.763  18.984 -0.3194 -1.2573 -0.1784
 3263TIP3   OH233983   6.118   0.634  17.144 -0.1614  0.1385  0.3169
 3263TIP3    H133984   6.080   0.606  17.061 -0.3613  0.6601  0.2292
 3263TIP3    H233985   6.157   0.554  17.181 -1.0337 -0.3375  0.2471
 3264TIP3   OH233986   3.217   1.687  16.766 -0.0797  0.3074  0.4142
 3264TIP3    H133987   3.178   1.760  16.716 -0.6339 -1.1986 -1.4747
 3264TIP3    H233988   3.161   1.679  16.843 -0.7183  1.1415  0.0570
 3265TIP3   OH233989   4.768   1.603  17.809  0.1089  0.0298 -0.2326
 3265TIP3    H133990   4.697   1.545  17.836 -0.2420  0.1841 -0.7911
 3265TIP3    H233991   4.846   1.548  17.808 -0.4892 -0.8667 -2.3275
 3266TIP3   OH233992   6.770   0.031  18.652  1.1441 -0.5618  0.0772
 3266TIP3    H133993   6.730  -0.055  18.663 -2.5350  0.9468  0.0396
 3266TIP3    H233994   6.751   0.055  18.561 -1.8677  1.9194  1.2029
 3267TIP3   OH233995   1.366   1.774  16.517 -0.1449 -0.2897 -0.3889
 3267TIP3    H133996   1.402   1.769  16.605 -0.7856 -0.4042 -0.1273
 3267TIP3    H233997   1.379   1.865  16.490 -1.1753  0.1012  0.3632
 3268TIP3   OH233998   0.587   4.806  17.982  0.7249 -0.0969  0.0650
 3268TIP3    H133999   0.668   4.815  17.931  0.1636  0.1462 -0.8218
 3268TIP3    H234000   0.549   4.894  17.980  0.0295 -0.3955 -0.2588
 3269TIP3   OH234001   6.282   0.271  17.795 -0.3809  0.3631  0.2427
 3269TIP3    H134002   6.201   0.285  17.746 -0.2379 -2.7337 -1.1549
 3269TIP3    H234003   6.349   0.317  17.746 -0.7704 -0.0080 -0.6522
 3270TIP3   OH234004   6.087   6.146  19.298  0.2144  0.0827  0.1745
 3270TIP3    H134005   6.049   6.059  19.283  0.3176 -0.0849  0.8354
 3270TIP3    H234006   6.181   6.134  19.282  0.2781 -0.0161  0.6152
 3271TIP3   OH234007   6.720   1.726  19.360 -0.6757  0.1394 -0.1914
 3271TIP3    H134008   6.683   1.691  19.441 -0.0210  0.6472  0.3447
 3271TIP3    H234009   6.815   1.713  19.370 -0.4968  1.2076 -0.3799
 3272TIP3   OH234010   5.769   6.709  19.380 -0.0685  0.6119  0.6326
 3272TIP3    H134011   5.752   6.625  19.338  0.1423  1.2764 -0.8644
 3272TIP3    H234012   5.809   6.687  19.464  1.3903 -0.7578 -0.3684
 3273TIP3   OH234013   4.097   5.739  16.553  0.0968 -0.4586  0.0441
 3273TIP3    H134014   4.002   5.740  16.557  0.0341  1.6491 -0.8758
 3273TIP3    H234015   4.121   5.826  16.521  2.2186 -1.5747 -1.6896
 3274TIP3   OH234016   7.424   3.676  17.719  0.3368 -0.3207 -0.1223
 3274TIP3    H134017   7.397   3.760  17.683 -0.0230 -0.7556 -0.8924
 3274TIP3    H234018   7.513   3.663  17.685 -0.3849 -1.2258 -1.8207
 3275TIP3   OH234019   6.419   0.087  18.784 -0.0321  0.4651  0.6926
 3275TIP3    H134020   6.468   0.163  18.814  2.1272 -1.0835  1.3368
 3275TIP3    H234021   6.468   0.054  18.709 -1.2439  0.0187  0.0710
 3276TIP3   OH234022   5.248   2.894  17.683  0.1839  0.0120 -0.6406
 3276TIP3    H134023   5.272   2.825  17.622 -0.1226 -0.3094 -0.3999
 3276TIP3    H234024   5.329   2.942  17.700  0.4608 -0.4911 -0.5506
 3277TIP3   OH234025   4.513   4.029  18.549 -0.2988 -0.4033  0.0208
 3277TIP3    H134026   4.607   4.023  18.531 -0.2688  1.2991 -0.6052
 3277TIP3    H234027   4.504   3.996  18.638  0.8962 -0.6311  0.0779
 3278TIP3   OH234028   3.951   2.455  19.041 -0.0734 -0.0836  0.3415
 3278TIP3    H134029   3.925   2.513  18.970 -1.9961 -2.0047 -0.6451
 3278TIP3    H234030   3.928   2.503  19.121  2.8823  2.4684 -0.1184
 3279TIP3   OH234031   7.541   4.271  18.521 -0.2262  0.0310  0.4777
 3279TIP3    H134032   7.498   4.293  18.603 -0.8146  0.1244  0.1516
 3279TIP3    H234033   7.579   4.184  18.535  1.8234  1.0459  1.6652
 3280TIP3   OH234034   4.920   2.961  19.038  0.6736  0.2338  0.1668
 3280TIP3    H134035   4.994   2.914  18.999  1.0179  0.4876  0.5162
 3280TIP3    H234036   4.843   2.918  19.001  0.9832 -0.6809  0.5746
 3281TIP3   OH234037   7.166   2.603  16.255 -0.0372 -1.0367 -0.1182
 3281TIP3    H134038   7.083   2.571  16.290  0.2298  0.5128  2.1206
 3281TIP3    H234039   7.233   2.565  16.313  0.5038  0.7040  0.4577
 3282TIP3   OH234040   6.623   4.765  19.373 -0.2817  0.2512  0.0897
 3282TIP3    H134041   6.544   4.711  19.374 -0.2629 -0.0779 -3.5193
 3282TIP3    H234042   6.695   4.704  19.359  0.4673  0.7459  1.5032
 3283TIP3   OH234043   2.642   0.488  18.940 -0.0532  0.3995  0.2204
 3283TIP3    H134044   2.694   0.411  18.965 -0.2374 -0.1005 -0.8844
 3283TIP3    H234045   2.703   0.561  18.948  0.9481 -0.2023 -1.3094
 3284TIP3   OH234046   4.639   7.326  17.858  0.0938  0.1716  0.0115
 3284TIP3    H134047   4.694   7.357  17.786 -0.2229  0.4570 -0.1097
 3284TIP3    H234048   4.555   7.306  17.817  0.1208 -0.3241  0.1880
 3285TIP3   OH234049   5.792   2.402  17.728  0.1358 -0.4460 -1.2444
 3285TIP3    H134050   5.703   2.406  17.764 -0.2715 -0.3989 -2.2224
 3285TIP3    H234051   5.785   2.445  17.643  0.6070 -2.2799 -2.2739
 3286TIP3   OH234052   5.598   2.428  18.132  0.0682  0.2247  0.3418
 3286TIP3    H134053   5.642   2.459  18.053  0.5464  2.0750  1.2785
 3286TIP3    H234054   5.505   2.430  18.111  0.2552 -2.7216 -1.3064
 3287TIP3   OH234055   3.482   5.759  18.988  0.2507 -0.2472 -0.3190
 3287TIP3    H134056   3.484   5.835  19.045 -0.6624  1.1063 -2.0168
 3287TIP3    H234057   3.459   5.686  19.046 -0.6068  1.0466  1.0303
 3288TIP3   OH234058   3.292   4.405  19.196 -0.0413  0.2499 -0.3953
 3288TIP3    H134059   3.262   4.357  19.274  0.0697  0.5330 -0.1748
 3288TIP3    H234060   3.212   4.428  19.150 -0.0480 -2.2427 -1.7979
 3289TIP3   OH234061   3.977   6.729  19.163  0.2207 -0.1146 -0.0896
 3289TIP3    H134062   3.949   6.684  19.083 -0.0116 -1.2618  0.6114
 3289TIP3    H234063   3.928   6.812  19.161 -0.5967 -0.5877 -0.6098
 3290TIP3   OH234064   2.969   0.147  19.388  0.0958 -0.5551 -0.0518
 3290TIP3    H134065   3.010   0.078  19.335  0.9056 -0.6128  0.6304
 3290TIP3    H234066   3.028   0.158  19.462 -1.5040 -1.1910  1.3912
 3291TIP3   OH234067   1.187   0.059  17.674  0.3694  0.0195  0.2438
 3291TIP3    H134068   1.265   0.049  17.619  0.7453 -2.5137  1.1179
 3291TIP3    H234069   1.217   0.038  17.762 -1.3989 -1.6304  0.5033
 3292TIP3   OH234070   5.810   0.915  17.264 -0.4374 -0.1854 -0.1497
 3292TIP3    H134071   5.769   0.837  17.227 -0.7830  0.2974 -0.8046
 3292TIP3    H234072   5.741   0.981  17.265 -0.0531  0.2203  0.0602
 3293TIP3   OH234073   4.334   5.979  17.998  0.3520  0.1690  0.1427
 3293TIP3    H134074   4.284   5.985  18.079  2.3831 -0.0516  1.4918
 3293TIP3    H234075   4.325   6.065  17.957  0.4605  0.7600  1.3351
 3294TIP3   OH234076   5.929   1.853  19.315  1.0126  0.1418 -0.3833
 3294TIP3    H134077   5.838   1.871  19.293  0.8528 -1.6902 -1.3679
 3294TIP3    H234078   5.979   1.915  19.262  0.3682  1.8614  0.9179
 3295TIP3   OH234079   6.895   2.308  18.685  0.3622 -0.0422 -0.3568
 3295TIP3    H134080   6.841   2.229  18.689 -2.4496  1.7355  0.6533
 3295TIP3    H234081   6.865   2.353  18.606  0.2596  1.0297  0.2734
 3296TIP3   OH234082   6.133   2.011  18.015  0.4417  0.0587 -0.2181
 3296TIP3    H134083   6.095   1.940  17.964 -0.8268 -0.7087  1.6822
 3296TIP3    H234084   6.087   2.090  17.985  0.9916 -0.0742 -1.4704
 3297TIP3   OH234085   0.607   6.126  18.837 -0.0874 -0.4415 -0.5681
 3297TIP3    H134086   0.585   6.086  18.922 -1.5979  1.0549 -0.2070
 3297TIP3    H234087   0.621   6.218  18.857  1.3046 -0.3723 -1.7049
 3298TIP3   OH234088   5.572   2.837  17.069 -0.1189 -0.0091  0.6780
 3298TIP3    H134089   5.479   2.851  17.050 -0.5000 -1.6501  1.2133
 3298TIP3    H234090   5.591   2.750  17.033  0.3973 -1.0649  3.2978
 3299TIP3   OH234091   0.706   6.999  17.918  0.4958  0.1970  0.1584
 3299TIP3    H134092   0.789   6.952  17.908  2.4354  3.1906  0.8122
 3299TIP3    H234093   0.686   7.030  17.829 -0.1378 -0.7911 -0.0568
 3300TIP3   OH234094   2.399   2.329  18.566 -0.4672  0.2373  0.3706
 3300TIP3    H134095   2.486   2.369  18.575  0.1810 -0.8061 -0.9434
 3300TIP3    H234096   2.339   2.403  18.572  0.5507  1.0843  0.4993
 3301TIP3   OH234097   2.529   1.040  17.257 -1.0649  0.1244  0.3873
 3301TIP3    H134098   2.492   1.017  17.341  0.5665  0.5860  1.2845
 3301TIP3    H234099   2.466   1.100  17.218 -2.8263 -1.6781  0.3242
 3302TIP3   OH234100   1.194   6.156  17.111  0.2858 -0.1346  0.4373
 3302TIP3    H134101   1.274   6.186  17.154  0.6795  3.3636 -2.2544
 3302TIP3    H234102   1.124   6.202  17.157  0.4385  1.2669 -0.6603
 3303TIP3   OH234103   2.627   1.210  18.140  0.0407 -0.3449  0.1976
 3303TIP3    H134104   2.660   1.192  18.051  0.3823 -1.0378  0.4596
 3303TIP3    H234105   2.697   1.260  18.182  0.2480 -0.7719  0.3609
 3304TIP3   OH234106   3.546   0.042  18.953  0.1254 -0.0638 -0.1992
 3304TIP3    H134107   3.559   0.136  18.936 -0.2347  0.0505  0.1392
 3304TIP3    H234108   3.475   0.017  18.895  1.3202 -0.5251 -1.5273
 3305TIP3   OH234109   6.324   1.630  18.159  0.0899 -0.2717  0.1671
 3305TIP3    H134110   6.316   1.541  18.193  0.2682 -0.5118 -0.3954
 3305TIP3    H234111   6.264   1.682  18.211  0.0125 -0.7184  0.5266
 3306TIP3   OH234112   4.898   2.229  18.979  0.3117  0.0063  0.2815
 3306TIP3    H134113   4.895   2.160  19.045  1.1567  0.4295  0.7843
 3306TIP3    H234114   4.816   2.220  18.931 -0.2879 -0.3653  1.3350
 3307TIP3   OH234115   2.895   3.298  18.893 -0.0265  0.0334 -0.3049
 3307TIP3    H134116   2.849   3.238  18.833  0.2472  0.1589 -0.6406
 3307TIP3    H234117   2.903   3.248  18.975 -0.0157 -0.3037 -0.5085
 3308TIP3   OH234118   3.775   0.111  17.503  0.0119  0.5840 -0.3890
 3308TIP3    H134119   3.751   0.023  17.474 -1.2772  1.4869 -2.2389
 3308TIP3    H234120   3.698   0.165  17.485  0.4928  1.9767  1.4207
 3309TIP3   OH234121   3.958   5.835  17.143  0.4765  0.5780  0.7210
 3309TIP3    H134122   3.980   5.924  17.113 -0.4471  0.0969 -1.6852
 3309TIP3    H234123   3.884   5.809  17.087  0.4493 -1.5535  1.6468
 3310TIP3   OH234124   5.663   3.853  17.780  0.4308 -0.7064 -0.1271
 3310TIP3    H134125   5.700   3.802  17.708 -1.4673 -1.3139 -0.7290
 3310TIP3    H234126   5.627   3.787  17.840  0.0025 -0.1397  0.2532
 3311TIP3   OH234127   2.527   2.507  17.982 -0.1363 -0.5220 -0.2262
 3311TIP3    H134128   2.469   2.468  17.916 -1.6974  0.8717  0.2463
 3311TIP3    H234129   2.483   2.492  18.065  0.0325  0.7824  0.1240
 3312TIP3   OH234130   6.338   7.557  18.105 -0.0212  0.2494 -0.1236
 3312TIP3    H134131   6.358   7.471  18.142 -0.0635  0.4509  0.3840
 3312TIP3    H234132   6.419   7.585  18.062  0.3007  0.3776  0.5570
 3313TIP3   OH234133   1.263   4.475  19.342 -0.4230 -0.1154  0.6843
 3313TIP3    H134134   1.358   4.464  19.340 -0.4423 -1.4446  3.4230
 3313TIP3    H234135   1.251   4.570  19.342  0.9453  0.0907  1.0750
 3314TIP3   OH234136   5.991   4.101  17.405 -1.0211  0.2045  0.1761
 3314TIP3    H134137   5.997   4.185  17.451 -2.7480 -0.1718  1.1721
 3314TIP3    H234138   5.899   4.093  17.380 -0.3181 -0.0306 -2.6357
 3315TIP3   OH234139   7.533   7.164  17.904  0.5447 -0.0065 -0.2317
 3315TIP3    H134140   7.438   7.171  17.913  0.3731 -0.8136 -1.1566
 3315TIP3    H234141   7.551   7.070  17.915  1.3619  0.2660  0.9041
 3316TIP3   OH234142   0.176   3.471  19.386  0.3265  1.0013  0.1466
 3316TIP3    H134143   0.204   3.477  19.295  1.8323  3.0310  0.6476
 3316TIP3    H234144   0.101   3.413  19.385  0.2405  1.0529 -2.3971
 3317TIP3   OH234145   1.030   5.824  17.096  0.6674  0.5704 -0.4437
 3317TIP3    H134146   0.949   5.774  17.090  0.6381  0.5666 -0.0563
 3317TIP3    H234147   1.003   5.912  17.123  0.6018  1.1596 -2.3307
 3318TIP3   OH234148   3.947   0.636  17.723 -0.2734  0.4184 -0.0049
 3318TIP3    H134149   4.023   0.648  17.779 -1.6213  2.7360  1.4873
 3318TIP3    H234150   3.980   0.649  17.634  1.3978 -0.6704  0.4066
 3319TIP3   OH234151   3.028   1.633  19.193  0.1267 -0.1115 -0.1018
 3319TIP3    H134152   3.034   1.643  19.098  0.8530 -0.2603 -0.0751
 3319TIP3    H234153   3.107   1.584  19.217 -0.7022 -1.2499  0.4132
 3320TIP3   OH234154   5.501   3.367  18.465  0.1297 -0.2131  0.7998
 3320TIP3    H134155   5.574   3.412  18.423  0.1862 -1.0518 -0.0163
 3320TIP3    H234156   5.483   3.419  18.544 -0.5153  1.8710 -0.6341
 3321TIP3   OH234157   7.673   5.360  17.323 -0.2406 -0.2492 -0.1170
 3321TIP3    H134158   7.737   5.322  17.263 -1.6947 -0.0522 -1.8895
 3321TIP3    H234159   7.630   5.284  17.363 -1.2422 -0.4814 -1.5602
 3322TIP3   OH234160   1.720   6.998  18.640  0.0203 -0.7339  0.2969
 3322TIP3    H134161   1.675   6.990  18.556  1.2240 -1.2045 -0.3175
 3322TIP3    H234162   1.678   7.074  18.682 -1.1452 -0.9879 -0.3571
 3323TIP3   OH234163   4.117   4.899  18.160 -0.3314 -0.0382  0.2417
 3323TIP3    H134164   4.111   4.979  18.107 -0.6711  0.9268  1.6692
 3323TIP3    H234165   4.211   4.880  18.165 -0.1948  0.6734  0.4556
 3324TIP3   OH234166   1.956   0.334  18.308  0.0781 -0.4133 -0.4327
 3324TIP3    H134167   2.025   0.276  18.277 -0.2141 -1.4954  0.8399
 3324TIP3    H234168   1.926   0.293  18.390  0.9205  2.3441  1.3859
 3325TIP3   OH234169   4.125   5.734  17.339 -0.4756 -0.3845 -0.2349
 3325TIP3    H134170   4.186   5.808  17.330 -1.9593  1.2874  2.2517
 3325TIP3    H234171   4.054   5.754  17.279 -0.2510 -0.5049 -0.5442
 3326TIP3   OH234172   0.586   1.870  17.923 -0.1499 -0.5641 -0.6705
 3326TIP3    H134173   0.622   1.848  18.008  0.5935  0.1308 -0.7970
 3326TIP3    H234174   0.645   1.827  17.860  0.1222  0.0852 -0.8634
 3327TIP3   OH234175   7.373   0.995  18.842  0.1695 -0.0497  0.2728
 3327TIP3    H134176   7.307   0.933  18.872  1.1734 -1.8071 -1.0018
 3327TIP3    H234177   7.364   0.995  18.746  1.3489  0.4638  0.1450
 3328TIP3   OH234178   0.840   3.576  18.655 -0.0534  0.2375 -0.0153
 3328TIP3    H134179   0.772   3.644  18.658 -1.5276 -1.1967  0.5194
 3328TIP3    H234180   0.920   3.622  18.679 -0.8505  1.9475 -0.4254
 3329TIP3   OH234181   0.333   3.078  17.186  0.1969  0.4089 -0.5527
 3329TIP3    H134182   0.404   3.136  17.160  0.8000 -0.4688 -0.9038
 3329TIP3    H234183   0.313   3.028  17.107  1.7098 -1.9545  0.4705
 3330TIP3   OH234184   1.451   5.782  19.016  0.0999 -0.5808  0.4391
 3330TIP3    H134185   1.508   5.858  19.017  1.4974 -1.5826 -0.4543
 3330TIP3    H234186   1.479   5.731  18.940 -1.4075 -1.5461  0.4788
 3331TIP3   OH234187   5.002   6.239  17.814 -0.4005 -0.1547 -0.2774
 3331TIP3    H134188   4.927   6.184  17.836 -0.1544 -0.4753 -0.2370
 3331TIP3    H234189   5.070   6.213  17.876  0.1527 -0.7463 -1.1084
 3332TIP3   OH234190   4.367   4.246  17.447 -0.6779 -0.1291 -0.1152
 3332TIP3    H134191   4.438   4.216  17.505 -1.9318 -1.3577  0.8713
 3332TIP3    H234192   4.341   4.330  17.484  0.7334  0.7043 -0.9411
 3333TIP3   OH234193   4.561   3.090  18.310 -0.4849 -0.3906 -0.0585
 3333TIP3    H134194   4.472   3.059  18.294 -0.8246 -0.7197  2.1894
 3333TIP3    H234195   4.615   3.039  18.248 -1.6388 -1.5308 -0.1790
 3334TIP3   OH234196   3.600   6.969  18.533 -0.0657  0.3580 -0.3391
 3334TIP3    H134197   3.638   7.039  18.480 -0.7699 -0.3228 -1.8003
 3334TIP3    H234198   3.505   6.982  18.524 -0.2138 -0.9175 -0.8537
 3335TIP3   OH234199   0.886   0.352  17.447 -0.5772 -0.6011  0.1843
 3335TIP3    H134200   0.889   0.275  17.390 -1.9969 -1.3052  1.0102
 3335TIP3    H234201   0.970   0.352  17.493 -0.5721 -1.6783  0.1973
 3336TIP3   OH234202   6.716   1.565  18.724 -0.2859 -0.0205  0.2665
 3336TIP3    H134203   6.796   1.610  18.752 -0.0513  0.1648 -0.6712
 3336TIP3    H234204   6.717   1.572  18.629 -0.5160 -1.5653  0.1353
 3337TIP3   OH234205   3.799   1.970  17.787  0.5559 -0.6805 -0.1175
 3337TIP3    H134206   3.763   1.900  17.732 -0.9275  0.5316 -0.7563
 3337TIP3    H234207   3.864   2.013  17.732  1.0342 -1.1560  0.0642
 3338TIP3   OH234208   1.741   2.154  18.528  0.1837 -0.2478 -0.1915
 3338TIP3    H134209   1.789   2.212  18.586 -0.7214  0.3369 -0.0038
 3338TIP3    H234210   1.767   2.066  18.555  0.0903  0.0243  0.8179
 3339TIP3   OH234211   5.417   6.256  19.270  0.1996 -0.8380  0.5089
 3339TIP3    H134212   5.380   6.228  19.186  1.9008 -0.6745 -0.3398
 3339TIP3    H234213   5.494   6.201  19.282  0.9673  0.3098  1.0872
 3340TIP3   OH234214   1.121   0.852  18.617 -0.1650  0.0152 -0.6628
 3340TIP3    H134215   1.132   0.760  18.592  0.2549 -0.3513  0.7730
 3340TIP3    H234216   1.171   0.861  18.698  2.2444  2.2441 -2.2394
 3341TIP3   OH234217   0.877   2.966  17.476  0.2924 -0.6023  0.0626
 3341TIP3    H134218   0.825   2.885  17.474 -0.7453  0.0139  0.8707
 3341TIP3    H234219   0.830   3.022  17.537  1.6998  0.1571  0.4712
 3342TIP3   OH234220   2.633   6.744  17.163 -0.0760  0.1515  0.1227
 3342TIP3    H134221   2.680   6.691  17.099  0.0335 -0.2111  0.5010
 3342TIP3    H234222   2.587   6.810  17.110  0.3279  0.1048 -0.2974
 3343TIP3   OH234223   0.529   2.922  18.462 -0.0726 -0.0461  0.2550
 3343TIP3    H134224   0.532   2.996  18.523  2.2125  0.5684 -0.4876
 3343TIP3    H234225   0.530   2.963  18.375 -0.4818 -0.9406 -0.1814
 3344TIP3   OH234226   4.896   6.037  16.849 -0.0524 -0.1771 -0.6577
 3344TIP3    H134227   4.847   5.982  16.788 -0.0582  0.1142 -0.9233
 3344TIP3    H234228   4.844   6.117  16.856  0.4287  0.1723 -1.0184
 3345TIP3   OH234229   4.598   4.312  18.510  0.1532  0.2443 -0.8930
 3345TIP3    H134230   4.520   4.310  18.455  0.3807  1.2617 -1.2692
 3345TIP3    H234231   4.569   4.278  18.594 -1.1278  2.1755 -0.5019
 3346TIP3   OH234232   7.173   7.147  18.902 -0.1289  0.5483  0.4535
 3346TIP3    H134233   7.133   7.115  18.983 -1.5731  3.2742  0.9607
 3346TIP3    H234234   7.266   7.128  18.911 -0.6701 -2.0654  1.2581
 3347TIP3   OH234235   2.018   5.097  18.070 -0.2066  0.3259  0.5857
 3347TIP3    H134236   1.936   5.136  18.100 -0.8639  0.3635 -1.1032
 3347TIP3    H234237   1.999   5.069  17.980  1.6471  0.3852  0.1330
 3348TIP3   OH234238   2.354   0.068  16.929  0.2846  0.3856  0.0504
 3348TIP3    H134239   2.260   0.058  16.917  0.4379  0.5356 -1.3527
 3348TIP3    H234240   2.393   0.013  16.862  1.2103  0.2240  0.7017
 3349TIP3   OH234241   3.057   4.914  18.288 -0.0862 -0.1685 -0.0775
 3349TIP3    H134242   3.062   4.894  18.195 -0.3503  0.9457 -0.3456
 3349TIP3    H234243   2.967   4.944  18.302 -0.0205 -0.2297  0.5196
 3350TIP3   OH234244   6.510   5.037  19.077  0.5784  0.3615  0.0355
 3350TIP3    H134245   6.417   5.032  19.101  0.5961  1.9512  0.5745
 3350TIP3    H234246   6.555   5.057  19.159  1.3449  0.0791 -0.3065
 3351TIP3   OH234247   2.301   3.264  17.546 -0.1363 -0.3467  0.5079
 3351TIP3    H134248   2.243   3.333  17.578 -0.0680 -0.5759  1.1382
 3351TIP3    H234249   2.317   3.287  17.454 -0.6509  0.1033  0.5274
 3352TIP3   OH234250   2.556   1.660  18.968  0.3846 -0.5539  0.2545
 3352TIP3    H134251   2.579   1.700  19.052 -0.4192 -2.6212  1.5380
 3352TIP3    H234252   2.621   1.695  18.907  0.5206  1.6065  1.5274
 3353TIP3   OH234253   0.007   1.411  17.578 -0.3904  0.0976 -0.4965
 3353TIP3    H134254  -0.066   1.371  17.625  0.4064  0.1741  0.8682
 3353TIP3    H234255   0.039   1.480  17.637  1.6251 -0.8317 -0.4172
 3354TIP3   OH234256   2.107   3.440  17.217 -0.3159  0.5295  0.2212
 3354TIP3    H134257   2.051   3.385  17.163 -1.4319  2.5283 -0.7840
 3354TIP3    H234258   2.186   3.389  17.232 -0.7744 -0.8101 -1.7102
 3355TIP3   OH234259   7.515   4.616  18.180 -0.1737  0.2958  0.2882
 3355TIP3    H134260   7.467   4.677  18.124  2.0313  1.9638  0.0255
 3355TIP3    H234261   7.509   4.532  18.136 -3.3838  0.2244  0.6871
 3356TIP3   OH234262   5.033   1.524  18.586  0.0675  0.7423  0.1667
 3356TIP3    H134263   5.085   1.513  18.665  1.9561 -0.8861 -1.1756
 3356TIP3    H234264   5.044   1.441  18.539 -2.4822  0.9539 -0.9805
 3357TIP3   OH234265   2.821   2.721  18.329  0.1673 -0.3908 -0.0727
 3357TIP3    H134266   2.843   2.720  18.422 -0.4753  0.6893  0.1025
 3357TIP3    H234267   2.748   2.660  18.321 -1.9283  1.8615  0.7359
 3358TIP3   OH234268   3.816   0.364  17.018  0.2847  0.3242  0.0045
 3358TIP3    H134269   3.877   0.413  17.072 -0.7505  0.6440  0.9156
 3358TIP3    H234270   3.865   0.345  16.938  1.8518 -0.1593  1.0299
 3359TIP3   OH234271   4.036   3.561  19.143 -0.0571 -0.1438 -0.2598
 3359TIP3    H134272   4.058   3.535  19.233 -0.5936  0.0367 -0.0715
 3359TIP3    H234273   4.003   3.650  19.151 -1.9876 -0.8086 -0.3421
 3360TIP3   OH234274   6.538   6.214  19.016 -0.0200 -0.1197  0.0226
 3360TIP3    H134275   6.567   6.134  18.973  4.2699 -0.3571  2.7496
 3360TIP3    H234276   6.574   6.285  18.963  1.3788 -0.2573  0.7597
 3361TIP3   OH234277   1.657   4.974  18.348 -0.0896 -0.2480 -0.0595
 3361TIP3    H134278   1.751   4.956  18.351 -0.3888 -1.8700  2.5753
 3361TIP3    H234279   1.633   4.958  18.257  2.1636  0.2401 -0.8020
 3362TIP3   OH234280   0.931   5.632  17.413  0.1379  0.2294 -0.1266
 3362TIP3    H134281   0.905   5.713  17.369  2.3091  0.5861 -0.8826
 3362TIP3    H234282   0.952   5.659  17.502 -0.9928  0.1100  0.1977
 3363TIP3   OH234283   4.034   1.353  18.592 -0.4937 -0.5876  0.1538
 3363TIP3    H134284   4.125   1.381  18.583 -0.3237 -0.9326  0.7171
 3363TIP3    H234285   4.029   1.318  18.682 -1.1377 -0.7177  0.0717
 3364TIP3   OH234286   2.479   2.113  17.243 -0.1270 -0.4311  0.3213
 3364TIP3    H134287   2.438   2.190  17.203 -0.0886 -0.5077  0.1328
 3364TIP3    H234288   2.406   2.056  17.265 -0.2069 -0.0408  1.0985
 3365TIP3   OH234289   6.365   3.027  17.052 -0.7948  0.0837  0.1286
 3365TIP3    H134290   6.373   2.959  16.984  0.1290  0.6211 -0.3113
 3365TIP3    H234291   6.379   3.109  17.006 -1.8962  0.5927  0.6689
 3366TIP3   OH234292   6.552   0.540  18.437 -0.2086  0.8750  0.2800
 3366TIP3    H134293   6.510   0.555  18.523 -2.0770  1.3485 -0.6574
 3366TIP3    H234294   6.620   0.476  18.455 -0.3086  1.2287  2.1943
 3367TIP3   OH234295   0.578   6.773  18.932  0.3413  0.0378 -0.1426
 3367TIP3    H134296   0.630   6.794  19.010  0.3008  0.5538 -0.2544
 3367TIP3    H234297   0.520   6.702  18.960  1.3037 -0.7568 -0.0932
 3368TIP3   OH234298   5.962   2.019  18.604  0.2101 -0.5566 -0.2223
 3368TIP3    H134299   6.057   2.011  18.613  0.1612 -0.3803  0.5428
 3368TIP3    H234300   5.940   2.099  18.653 -0.4409 -1.0975  0.3995
 3369TIP3   OH234301   5.277   4.281  18.739 -0.3122  0.1115  0.2413
 3369TIP3    H134302   5.310   4.194  18.764 -0.8048  0.5372  2.6632
 3369TIP3    H234303   5.186   4.265  18.715 -0.0853 -0.1780 -0.4734
 3370TIP3   OH234304   2.016   2.770  17.001  0.0619 -0.3312 -0.0280
 3370TIP3    H134305   2.008   2.865  17.006  0.0567 -0.3966  2.0816
 3370TIP3    H234306   2.110   2.753  17.010  0.2215 -0.5233 -1.6408
 3371TIP3   OH234307   5.019   0.095  17.141 -0.1082  0.5090  0.4576
 3371TIP3    H134308   5.067   0.015  17.121 -0.5392  0.4322 -0.2960
 3371TIP3    H234309   5.024   0.147  17.061  0.1682  1.2415  0.9344
 3372TIP3   OH234310   2.319   5.721  17.932 -0.7171 -0.4174  0.5641
 3372TIP3    H134311   2.353   5.760  18.013  0.1526  0.0783 -0.0145
 3372TIP3    H234312   2.278   5.639  17.960  2.6705 -2.0928  1.1759
 3373TIP3   OH234313   6.300   1.966  19.337 -0.1701  0.0513  0.1355
 3373TIP3    H134314   6.262   1.890  19.293 -0.5211  0.2760  0.0457
 3373TIP3    H234315   6.242   2.038  19.314  0.8623  0.6104 -0.8341
 3374TIP3   OH234316   2.260   0.385  17.486  0.3167  0.2182 -0.3272
 3374TIP3    H134317   2.235   0.337  17.565  3.1838  1.0101  1.2313
 3374TIP3    H234318   2.313   0.323  17.436 -0.6398  0.0434 -1.1403
 3375TIP3   OH234319   3.637   0.164  16.840 -0.1643 -0.3533 -0.2381
 3375TIP3    H134320   3.648   0.111  16.918 -0.3200  2.9876  2.2595
 3375TIP3    H234321   3.720   0.211  16.830 -1.1238  1.4446 -0.2554
 3376TIP3   OH234322   5.968   1.715  18.156 -0.0314  0.0567 -0.5895
 3376TIP3    H134323   5.944   1.625  18.180  0.5523  0.2917  1.0018
 3376TIP3    H234324   5.965   1.763  18.238 -2.9781  2.1926 -1.7894
 3377TIP3   OH234325   5.192   4.635  18.309 -0.1653 -0.1625 -0.0615
 3377TIP3    H134326   5.102   4.668  18.318  0.0256 -0.0319  1.7390
 3377TIP3    H234327   5.185   4.542  18.334  0.0894 -0.3447 -0.6495
 3378TIP3   OH234328   7.091   6.028  19.286  0.6062 -0.3939 -0.4394
 3378TIP3    H134329   7.125   6.081  19.214  0.5717 -0.1141 -0.2499
 3378TIP3    H234330   7.045   6.090  19.343 -0.6901 -0.8464 -0.9655
 3379TIP3   OH234331   5.017   0.497  18.466 -0.3649 -0.2632  0.1314
 3379TIP3    H134332   5.057   0.535  18.544 -1.5729 -1.8984  1.6015
 3379TIP3    H234333   4.927   0.479  18.491 -0.3365 -2.4236 -1.0638
 3380TIP3   OH234334   1.862   7.435  18.322 -0.0003  0.0558 -0.5027
 3380TIP3    H134335   1.791   7.377  18.347 -0.2919  0.0934 -1.2100
 3380TIP3    H234336   1.939   7.378  18.317 -0.0966 -0.0925 -0.2846
 3381TIP3   OH234337   3.962   4.451  17.984 -0.4740  0.1306  0.3433
 3381TIP3    H134338   3.968   4.519  17.918 -0.4165 -0.5776 -0.3922
 3381TIP3    H234339   3.872   4.456  18.017 -0.6919  0.0653 -0.2403
 3382TIP3   OH234340   6.578   4.697  17.524 -0.2023 -0.5308 -0.1447
 3382TIP3    H134341   6.578   4.786  17.488  1.9532 -0.5285 -0.2603
 3382TIP3    H234342   6.590   4.708  17.618 -1.4455 -0.6715  0.0412
 3383TIP3   OH234343   7.224   6.354  17.841  0.0987  0.4077 -0.0047
 3383TIP3    H134344   7.165   6.288  17.804 -0.0473  0.0152  0.8914
 3383TIP3    H234345   7.197   6.436  17.802  0.0811 -0.0172 -0.9044
 3384TIP3   OH234346   3.133   6.995  16.723  0.3918  0.0667 -0.3343
 3384TIP3    H134347   3.129   7.051  16.645 -2.7262  1.2703  0.5388
 3384TIP3    H234348   3.077   6.920  16.702  1.4891 -0.8456 -0.0965
 3385TIP3   OH234349   4.065   4.024  19.072 -0.1479 -0.1614 -0.2117
 3385TIP3    H134350   4.101   3.937  19.055 -0.1017 -0.4410  1.2082
 3385TIP3    H234351   4.010   4.043  18.995  0.4080 -1.1187 -0.8677
 3386TIP3   OH234352   5.182   5.242  16.934  0.1811 -0.7653  0.3152
 3386TIP3    H134353   5.087   5.237  16.945  0.0434 -0.4866 -0.6490
 3386TIP3    H234354   5.194   5.311  16.870  0.9575 -1.8451 -0.7278
 3387TIP3   OH234355   5.986   0.853  17.926  0.1860  0.3309 -0.3348
 3387TIP3    H134356   5.988   0.836  17.832  1.1828 -0.2591 -0.2241
 3387TIP3    H234357   6.074   0.830  17.956  0.1463  1.3229  0.6048
 3388TIP3   OH234358   2.705   4.729  18.174 -0.3024 -0.4533  0.2047
 3388TIP3    H134359   2.643   4.758  18.242 -1.1653 -1.5978 -0.0537
 3388TIP3    H234360   2.754   4.658  18.216 -0.9202 -1.2463 -0.3637
 3389TIP3   OH234361   2.775   6.121  18.813  0.4334  0.1623  0.4609
 3389TIP3    H134362   2.686   6.141  18.844 -1.3744 -3.2330 -1.8380
 3389TIP3    H234363   2.800   6.042  18.861  0.6357 -0.9219 -1.3126
 3390TIP3   OH234364   0.859   5.973  19.137 -0.2023  0.1440 -0.2228
 3390TIP3    H134365   0.920   6.046  19.133 -1.6335  1.4463  0.4778
 3390TIP3    H234366   0.876   5.931  19.222 -0.2932  0.5174 -0.0191
 3391TIP3   OH234367   2.243   4.647  17.898  0.1850  0.0876  0.0645
 3391TIP3    H134368   2.297   4.695  17.962  0.2804  0.3672 -0.2233
 3391TIP3    H234369   2.197   4.716  17.850 -1.3720 -0.1741  1.1126
 3392TIP3   OH234370   1.757   1.273  18.492 -0.0424  0.1669  0.3609
 3392TIP3    H134371   1.758   1.177  18.486 -0.1929  0.2097 -0.4537
 3392TIP3    H234372   1.722   1.302  18.408 -1.7490  0.8903  1.2839
 3393TIP3   OH234373   6.497   1.404  18.739 -0.2964  0.1982  0.3379
 3393TIP3    H134374   6.545   1.362  18.668 -1.2486 -0.4095  0.0373
 3393TIP3    H234375   6.563   1.455  18.786  0.8580 -1.4618  0.6074
 3394TIP3   OH234376   4.034   4.139  18.252 -0.4600  0.4220 -0.5498
 3394TIP3    H134377   3.979   4.107  18.323  0.4476  1.0991  0.4786
 3394TIP3    H234378   4.006   4.088  18.176 -1.5639 -0.1965  0.2419
 3395TIP3   OH234379   5.553   0.286  18.651 -0.4834 -0.2676 -0.5648
 3395TIP3    H134380   5.619   0.223  18.620 -1.4174 -1.1562 -0.8164
 3395TIP3    H234381   5.572   0.366  18.602  0.1097 -0.6613 -1.0012
 3396TIP3   OH234382   1.096   6.833  17.378 -0.1434  0.2091 -0.0545
 3396TIP3    H134383   1.029   6.881  17.328 -0.0759  1.2087  0.7909
 3396TIP3    H234384   1.179   6.871  17.350 -0.0813  0.5199  0.5344
 3397TIP3   OH234385   6.372   6.157  19.247 -0.0839 -0.1151 -0.3196
 3397TIP3    H134386   6.403   6.070  19.273 -0.4783  0.0263  0.6651
 3397TIP3    H234387   6.437   6.187  19.183  1.4829 -0.1033  1.1989
 3398TIP3   OH234388   4.940   5.724  18.627 -0.0455 -0.4446  0.0214
 3398TIP3    H134389   5.001   5.745  18.557 -0.1818  0.6496  0.2193
 3398TIP3    H234390   4.993   5.674  18.690  0.3933 -0.3505 -0.2664
 3399TIP3   OH234391   3.481   3.878  17.308  0.2097  0.1546  0.0950
 3399TIP3    H134392   3.439   3.879  17.394  1.6908 -2.6944  0.9699
 3399TIP3    H234393   3.408   3.881  17.246 -1.0117  0.1741  1.4858
 3400TIP3   OH234394   7.638   1.008  18.879 -0.1649  0.2561  0.3733
 3400TIP3    H134395   7.548   0.975  18.876  0.0497 -0.3459 -2.0162
 3400TIP3    H234396   7.633   1.095  18.841  0.5323 -0.7525 -2.2597
 3401TIP3   OH234397   5.498   1.056  17.552 -0.2480  0.1050  0.1545
 3401TIP3    H134398   5.418   1.107  17.539 -0.4760 -0.2330  0.2138
 3401TIP3    H234399   5.505   1.047  17.647  0.9527  1.8431  0.2844
 3402TIP3   OH234400   5.177   4.438  17.781  0.6803 -0.4504 -0.6937
 3402TIP3    H134401   5.160   4.408  17.871 -0.2735  1.2966 -0.2414
 3402TIP3    H234402   5.128   4.376  17.726  1.9777 -2.0736 -0.1175
 3403TIP3   OH234403   4.621   0.364  18.176  0.5152 -0.2762  0.0263
 3403TIP3    H134404   4.706   0.322  18.158  1.2665  0.4702  1.6160
 3403TIP3    H234405   4.603   0.416  18.097  1.5376 -0.4595 -0.3483
 3404TIP3   OH234406   4.717   5.458  18.061  0.4490  0.2835 -0.3932
 3404TIP3    H134407   4.625   5.468  18.087  0.5528 -0.4871  0.3210
 3404TIP3    H234408   4.764   5.521  18.116  0.4241  0.2160 -0.2947
 3405TIP3   OH234409   0.450   1.417  18.096  0.4569 -0.0238  0.3216
 3405TIP3    H134410   0.508   1.449  18.165 -0.6308 -0.6635  1.5691
 3405TIP3    H234411   0.391   1.490  18.078  0.1509 -0.1583  0.7498
 3406TIP3   OH234412   6.548   7.030  18.166 -0.3755 -0.9263 -0.0865
 3406TIP3    H134413   6.614   6.965  18.188 -0.0776 -0.2134  1.2124
 3406TIP3    H234414   6.473   6.979  18.136  0.2324 -1.8071 -0.1327
 3407TIP3   OH234415   1.458   2.685  19.069 -0.1439  0.1817 -0.5745
 3407TIP3    H134416   1.414   2.654  18.990 -1.2766  0.3606 -0.0255
 3407TIP3    H234417   1.430   2.776  19.078  1.0928  0.5996 -0.7246
 3408TIP3   OH234418   5.490   6.057  18.313 -0.0597 -0.5335  0.0481
 3408TIP3    H134419   5.431   6.123  18.276  0.2276  0.5609  1.4431
 3408TIP3    H234420   5.523   6.008  18.238 -1.6489 -0.2349 -0.8638
 3409TIP3   OH234421   5.141   4.365  16.647 -0.1079 -0.0155 -0.5718
 3409TIP3    H134422   5.169   4.279  16.618  1.8798  0.9659 -1.8347
 3409TIP3    H234423   5.101   4.405  16.570 -0.2354  0.4815 -0.2523
 3410TIP3   OH234424   0.045   2.656  17.798 -0.3024 -0.3593 -0.4615
 3410TIP3    H134425   0.084   2.592  17.738 -0.9491 -2.2165  0.9926
 3410TIP3    H234426   0.100   2.734  17.788  0.1727 -0.8928 -2.7344
 3411TIP3   OH234427   0.235   3.715  18.756  0.1830 -0.0552 -0.1671
 3411TIP3    H134428   0.246   3.621  18.745  0.3668 -0.2579  1.5567
 3411TIP3    H234429   0.167   3.739  18.693 -0.1152 -1.3844 -0.3689
 3412TIP3   OH234430   1.449   1.929  18.557  0.4421  0.8407 -0.5680
 3412TIP3    H134431   1.416   2.017  18.579  1.3125  0.8086  0.9771
 3412TIP3    H234432   1.394   1.869  18.606  2.6808  0.7876  2.0949
 3413TIP3   OH234433   4.576   0.388  17.077  0.5238 -0.1733  0.2848
 3413TIP3    H134434   4.488   0.423  17.061  0.9385 -0.1122 -2.3858
 3413TIP3    H234435   4.566   0.294  17.064  0.7642 -0.2045  0.3307
 3414TIP3   OH234436   7.350   7.606  19.339 -0.1957 -0.3876 -0.2676
 3414TIP3    H134437   7.360   7.688  19.388  0.4255 -0.0662 -0.9120
 3414TIP3    H234438   7.256   7.587  19.344 -0.1306 -0.4834  1.2050
 3415TIP3   OH234439   5.199   4.842  18.896 -0.1540 -0.7252  0.0801
 3415TIP3    H134440   5.209   4.796  18.979 -1.3416 -1.0675  0.0436
 3415TIP3    H234441   5.208   4.774  18.830  1.5752 -0.3388 -0.1431
 3416TIP3   OH234442   5.163   1.260  18.164 -0.2414 -0.6890  0.2974
 3416TIP3    H134443   5.085   1.296  18.122  0.1671  0.1272  0.2202
 3416TIP3    H234444   5.234   1.321  18.142  0.2071 -0.8306  1.2453
 3417TIP3   OH234445   7.459   0.143  17.270 -0.1141  0.4212  0.4298
 3417TIP3    H134446   7.382   0.097  17.304 -0.7667  1.5415  0.4896
 3417TIP3    H234447   7.425   0.203  17.204  0.7103  0.9034  0.4184
 3418TIP3   OH234448   3.348   3.785  17.625  0.1468 -0.1460 -0.4640
 3418TIP3    H134449   3.302   3.740  17.696 -0.1662 -2.6907 -2.1003
 3418TIP3    H234450   3.307   3.871  17.620 -0.8689 -0.4703  1.4395
 3419TIP3   OH234451   2.742   3.378  18.361  0.4304  0.1689  0.0210
 3419TIP3    H134452   2.668   3.348  18.415 -0.0439 -0.6239 -1.0260
 3419TIP3    H234453   2.791   3.437  18.418  0.6057 -1.5208  1.7189
 3420TIP3   OH234454   3.342   7.047  18.983  0.1775  0.0110 -0.1514
 3420TIP3    H134455   3.359   7.084  18.896  3.3725 -1.8792 -0.5252
 3420TIP3    H234456   3.300   6.963  18.966  0.9845 -0.4511  0.0840
 3421TIP3   OH234457   4.764   7.476  19.251 -0.0203 -0.2740 -0.1836
 3421TIP3    H134458   4.803   7.511  19.332 -3.7562 -0.3468  1.8494
 3421TIP3    H234459   4.740   7.553  19.201  2.4440 -0.2275 -1.4651
 3422TIP3   OH234460   6.010   4.975  18.814  0.6984 -0.4536  0.0317
 3422TIP3    H134461   6.036   5.066  18.799 -0.3570 -0.5195 -2.6542
 3422TIP3    H234462   5.929   4.982  18.865  2.2366 -0.0708  2.6029
 3423TIP3   OH234463   3.203   7.245  19.115 -0.0159 -0.1417 -0.8658
 3423TIP3    H134464   3.272   7.307  19.092 -1.5016  0.6500 -3.5486
 3423TIP3    H234465   3.230   7.163  19.074 -0.1165 -0.1341 -0.9465
 3424TIP3   OH234466   5.438   2.745  18.900 -0.4375  0.5526 -0.1136
 3424TIP3    H134467   5.511   2.763  18.840 -0.6683  0.4633 -0.4172
 3424TIP3    H234468   5.456   2.657  18.933  0.1927  0.9556  0.6675
 3425TIP3   OH234469   2.869   2.390  19.008  0.2731 -0.3841  0.6329
 3425TIP3    H134470   2.785   2.424  19.039  1.0023 -1.3585  4.1343
 3425TIP3    H234471   2.903   2.339  19.082  3.6382 -0.6208 -0.8845
 3426TIP3   OH234472   0.862   0.401  18.421  0.0409  0.0917 -0.2146
 3426TIP3    H134473   0.912   0.417  18.501  0.3748 -2.0720  0.0557
 3426TIP3    H234474   0.772   0.424  18.444  0.4026  1.1518  0.2106
 3427TIP3   OH234475   0.588   1.593  17.037 -0.4985 -0.3072 -0.3134
 3427TIP3    H134476   0.545   1.553  16.961  0.7702  0.4328 -1.4535
 3427TIP3    H234477   0.681   1.589  17.017 -0.1158 -0.3068  1.3308
 3428TIP3   OH234478   1.574   0.143  18.485  0.4235 -0.4799  0.6172
 3428TIP3    H134479   1.612   0.219  18.530 -0.4116 -1.1528  2.5755
 3428TIP3    H234480   1.649   0.089  18.461  0.9810  0.5933 -0.1642
 3429TIP3   OH234481   3.716   4.964  17.910 -0.0291 -0.1707  0.1664
 3429TIP3    H134482   3.720   4.868  17.914  1.3547 -0.0992  0.8655
 3429TIP3    H234483   3.692   4.991  17.998  3.2775  0.2362  1.0767
 3430TIP3   OH234484   0.494   7.320  16.869 -0.1782  0.4327 -0.2418
 3430TIP3    H134485   0.447   7.274  16.799 -0.0559 -1.0551  0.6133
 3430TIP3    H234486   0.586   7.297  16.855 -0.2446 -0.6164  0.9114
 3431TIP3   OH234487   2.414   4.749  18.059  0.5210 -0.1213  0.3580
 3431TIP3    H134488   2.374   4.737  18.145  0.4375 -0.5276  0.2679
 3431TIP3    H234489   2.495   4.697  18.062  0.8391  0.3703  0.4044
 3432TIP3   OH234490   2.933   6.231  19.259 -0.1199  0.2135 -0.6372
 3432TIP3    H134491   3.011   6.287  19.251  0.2976 -0.1115  0.7526
 3432TIP3    H234492   2.868   6.287  19.302 -0.1969  0.0713 -0.5680
 3433TIP3   OH234493   0.132   3.494  16.646  0.1992 -0.6310 -0.4541
 3433TIP3    H134494   0.050   3.505  16.598 -0.8003 -2.5523  0.6712
 3433TIP3    H234495   0.124   3.553  16.721  0.6845  0.5326 -1.2865
 3434TIP3   OH234496   0.393   4.668  18.396  0.2398  0.1782  0.4746
 3434TIP3    H134497   0.316   4.725  18.391 -0.3355 -0.5378  0.9601
 3434TIP3    H234498   0.368   4.599  18.458  1.8098  0.7692  1.8474
 3435TIP3   OH234499   2.053   6.052  19.270  0.5759 -0.4881 -0.3235
 3435TIP3    H134500   2.131   6.099  19.239  0.6157  0.0781  0.6214
 3435TIP3    H234501   1.983   6.118  19.268  0.2953 -0.7850 -0.4042
 3436TIP3   OH234502   3.372   0.846  19.452 -0.2638  0.2481 -0.6742
 3436TIP3    H134503   3.358   0.789  19.376 -0.8275 -1.3411  0.5881
 3436TIP3    H234504   3.461   0.827  19.481  0.5856  2.0703 -1.8647
 3437TIP3   OH234505   5.654   4.942  18.172  0.1934 -0.1269  0.0269
 3437TIP3    H134506   5.617   4.884  18.105  0.6274  0.3817 -0.6664
 3437TIP3    H234507   5.653   5.029  18.131 -1.3546  0.5482  1.4026
 3438TIP3   OH234508   5.684   2.995  17.521  0.1367 -0.0701 -0.4802
 3438TIP3    H134509   5.769   3.038  17.530  1.4309 -2.0505 -2.2162
 3438TIP3    H234510   5.632   3.055  17.468 -0.0099  1.6789  1.5260
 3439TIP3   OH234511   4.443   3.154  17.194  0.4648  0.4507  0.1049
 3439TIP3    H134512   4.412   3.086  17.253 -1.0298  1.0368  0.0277
 3439TIP3    H234513   4.537   3.159  17.211  0.1799  0.1879  1.9942
 3440TIP3   OH234514   6.390   7.389  18.938 -0.2790 -0.0860 -0.6088
 3440TIP3    H134515   6.309   7.345  18.963 -1.0560  1.8301  0.4812
 3440TIP3    H234516   6.407   7.360  18.849 -2.3631 -0.2574 -0.9940
 3441TIP3   OH234517   6.635   3.607  19.100 -0.5430 -0.3627 -0.4964
 3441TIP3    H134518   6.591   3.616  19.015  1.0928 -0.3810 -1.3679
 3441TIP3    H234519   6.573   3.646  19.162 -2.6059 -2.0013 -1.3859
 3442TIP3   OH234520   5.584   5.597  18.843 -0.6597  0.2112 -0.4509
 3442TIP3    H134521   5.577   5.585  18.937  0.2900  1.0329 -0.2617
 3442TIP3    H234522   5.512   5.655  18.820 -1.6116 -0.9283 -0.4335
 3443TIP3   OH234523   5.169   1.551  19.127 -0.4013  0.0268 -0.5660
 3443TIP3    H134524   5.251   1.570  19.173  0.9209 -2.4156 -1.7034
 3443TIP3    H234525   5.106   1.532  19.197  0.5088  0.1155  0.2980
 3444TIP3   OH234526   2.538   4.700  16.775 -0.1097  0.4121  0.1112
 3444TIP3    H134527   2.504   4.671  16.690  0.2616  0.6065 -0.1082
 3444TIP3    H234528   2.567   4.620  16.818  0.3104  0.3811 -0.2225
 3445TIP3   OH234529   4.698   2.814  17.543 -0.2069 -0.1372  0.4736
 3445TIP3    H134530   4.785   2.778  17.522 -1.1272 -2.0246 -0.4208
 3445TIP3    H234531   4.676   2.774  17.627 -0.2024  0.3554  0.7086
 3446TIP3   OH234532   7.277   5.635  17.338 -0.1183  0.1497  0.1525
 3446TIP3    H134533   7.244   5.564  17.283 -0.6496  0.0248  0.6140
 3446TIP3    H234534   7.252   5.715  17.292  2.4057  0.0883 -1.4965
 3447TIP3   OH234535   1.096   6.581  18.483 -0.5384 -0.1928 -0.2534
 3447TIP3    H134536   1.014   6.631  18.482 -1.4061 -1.5119  1.0243
 3447TIP3    H234537   1.090   6.526  18.404 -1.3875 -1.0063  0.3524
 3448TIP3   OH234538   0.352   3.915  19.437  0.0550 -0.2351  0.5340
 3448TIP3    H134539   0.306   3.932  19.355  2.2582 -0.3819 -0.7920
 3448TIP3    H234540   0.298   3.850  19.481 -1.5271  0.3465 -0.4591
 3449TIP3   OH234541   2.416   3.216  17.867 -0.1155 -0.1903  0.2305
 3449TIP3    H134542   2.406   3.127  17.900 -0.8809 -0.3335 -0.3697
 3449TIP3    H234543   2.407   3.208  17.773  1.9646  0.2345 -0.0684
 3450TIP3   OH234544   2.206   1.856  19.202  0.0317  0.0196  0.4247
 3450TIP3    H134545   2.253   1.786  19.247  0.0703  0.9946  1.9859
 3450TIP3    H234546   2.244   1.937  19.236 -1.8932  0.8247  0.8138
 3451TIP3   OH234547   0.246   3.454  18.685  0.0882  0.3265  0.0188
 3451TIP3    H134548   0.219   3.438  18.594  0.3283 -1.2146  0.1829
 3451TIP3    H234549   0.333   3.416  18.691 -0.5743 -1.1205  1.2870
 3452TIP3   OH234550   4.553   3.331  19.600 -0.7795 -0.4186 -0.0959
 3452TIP3    H134551   4.642   3.366  19.603 -0.6450 -0.6447 -1.1714
 3452TIP3    H234552   4.535   3.303  19.690 -0.0941  0.4348  0.3177
 3453TIP3   OH234553   1.964   2.668  19.309 -0.5308  0.0863 -0.0947
 3453TIP3    H134554   1.930   2.743  19.259 -0.4969  1.8216  2.3079
 3453TIP3    H234555   2.055   2.691  19.327  0.1546 -1.6205 -1.1631
 3454TIP3   OH234556   6.237   6.227  18.679 -0.3481  0.2719  0.4833
 3454TIP3    H134557   6.186   6.146  18.682 -2.2646  1.4218  0.3572
 3454TIP3    H234558   6.240   6.257  18.770 -0.7562  0.7171  0.3524
 3455TIP3   OH234559   3.455   0.699  17.775  0.1806  0.0769 -0.2043
 3455TIP3    H134560   3.446   0.785  17.733 -2.1899 -0.4018 -0.8318
 3455TIP3    H234561   3.372   0.656  17.757  1.3575 -2.4166  0.0059
 3456TIP3   OH234562   4.444   2.649  19.022  0.0251 -0.2539 -0.0200
 3456TIP3    H134563   4.425   2.558  19.045  1.5071 -0.8538 -1.0667
 3456TIP3    H234564   4.482   2.645  18.934  0.6370  1.3097  0.1393
 3457TIP3   OH234565   5.612   5.883  19.098  0.7065 -0.0186  0.1956
 3457TIP3    H134566   5.635   5.909  19.008  3.5566 -1.8018  0.2759
 3457TIP3    H234567   5.619   5.964  19.149  4.1924  0.2191 -0.4169
 3458TIP3   OH234568   5.739   2.886  19.194  0.1738  0.2302  0.2863
 3458TIP3    H134569   5.672   2.914  19.132  0.6308  0.6409 -0.0302
 3458TIP3    H234570   5.756   2.964  19.247  0.9846  0.3802 -0.1753
 3459TIP3   OH234571   5.726   1.399  18.585  0.6451 -0.1815  0.0814
 3459TIP3    H134572   5.799   1.351  18.545  1.0078  0.1612  0.3177
 3459TIP3    H234573   5.747   1.401  18.678 -0.3257 -1.1941  0.3388
 3460TIP3   OH234574   7.312   5.891  18.480 -0.3772  0.1630 -0.2336
 3460TIP3    H134575   7.404   5.904  18.502 -0.0773 -2.1095  0.1736
 3460TIP3    H234576   7.267   5.892  18.564 -0.1707 -2.0912 -0.0294
 3461TIP3   OH234577   1.349   2.955  19.032 -0.0435  0.3941 -0.7611
 3461TIP3    H134578   1.396   3.038  19.043  0.0672  0.5405 -2.1608
 3461TIP3    H234579   1.294   2.969  18.956 -1.6941 -0.1005  0.3030
 3462TIP3   OH234580   0.089   7.551  19.118  0.4697  0.2181  0.5743
 3462TIP3    H134581   0.004   7.591  19.103  0.1878 -0.5417  0.1174
 3462TIP3    H234582   0.132   7.552  19.033  0.0415 -1.3811  0.2961
 3463TIP3   OH234583   0.080   2.292  17.082 -0.5357 -0.8778 -0.1456
 3463TIP3    H134584   0.055   2.359  17.018 -0.0999  0.6102  1.1758
 3463TIP3    H234585   0.128   2.227  17.032  1.3194  1.1076 -1.0769
 3464TIP3   OH234586   0.222   3.182  18.228 -0.5846 -0.7741  0.2178
 3464TIP3    H134587   0.260   3.267  18.249  0.5919 -1.5310  1.3483
 3464TIP3    H234588   0.215   3.138  18.313  0.5387 -2.4712 -0.5301
 3465TIP3   OH234589   4.563   6.902  17.942 -0.1632  0.1419  0.2301
 3465TIP3    H134590   4.511   6.975  17.976  0.6439  0.7088  0.2825
 3465TIP3    H234591   4.574   6.922  17.849 -1.0982 -0.6353 -0.0691
 3466TIP3   OH234592   6.448   1.256  17.628 -0.7237  0.3788 -0.3550
 3466TIP3    H134593   6.364   1.235  17.669 -0.2330  1.2147  1.1690
 3466TIP3    H234594   6.504   1.181  17.647 -0.6369  0.5624  0.1347
 3467TIP3   OH234595   6.687   2.049  17.150 -0.0184  0.5766  0.4056
 3467TIP3    H134596   6.735   2.125  17.185  0.5756  0.1896  0.4362
 3467TIP3    H234597   6.702   2.052  17.056  0.0932  0.4420  0.4167
 3468TIP3   OH234598   4.641   3.630  18.328 -0.4830  0.2095 -0.4948
 3468TIP3    H134599   4.646   3.722  18.302  1.1508  0.5670  0.9199
 3468TIP3    H234600   4.641   3.632  18.424 -0.6373 -1.2515 -0.4482
 3469TIP3   OH234601   6.425   7.307  18.175 -0.9336 -0.6655  0.5364
 3469TIP3    H134602   6.476   7.226  18.181 -0.3661 -0.2008  2.5614
 3469TIP3    H234603   6.352   7.284  18.118 -0.5633 -2.4818  0.7173
 3470TIP3   OH234604   6.974   0.270  18.649 -0.6397  0.3846  0.6586
 3470TIP3    H134605   6.919   0.222  18.711 -0.1833 -0.1385  0.6693
 3470TIP3    H234606   7.063   0.261  18.684 -0.5342  1.1384  0.5918
 3471TIP3   OH234607   4.059   7.267  19.077  0.1359 -0.4571 -0.1296
 3471TIP3    H134608   4.049   7.194  19.016  0.2821 -1.4315  0.9856
 3471TIP3    H234609   3.995   7.250  19.146 -0.4799  0.9688 -0.3160
 3472TIP3   OH234610   4.797   7.635  18.414 -0.1535 -0.3548 -0.5253
 3472TIP3    H134611   4.705   7.621  18.435 -1.0955  1.8168 -2.5882
 3472TIP3    H234612   4.824   7.556  18.367 -0.8515 -1.1176  0.3246
 3473TIP3   OH234613   5.679   6.501  17.326  0.3591  0.3099 -0.7707
 3473TIP3    H134614   5.664   6.512  17.420  1.6693 -0.6783 -0.4248
 3473TIP3    H234615   5.733   6.422  17.319 -0.7817 -0.3878 -2.4559
 3474TIP3   OH234616   0.448   5.333  17.104  0.1266 -0.0915  0.0112
 3474TIP3    H134617   0.508   5.327  17.178 -1.5484  1.1643  1.5425
 3474TIP3    H234618   0.422   5.425  17.102 -1.7678 -0.6075 -0.5848
 3475TIP3   OH234619   6.322   3.920  17.529  0.6506  0.4185 -0.7367
 3475TIP3    H134620   6.313   3.871  17.447  0.1551 -1.5587  0.4292
 3475TIP3    H234621   6.351   3.854  17.592 -0.7875  1.4665  1.0858
 3476TIP3   OH234622   3.141   7.357  16.706 -0.6578  0.0085 -0.5485
 3476TIP3    H134623   3.075   7.423  16.726  0.2265  0.6126  0.4040
 3476TIP3    H234624   3.113   7.320  16.622 -1.1526  1.6010 -1.1078
 3477TIP3   OH234625   1.536   6.300  17.065 -0.4335  0.2834  0.3233
 3477TIP3    H134626   1.571   6.356  17.133  0.3264  0.5834 -0.3066
 3477TIP3    H234627   1.485   6.359  17.009 -2.2106 -0.1752  1.3540
 3478TIP3   OH234628   7.348   4.890  16.971  0.0097 -0.2642 -0.7024
 3478TIP3    H134629   7.395   4.834  17.033 -4.3179 -2.2024  1.2211
 3478TIP3    H234630   7.385   4.977  16.987  3.1679 -1.5948  0.2063
 3479TIP3   OH234631   0.279   2.727  18.677  0.5060  0.2378  0.0675
 3479TIP3    H134632   0.312   2.637  18.677  0.3181  0.1277 -2.1507
 3479TIP3    H234633   0.358   2.781  18.670  0.5093  0.1455 -0.7015
 3480TIP3   OH234634   6.549   4.683  18.324 -0.2692 -0.3348  0.4982
 3480TIP3    H134635   6.503   4.616  18.374 -1.0616  0.6679  1.1364
 3480TIP3    H234636   6.534   4.764  18.372  0.8963  0.2653 -0.1198
 3481TIP3   OH234637   5.337   0.095  16.777 -0.2945 -0.0168  0.0534
 3481TIP3    H134638   5.368   0.164  16.718 -0.2783 -1.7003 -2.0461
 3481TIP3    H234639   5.393   0.103  16.855  0.6132  1.4577 -0.7067
 3482TIP3   OH234640   0.977   3.361  17.460  0.2315 -0.2082 -0.1493
 3482TIP3    H134641   1.027   3.323  17.388  0.3151 -0.8736  0.2541
 3482TIP3    H234642   0.887   3.361  17.429  0.3461  0.0852 -0.4961
 3483TIP3   OH234643   6.661   6.498  18.387  0.3269  0.2610 -0.7419
 3483TIP3    H134644   6.573   6.460  18.381  0.2428  0.5670 -1.5695
 3483TIP3    H234645   6.645   6.588  18.415  0.4478  0.0208  0.1045
 3484TIP3   OH234646   7.046   6.488  19.310  0.4783  0.3224 -0.1290
 3484TIP3    H134647   7.092   6.572  19.311  1.3662 -0.1308 -1.0735
 3484TIP3    H234648   6.954   6.511  19.298  0.6932  1.1687 -0.2108
 3485TIP3   OH234649   0.689   5.598  18.625 -0.1643 -0.0608 -0.1306
 3485TIP3    H134650   0.748   5.653  18.676 -0.9132 -0.0371  0.7388
 3485TIP3    H234651   0.626   5.565  18.688 -1.7494  0.7821 -1.1919
 3486TIP3   OH234652   0.828   6.841  19.241 -0.0352  0.5754  0.4396
 3486TIP3    H134653   0.861   6.929  19.257  0.0070  0.3105  1.9245
 3486TIP3    H234654   0.743   6.838  19.285 -0.5527  0.2120 -0.5522
 3487TIP3   OH234655   3.175   6.654  16.612 -0.5481  0.2474 -0.4335
 3487TIP3    H134656   3.087   6.680  16.583 -0.0963  0.9576 -1.2349
 3487TIP3    H234657   3.184   6.563  16.584 -1.3477 -0.1285  0.4568
 3488TIP3   OH234658   3.223   0.380  17.070  0.4050  0.0917 -0.3834
 3488TIP3    H134659   3.317   0.400  17.068  0.2682  1.1416  1.3361
 3488TIP3    H234660   3.182   0.454  17.025  0.2485  1.1915  1.4606
 3489TIP3   OH234661   7.474   7.249  18.592  0.4854  0.3368  0.3092
 3489TIP3    H134662   7.544   7.187  18.614 -0.6867 -1.1932 -0.0670
 3489TIP3    H234663   7.430   7.265  18.676 -2.3749 -3.4740 -0.1959
 3490TIP3   OH234664   0.110   6.175  17.122 -0.0538 -0.5782 -0.1981
 3490TIP3    H134665   0.095   6.208  17.211  1.2858 -2.6477  0.8780
 3490TIP3    H234666   0.025   6.180  17.080 -0.4544  1.6523  0.7455
 3491TIP3   OH234667   0.103   7.233  18.015 -0.1727 -0.4056 -0.0134
 3491TIP3    H134668   0.013   7.229  17.981  0.0702 -0.2428 -0.6921
 3491TIP3    H234669   0.093   7.228  18.110 -0.8546 -1.2004 -0.1129
 3492TIP3   OH234670   7.539   7.668  19.096 -0.2511 -0.6739 -0.0405
 3492TIP3    H134671   7.456   7.623  19.115 -0.4546  0.0030  0.6866
 3492TIP3    H234672   7.512   7.749  19.053  0.1299 -1.3490 -1.6287
 3493TIP3   OH234673   7.116   3.895  19.063  0.1496 -0.0278  0.2336
 3493TIP3    H134674   7.025   3.868  19.079  0.2126 -1.5791 -1.6340
 3493TIP3    H234675   7.110   3.958  18.991  0.6022 -0.9254 -0.6110
 3494TIP3   OH234676   7.571   2.278  18.809  0.1579 -0.2735 -0.0076
 3494TIP3    H134677   7.599   2.367  18.834  0.7470 -0.2007 -0.8902
 3494TIP3    H234678   7.485   2.291  18.769  0.3414 -0.0643 -0.3437
 3495TIP3   OH234679   7.275   5.113  17.493 -0.1462 -0.7312  0.2018
 3495TIP3    H134680   7.245   5.190  17.444  1.9721  0.9657  1.4257
 3495TIP3    H234681   7.344   5.075  17.438 -0.8133 -1.4699 -0.1442
 3496TIP3   OH234682   0.265   2.261  18.246 -0.3246  0.0839 -0.1850
 3496TIP3    H134683   0.223   2.346  18.254 -3.6034 -1.5019  1.6630
 3496TIP3    H234684   0.213   2.215  18.180  0.4979 -0.9326 -0.1504
 3497TIP3   OH234685   7.569   3.657  16.610 -0.3426  0.4023  0.3066
 3497TIP3    H134686   7.563   3.568  16.576  0.9344  0.1063  0.8115
 3497TIP3    H234687   7.529   3.653  16.696  2.6368 -0.5153  1.7670
 3498TIP3   OH234688   3.659   3.331  17.184 -0.2563 -0.4734 -0.3211
 3498TIP3    H134689   3.615   3.318  17.268 -0.6110 -0.1302 -0.4505
 3498TIP3    H234690   3.717   3.256  17.175  1.2556  0.4595  1.1411
 3499TIP3   OH234691   2.296   1.499  17.020  0.1530 -0.0884  0.7981
 3499TIP3    H134692   2.270   1.434  16.955 -0.2313 -1.0143  1.8311
 3499TIP3    H234693   2.353   1.560  16.973 -0.5131 -0.4377 -0.5089
 3500TIP3   OH234694   5.982   6.551  18.779 -0.4032 -0.4011  0.1214
 3500TIP3    H134695   5.988   6.515  18.690 -1.2153  2.1478 -1.0343
 3500TIP3    H234696   5.902   6.514  18.815 -0.7652 -0.4261 -0.6990
 3501TIP3   OH234697   1.913   7.459  17.394 -0.3062  0.0422 -0.1713
 3501TIP3    H134698   1.894   7.552  17.405 -1.8556 -0.2133 -0.4744
 3501TIP3    H234699   1.838   7.414  17.434  0.6947 -1.0923  0.4894
 3502TIP3   OH234700   0.205   1.970  17.673  0.5673  0.2854 -0.5138
 3502TIP3    H134701   0.120   1.948  17.636  0.8077 -0.6955 -0.5173
 3502TIP3    H234702   0.268   1.921  17.619  1.0370  0.0311  0.2496
 3503TIP3   OH234703   2.865   3.727  18.713  0.2557  0.1356  0.0960
 3503TIP3    H134704   2.825   3.676  18.784 -0.7116  0.6319 -0.0656
 3503TIP3    H234705   2.811   3.706  18.636  1.6615 -0.8755 -0.6667
 3504TIP3   OH234706   4.080   0.060  18.387 -0.2282  0.0607 -0.2816
 3504TIP3    H134707   4.067   0.011  18.469  0.0677  0.3350 -0.0681
 3504TIP3    H234708   4.153   0.119  18.406 -0.8644  0.9036 -0.3962
 3505TIP3   OH234709   1.635   0.461  17.370  0.3604  0.2052 -0.2915
 3505TIP3    H134710   1.634   0.384  17.313 -2.2194 -0.4164  0.4924
 3505TIP3    H234711   1.725   0.463  17.404  0.4074 -2.8202  0.0990
 3506TIP3   OH234712   4.537   3.956  17.768  0.4049 -0.4678 -0.4832
 3506TIP3    H134713   4.482   3.880  17.745 -0.1042  0.3124 -2.0246
 3506TIP3    H234714   4.486   4.003  17.834 -0.4301 -0.1809 -1.3114
 3507TIP3   OH234715   1.773   5.853  18.103 -0.4821  0.0201  0.3013
 3507TIP3    H134716   1.737   5.798  18.033  0.7677 -0.6382  0.1441
 3507TIP3    H234717   1.716   5.835  18.178 -2.2260  1.2034 -0.6507
 3508TIP3   OH234718   3.445   2.416  18.848  0.2792  0.5721 -0.2203
 3508TIP3    H134719   3.464   2.418  18.941  0.9426  0.1026 -0.3387
 3508TIP3    H234720   3.528   2.393  18.807 -0.3832 -0.9149 -0.8012
 3509TIP3   OH234721   1.416   4.880  17.682  0.2477  0.0695  0.0781
 3509TIP3    H134722   1.440   4.838  17.599 -0.0335 -0.1740  0.1174
 3509TIP3    H234723   1.374   4.962  17.656  1.2609  0.5847  0.0137
 3510TIP3   OH234724   2.534   5.143  18.464  0.0748  0.0646 -0.3238
 3510TIP3    H134725   2.527   5.238  18.467 -1.1808 -0.0206  0.1875
 3510TIP3    H234726   2.562   5.118  18.553 -2.7113 -0.2096  0.5646
 3511TIP3   OH234727   4.840   3.939  19.236 -0.1209  0.1603  0.1048
 3511TIP3    H134728   4.925   3.942  19.280  0.0356 -1.6451 -0.0308
 3511TIP3    H234729   4.860   3.961  19.145  0.1226  0.2439  0.1764
 3512TIP3   OH234730   4.500   5.081  18.760  0.4179  0.1838 -0.5637
 3512TIP3    H134731   4.501   4.985  18.761  0.1382  0.1648 -1.5472
 3512TIP3    H234732   4.540   5.105  18.677 -0.2560  0.9081 -0.6895
 3513TIP3   OH234733   5.123   1.958  17.672  0.5241 -0.0998 -0.5383
 3513TIP3    H134734   5.149   1.900  17.601 -0.0829 -1.4687  0.3190
 3513TIP3    H234735   5.037   1.927  17.699 -0.1519  1.6521 -0.5032
 3514TIP3   OH234736   4.691   3.719  17.970  0.3580  0.3045 -0.5331
 3514TIP3    H134737   4.647   3.744  17.889 -0.4182  2.7528  0.5482
 3514TIP3    H234738   4.762   3.783  17.980  1.2756 -0.7557  0.0939
 3515TIP3   OH234739   1.892   5.719  19.078  0.1187  0.6501  0.3550
 3515TIP3    H134740   1.887   5.811  19.102 -1.0638  0.9076 -0.7523
 3515TIP3    H234741   1.835   5.711  19.001 -2.9833 -1.7284  2.6470
 3516TIP3   OH234742   5.736   1.067  16.338  0.3879  0.0180  0.0323
 3516TIP3    H134743   5.791   1.002  16.381 -0.0595  1.1588  2.5476
 3516TIP3    H234744   5.789   1.147  16.338 -0.3160  0.4953  0.1673
 3517TIP3   OH234745   1.699   2.241  19.457 -1.1025 -0.3623  0.0474
 3517TIP3    H134746   1.729   2.329  19.432  0.0668 -1.0591 -1.1453
 3517TIP3    H234747   1.733   2.229  19.546  0.2403 -0.2336 -0.4195
 3518TIP3   OH234748   7.602   1.885  19.561 -0.6405  0.2796 -0.2371
 3518TIP3    H134749   7.593   1.818  19.493 -0.0694  1.8515 -1.9425
 3518TIP3    H234750   7.650   1.842  19.632  1.5271 -0.5830 -2.1133
 3519TIP3   OH234751   4.800   2.187  17.780 -0.1541 -0.4257 -0.0329
 3519TIP3    H134752   4.788   2.149  17.692 -0.9164  0.0670 -0.1504
 3519TIP3    H234753   4.792   2.112  17.839 -1.0478 -0.5589 -0.3027
 3520TIP3   OH234754   5.430   1.372  17.812 -0.4620  0.0041  0.6397
 3520TIP3    H134755   5.362   1.411  17.867 -1.3596 -0.1322 -0.3398
 3520TIP3    H234756   5.474   1.448  17.773 -1.3235  0.1001 -0.2045
 3521TIP3   OH234757   3.932   3.078  17.623  0.3069 -0.4424  0.2080
 3521TIP3    H134758   3.954   3.165  17.656 -1.5443  0.8384 -1.6356
 3521TIP3    H234759   3.975   3.074  17.537  1.5391 -1.9507  0.8657
 3522TIP3   OH234760   3.186   4.909  17.411  0.0411  1.0932  0.0014
 3522TIP3    H134761   3.142   4.906  17.496 -0.4494 -0.4769 -0.2756
 3522TIP3    H234762   3.262   4.851  17.422 -0.6590 -0.0527 -0.9329
 3523TIP3   OH234763   2.266   4.080  16.918  0.0790 -0.2667  0.6189
 3523TIP3    H134764   2.343   4.024  16.919  0.8653  0.7825  0.7074
 3523TIP3    H234765   2.291   4.155  16.972 -0.8517  0.2859  0.3019
 3524TIP3   OH234766   6.628   5.217  18.843  0.5035  0.3182  0.4702
 3524TIP3    H134767   6.676   5.137  18.820  0.3599  0.3720 -0.0440
 3524TIP3    H234768   6.607   5.207  18.936  2.2393  0.6763  0.9296
 3525TIP3   OH234769   5.694   5.949  18.821 -0.2701 -0.0430 -0.3889
 3525TIP3    H134770   5.693   5.858  18.792 -1.4113 -0.1186 -0.1655
 3525TIP3    H234771   5.786   5.976  18.814  0.1096 -1.2569 -0.2859
 3526TIP3   OH234772   4.458   1.696  18.731 -0.4899 -0.4812  0.1737
 3526TIP3    H134773   4.504   1.728  18.809 -1.5907  1.1982  0.1671
 3526TIP3    H234774   4.457   1.601  18.742 -0.9176 -0.2747  2.3922
 3527TIP3   OH234775   5.959   1.456  19.507 -0.2884  0.1507 -0.3557
 3527TIP3    H134776   5.979   1.534  19.559  1.1466 -0.6095  0.2630
 3527TIP3    H234777   5.888   1.413  19.554  0.3293 -0.0071  0.4529
 3528TIP3   OH234778   5.977   6.403  17.968  0.3733 -0.1903  0.1049
 3528TIP3    H134779   6.033   6.422  18.043 -1.1417  0.4820  1.1267
 3528TIP3    H234780   6.022   6.442  17.893  1.1518  0.5299  0.9287
 3529TIP3   OH234781   6.604   0.921  17.420  0.4294  0.1957  0.1088
 3529TIP3    H134782   6.522   0.952  17.457  0.9242 -1.1805  2.6032
 3529TIP3    H234783   6.591   0.827  17.407  1.6946 -0.0992  0.8409
 3530TIP3   OH234784   7.281   5.091  19.427  0.0495  0.3917 -0.8448
 3530TIP3    H134785   7.301   5.185  19.421 -2.2012  1.0850  1.3148
 3530TIP3    H234786   7.356   5.054  19.474 -0.5428  1.7706  1.3340
 3531TIP3   OH234787   2.402   4.849  18.928 -0.0645  0.2542 -0.1209
 3531TIP3    H134788   2.422   4.914  18.861 -2.1951  0.3910 -0.6732
 3531TIP3    H234789   2.435   4.888  19.009  0.3188  1.1996 -0.7160
 3532TIP3   OH234790   4.319   6.201  16.860 -0.1160 -0.4899 -0.0062
 3532TIP3    H134791   4.312   6.135  16.791 -1.5568 -0.6725  0.2726
 3532TIP3    H234792   4.315   6.151  16.942 -2.1633 -0.0682  0.2270
 3533TIP3   OH234793   4.972   6.800  16.798 -0.1981  0.3919 -0.0428
 3533TIP3    H134794   5.006   6.873  16.745 -1.3704  1.1389  0.1873
 3533TIP3    H234795   4.965   6.836  16.887  1.7433 -0.8449  0.6748
 3534TIP3   OH234796   3.578   6.486  16.918  0.2786 -0.0569  0.2864
 3534TIP3    H134797   3.524   6.408  16.914  2.4146 -1.6697  1.2736
 3534TIP3    H234798   3.592   6.501  17.011 -0.0349  1.5267  0.1217
 3535TIP3   OH234799   7.438   6.923  18.815 -0.1644  0.2307  0.5530
 3535TIP3    H134800   7.468   6.854  18.874  0.5988  0.7745  0.8181
 3535TIP3    H234801   7.384   6.877  18.751 -1.1896 -0.3470  1.7789
 3536TIP3   OH234802   0.468   3.468  17.964  0.0256  0.3356 -0.2126
 3536TIP3    H134803   0.530   3.453  17.892 -1.1018 -1.3406 -0.9141
 3536TIP3    H234804   0.501   3.545  18.009  0.3219  1.9881 -3.0567
 3537TIP3   OH234805   1.624   3.600  17.700 -0.2410  0.3915  0.5541
 3537TIP3    H134806   1.625   3.633  17.611  0.1819 -0.6038  0.1837
 3537TIP3    H234807   1.715   3.578  17.720 -0.3366  0.5474  1.2115
 3538TIP3   OH234808   4.415   5.334  18.020 -0.0718 -0.0890  0.0005
 3538TIP3    H134809   4.355   5.405  17.997 -1.1564 -0.6034  1.1247
 3538TIP3    H234810   4.401   5.267  17.953 -1.2899 -0.4980  0.6406
 3539TIP3   OH234811   6.538   4.468  17.374  0.6139 -0.1520 -0.1787
 3539TIP3    H134812   6.448   4.437  17.381  1.1285 -1.5937  0.5413
 3539TIP3    H234813   6.542   4.545  17.430  0.8318 -2.6333  3.5951
 3540TIP3   OH234814   7.010   6.993  16.967 -0.3088 -0.0748 -0.2950
 3540TIP3    H134815   6.957   6.913  16.973  0.6942 -0.6565  1.8824
 3540TIP3    H234816   7.002   7.033  17.053  2.6301 -0.1010  0.0777
 3541TIP3   OH234817   5.334   2.709  17.502 -0.6288 -0.0596 -0.4235
 3541TIP3    H134818   5.305   2.642  17.564 -0.9605  0.2873 -0.2031
 3541TIP3    H234819   5.402   2.665  17.451 -0.0670 -0.2291  0.4431
 3542TIP3   OH234820   5.165   1.150  18.618 -0.3635  0.2424 -0.2804
 3542TIP3    H134821   5.125   1.128  18.534  0.5871 -1.9247 -0.2255
 3542TIP3    H234822   5.253   1.179  18.596 -0.6772  1.3901 -0.1184
 3543TIP3   OH234823   5.335   0.336  18.822 -0.1786  0.7512  0.5719
 3543TIP3    H134824   5.415   0.327  18.770 -0.5251  0.6714  0.0507
 3543TIP3    H234825   5.334   0.428  18.848 -0.6493  1.1097 -0.6344
 3544TIP3   OH234826   1.765   3.029  19.015 -0.2120 -0.0849  0.1874
 3544TIP3    H134827   1.686   3.003  18.967  0.1020 -0.8399  0.0728
 3544TIP3    H234828   1.756   3.124  19.025 -0.2943  0.0951 -1.3599
 3545TIP3   OH234829   0.133   1.651  16.272 -0.0242  0.3640  0.0068
 3545TIP3    H134830   0.179   1.709  16.332  0.6493  0.8108 -0.9079
 3545TIP3    H234831   0.193   1.640  16.198 -1.8459  2.0450 -1.8691
 3546TIP3   OH234832   2.557   0.747  17.035  0.2755 -0.1634 -0.4080
 3546TIP3    H134833   2.600   0.707  17.111  0.0354  2.5622  1.3036
 3546TIP3    H234834   2.468   0.712  17.036 -0.6417  1.8999  2.4156
 3547TIP3   OH234835   7.580   1.925  18.390  0.4587  0.1234  0.2513
 3547TIP3    H134836   7.551   1.909  18.479  0.2473 -0.7947  0.0219
 3547TIP3    H234837   7.646   1.994  18.399  2.2532 -1.6261  1.4320
 3548TIP3   OH234838   2.407   0.489  18.776  0.3112 -0.4844 -0.2505
 3548TIP3    H134839   2.429   0.489  18.683  0.2462  1.9000 -0.3352
 3548TIP3    H234840   2.491   0.474  18.821  0.5341 -0.5037 -0.6697
 3549TIP3   OH234841   6.752   6.620  17.403  0.5454  0.1101 -0.0028
 3549TIP3    H134842   6.719   6.530  17.391  1.0474 -0.2607  1.2103
 3549TIP3    H234843   6.699   6.673  17.343 -1.3545 -0.6676  0.8980
 3550TIP3   OH234844   4.025   7.565  16.804 -0.2251  0.1465 -0.0032
 3550TIP3    H134845   3.933   7.550  16.829 -0.0938  0.7316  0.8888
 3550TIP3    H234846   4.034   7.522  16.719 -1.3542  0.1777 -0.1575
 3551TIP3   OH234847   0.214   0.625  17.657 -0.7618 -0.4057  0.5195
 3551TIP3    H134848   0.153   0.564  17.616  0.8089 -1.4794 -0.3196
 3551TIP3    H234849   0.158   0.691  17.697 -2.5371 -2.3398  1.4158
 3552TIP3   OH234850   6.075   5.726  18.938 -0.3176  0.0517  0.5462
 3552TIP3    H134851   6.044   5.790  19.003 -1.3794 -0.3020  0.4136
 3552TIP3    H234852   5.995   5.698  18.893  0.1543 -1.2296  0.4697
 3553TIP3   OH234853   1.442   1.228  18.006  0.2501 -0.2487 -0.4794
 3553TIP3    H134854   1.435   1.150  18.061 -0.6443 -0.6145 -1.0905
 3553TIP3    H234855   1.458   1.193  17.918 -2.7791  0.0828 -1.2548
 3554TIP3   OH234856   6.889   2.715  17.924 -0.3334  0.0544 -0.5438
 3554TIP3    H134857   6.942   2.794  17.934 -1.2988  0.6442  0.1361
 3554TIP3    H234858   6.919   2.656  17.993  0.7248 -0.4000 -1.3544
 3555TIP3   OH234859   0.648   6.782  16.787 -0.0818  0.0940 -0.0169
 3555TIP3    H134860   0.665   6.804  16.695 -0.8927  1.3856  0.1213
 3555TIP3    H234861   0.579   6.716  16.783 -1.5656  1.5923 -0.3224
 3556TIP3   OH234862   3.396   3.834  18.815 -0.4229  0.1729 -0.0777
 3556TIP3    H134863   3.409   3.786  18.897 -1.8608 -0.0211  0.0504
 3556TIP3    H234864   3.313   3.801  18.781  0.5928 -0.4490 -2.1146
 3557TIP3   OH234865   2.809   0.834  19.339  0.5096  0.1373 -0.2400
 3557TIP3    H134866   2.830   0.842  19.432  0.2662 -0.9579 -0.0719
 3557TIP3    H234867   2.760   0.752  19.333 -0.2179  0.6238 -1.2093
 3558TIP3   OH234868   6.216   4.333  18.728  0.0252 -0.2131  0.1833
 3558TIP3    H134869   6.230   4.366  18.817  0.3014  1.1020 -0.3349
 3558TIP3    H234870   6.302   4.337  18.687 -0.1496 -0.5799 -0.2371
 3559TIP3   OH234871   4.201   5.711  18.678  0.4085 -0.2417 -0.2771
 3559TIP3    H134872   4.282   5.700  18.728  1.3700  2.1604 -1.1544
 3559TIP3    H234873   4.148   5.771  18.730 -0.1440 -0.5550 -0.4682
 3560TIP3   OH234874   3.790   1.511  17.572 -0.4220  0.3107 -0.1914
 3560TIP3    H134875   3.847   1.433  17.572 -0.1251  0.5156 -0.8747
 3560TIP3    H234876   3.844   1.579  17.531 -0.7080  0.8561  0.3355
 3561TIP3   OH234877   1.783   7.661  18.468 -0.2878  0.6223 -0.1725
 3561TIP3    H134878   1.826   7.647  18.384 -0.4254  1.5777 -0.4212
 3561TIP3    H234879   1.760   7.574  18.499  0.6367  0.1928 -0.6665
 3562TIP3   OH234880   0.026   1.875  18.048 -0.1339 -0.1449  0.3075
 3562TIP3    H134881  -0.061   1.850  18.081 -0.3140  1.4983  1.2043
 3562TIP3    H234882   0.079   1.885  18.127  0.7028 -0.5126 -0.1964
 3563TIP3   OH234883   0.275   0.562  19.461  0.0961 -0.4120  0.1273
 3563TIP3    H134884   0.198   0.572  19.517 -0.0542 -1.0178  0.0402
 3563TIP3    H234885   0.240   0.556  19.372  0.2803 -0.2247  0.0421
 3564TIP3   OH234886   0.486   1.388  18.982 -0.0663  0.2915 -0.0638
 3564TIP3    H134887   0.581   1.378  18.972 -0.0003  0.7417  0.0698
 3564TIP3    H234888   0.473   1.389  19.077 -0.1839  0.4303 -0.0819
 3565TIP3   OH234889   6.539   0.372  16.898  0.7929  0.6735  0.0894
 3565TIP3    H134890   6.615   0.315  16.886  0.1136  0.0725 -1.5686
 3565TIP3    H234891   6.543   0.433  16.825 -0.7954  0.0570 -0.5593
 3566TIP3   OH234892   1.734   2.558  19.055  0.0607 -0.1971 -0.3792
 3566TIP3    H134893   1.728   2.469  19.020 -0.0134 -0.5101  0.3969
 3566TIP3    H234894   1.648   2.597  19.037 -0.7538 -1.0831  1.3108
 3567TIP3   OH234895   0.148   6.210  18.543  0.4863 -0.4676 -0.0190
 3567TIP3    H134896   0.093   6.259  18.605  0.0289  0.6502 -1.2646
 3567TIP3    H234897   0.214   6.168  18.598  0.7253  1.3201  1.1356
 3568TIP3   OH234898   2.220   2.551  18.606  0.0127  0.5388  0.1170
 3568TIP3    H134899   2.280   2.609  18.654 -1.7596  1.9331  0.7974
 3568TIP3    H234900   2.133   2.590  18.621 -1.1709 -1.8393 -0.1413
 3569TIP3   OH234901   2.319   5.342  18.636  0.3149 -0.1573  0.1333
 3569TIP3    H134902   2.353   5.332  18.725 -0.8015  0.9008  0.7227
 3569TIP3    H234903   2.387   5.391  18.589  1.6552 -2.1551 -0.1224
 3570TIP3   OH234904   1.934   4.334  17.252 -0.3125 -0.4525  0.1649
 3570TIP3    H134905   1.941   4.416  17.204 -0.0484 -0.4026  0.2895
 3570TIP3    H234906   1.840   4.313  17.250 -0.9018  1.4742  2.8022
 3571TIP3   OH234907   4.584   2.559  19.516  0.4436 -0.0044  0.3794
 3571TIP3    H134908   4.675   2.542  19.539  0.1303 -0.0173  1.6513
 3571TIP3    H234909   4.580   2.544  19.421  2.0358  1.2229  0.0754
 3572TIP3   OH234910   7.262   1.976  18.078 -0.4788 -0.2845 -0.4582
 3572TIP3    H134911   7.294   2.055  18.035  0.7598  0.1885  1.2470
 3572TIP3    H234912   7.249   2.001  18.169  0.1220 -2.0793  0.1586
 3573TIP3   OH234913   7.253   6.388  18.098  0.1532 -0.3080  0.3355
 3573TIP3    H134914   7.277   6.360  18.010  0.6765  0.1327  0.3292
 3573TIP3    H234915   7.160   6.369  18.105  0.1003 -0.3121 -0.3265
 3574TIP3   OH234916   7.358   2.992  19.005  0.5048 -0.3392 -0.3404
 3574TIP3    H134917   7.266   2.965  19.005  0.5942 -0.6908  0.9310
 3574TIP3    H234918   7.403   2.926  18.951  0.3167 -1.3152  0.6651
 3575TIP3   OH234919   3.134   3.693  18.835  0.0957 -0.1469  0.4635
 3575TIP3    H134920   3.047   3.726  18.813  0.9122  1.0878 -1.1940
 3575TIP3    H234921   3.148   3.719  18.926 -1.0048  0.2135  0.5398
 3576TIP3   OH234922   0.076   7.474  18.530  0.7763 -0.1339  0.4090
 3576TIP3    H134923   0.138   7.546  18.535  0.2682  0.3409  0.0207
 3576TIP3    H234924   0.004   7.500  18.588  1.2788 -1.0362  1.4783
 3577TIP3   OH234925   7.317   3.556  17.159 -0.5678  0.1933  0.5398
 3577TIP3    H134926   7.355   3.642  17.139 -1.2163  0.5884  0.9314
 3577TIP3    H234927   7.223   3.568  17.143 -0.4844 -0.8853 -0.8413
 3578TIP3   OH234928   0.601   4.060  19.418 -0.6671 -0.0874 -0.1706
 3578TIP3    H134929   0.651   4.026  19.492 -0.8322 -0.0084 -0.0194
 3578TIP3    H234930   0.516   4.016  19.425 -0.7162 -0.0062 -0.2571
 3579TIP3   OH234931   6.849   6.771  18.678  0.0219 -0.2101  0.6678
 3579TIP3    H134932   6.860   6.855  18.634  0.2475  0.1229  1.3379
 3579TIP3    H234933   6.755   6.753  18.672 -0.0793  0.2547  0.8047
 3580TIP3   OH234934   7.525   4.583  17.371 -0.3073 -0.0642  0.6464
 3580TIP3    H134935   7.476   4.519  17.423  1.2146 -1.4310  0.4867
 3580TIP3    H234936   7.606   4.538  17.349  0.9777  2.0518  0.7961
 3581TIP3   OH234937   3.812   0.826  17.883 -0.2758 -0.6622 -0.8422
 3581TIP3    H134938   3.871   0.753  17.902 -0.6921 -1.2931 -1.8940
 3581TIP3    H234939   3.870   0.897  17.853  0.3061  0.0597  1.7535
 3582TIP3   OH234940   6.685   2.172  18.274  0.4620 -0.4543 -0.2064
 3582TIP3    H134941   6.697   2.082  18.244  0.2785 -0.3258 -0.6705
 3582TIP3    H234942   6.736   2.224  18.212  3.1686 -0.4659  1.8219
 3583TIP3   OH234943   2.374   3.364  17.285 -0.1536  0.3575 -0.3384
 3583TIP3    H134944   2.452   3.404  17.323 -0.6909  1.6122 -0.4902
 3583TIP3    H234945   2.405   3.319  17.207  0.4373  0.7588 -0.3411
 3584TIP3   OH234946   3.954   1.295  17.517  0.8949 -0.7411 -0.6542
 3584TIP3    H134947   3.993   1.256  17.440  2.1423 -2.4078  0.7375
 3584TIP3    H234948   4.023   1.293  17.583  0.4576  2.2732  0.0566
 3585TIP3   OH234949   4.405   1.944  19.063 -0.3140  0.4705  0.6723
 3585TIP3    H134950   4.396   1.868  19.120  1.0958  0.7347  1.3066
 3585TIP3    H234951   4.318   1.959  19.027 -0.0844 -3.3739 -2.0242
 3586TIP3   OH234952   6.378   3.171  18.821 -0.7231  0.1441  0.1957
 3586TIP3    H134953   6.335   3.255  18.833 -1.4533 -0.3981  1.6335
 3586TIP3    H234954   6.306   3.109  18.805 -0.2707 -0.3386 -0.0162
 3587TIP3   OH234955   0.849   2.188  18.633  0.3012  0.2796 -0.3186
 3587TIP3    H134956   0.917   2.241  18.677  0.2096  0.3737 -0.2917
 3587TIP3    H234957   0.790   2.161  18.704  1.1550 -1.0974 -0.0917
 3588TIP3   OH234958   3.051   4.544  19.392 -0.2493 -0.3953 -0.3106
 3588TIP3    H134959   2.977   4.574  19.445 -1.9008  0.4086 -2.8549
 3588TIP3    H234960   3.125   4.596  19.422 -0.9085 -0.4619  1.6039
 3589TIP3   OH234961   4.990   6.342  18.327  0.1385  0.2839  0.0512
 3589TIP3    H134962   5.073   6.362  18.369 -0.1609  0.3182  0.6424
 3589TIP3    H234963   4.980   6.409  18.260 -0.2793  1.4409  1.2088
 3590TIP3   OH234964   4.110   5.495  17.174  0.6156  0.6070  0.8235
 3590TIP3    H134965   4.114   5.589  17.155 -0.1934  0.7964  1.5434
 3590TIP3    H234966   4.123   5.489  17.269  2.0069 -0.1241  0.6235
 3591TIP3   OH234967   0.044   0.803  17.831 -0.5850  0.0950  0.2445
 3591TIP3    H134968   0.025   0.877  17.888 -0.8603 -0.2088  0.5453
 3591TIP3    H234969  -0.005   0.730  17.868  2.3350 -1.1369  1.9953
 3592TIP3   OH234970   2.585   4.994  18.696 -0.1348 -0.3016  0.4722
 3592TIP3    H134971   2.581   4.917  18.639  1.6007  0.3575 -0.5988
 3592TIP3    H234972   2.656   4.975  18.757  0.6613  0.6439 -0.1381
 3593TIP3   OH234973   7.223   6.726  18.411  0.3606 -0.0510 -0.0849
 3593TIP3    H134974   7.178   6.810  18.425 -0.0730 -0.5184  1.4438
 3593TIP3    H234975   7.273   6.712  18.490  1.1478 -0.8231 -0.7083
 3594TIP3   OH234976   0.113   6.413  19.164 -0.0725 -0.0212  0.0924
 3594TIP3    H134977   0.195   6.455  19.138  0.2274 -0.0609  0.9458
 3594TIP3    H234978   0.135   6.365  19.244 -1.0749  0.4944  0.6963
 3595TIP3   OH234979   3.271   4.048  17.021  0.3768  0.0141  0.5616
 3595TIP3    H134980   3.303   4.072  16.934  0.8496 -1.1368  0.4024
 3595TIP3    H234981   3.347   4.011  17.066 -0.0406 -0.0802  1.2097
 3596TIP3   OH234982   5.427   1.381  17.369 -0.9163 -0.4627  0.0375
 3596TIP3    H134983   5.514   1.406  17.339 -0.0289 -0.9329  2.0468
 3596TIP3    H234984   5.385   1.464  17.392 -0.2072 -0.3502  1.0089
 3597TIP3   OH234985   2.788   1.637  17.307 -0.1121 -0.0677 -0.0743
 3597TIP3    H134986   2.722   1.632  17.238  1.4646 -2.2933 -1.5522
 3597TIP3    H234987   2.869   1.608  17.265  1.2642  0.0680  2.3143
 3598TIP3   OH234988   1.401   3.724  17.512 -0.3450 -0.2024 -0.3436
 3598TIP3    H134989   1.380   3.781  17.438 -1.2517  0.2889  0.2642
 3598TIP3    H234990   1.471   3.771  17.558 -1.2985  0.6067  0.3268
 3599TIP3   OH234991   3.687   3.326  17.598  0.4567 -0.0300 -0.0560
 3599TIP3    H134992   3.707   3.367  17.682  0.2941 -0.2955  0.1145
 3599TIP3    H234993   3.720   3.388  17.532 -1.9446  1.5712  0.1158
 3600TIP3   OH234994   0.123   2.719  19.395  0.4867  0.3266  0.4058
 3600TIP3    H134995   0.116   2.813  19.414  0.6937  0.6185 -0.8551
 3600TIP3    H234996   0.074   2.708  19.313  1.3484 -0.4682 -0.0177
 3601TIP3   OH234997   3.440   6.977  17.172  0.0381  0.5399 -0.2156
 3601TIP3    H134998   3.382   6.995  17.098  0.3551 -0.3974 -0.7008
 3601TIP3    H234999   3.444   6.882  17.177  1.5971  0.5854 -0.2281
 3602TIP3   OH235000   0.635   1.486  18.285 -0.1929  0.3733 -0.4227
 3602TIP3    H135001   0.642   1.424  18.358 -2.3128 -1.6715 -1.8093
 3602TIP3    H235002   0.720   1.530  18.283  1.8932 -3.1984  0.0812
 3603TIP3   OH235003   2.510   5.343  17.135  0.1739  0.4944  0.0414
 3603TIP3    H135004   2.600   5.373  17.152  0.0604 -0.0522  1.8587
 3603TIP3    H235005   2.515   5.301  17.049  2.1727 -1.3451  0.9499
 3604TIP3   OH235006   7.524   5.136  18.823 -0.3643  0.1488  0.1880
 3604TIP3    H135007   7.469   5.157  18.899  1.9102  2.0669  1.4835
 3604TIP3    H235008   7.479   5.176  18.749 -1.8893 -0.4599  0.7419
 3605TIP3   OH235009   0.650   1.836  18.759  0.1216  0.2437 -0.3500
 3605TIP3    H135010   0.673   1.922  18.795  0.6190  1.8036 -3.9216
 3605TIP3    H235011   0.718   1.777  18.792 -0.1585  1.1630  2.0865
 3606TIP3   OH235012   0.783   7.000  17.516  0.3807 -0.0746 -0.3697
 3606TIP3    H135013   0.863   7.052  17.512  0.9544 -0.8678  0.3392
 3606TIP3    H235014   0.723   7.053  17.569  0.6503  0.2524 -0.3892
 3607TIP3   OH235015   7.075   1.604  18.093  0.1884  0.2847 -0.7395
 3607TIP3    H135016   7.024   1.605  18.174  0.8433 -0.2064 -0.3148
 3607TIP3    H235017   7.095   1.696  18.076 -0.1663  0.4113 -0.4819
 3608TIP3   OH235018   1.888   5.260  19.203 -0.1163 -0.5545 -0.0681
 3608TIP3    H135019   1.877   5.296  19.115  2.3107 -0.6502 -0.4956
 3608TIP3    H235020   1.860   5.330  19.261 -0.1600  0.1569 -0.9265
 3609TIP3   OH235021   7.506   7.048  19.419  0.1827  0.0146 -0.2748
 3609TIP3    H135022   7.507   7.012  19.508  0.3217 -0.0006 -0.2830
 3609TIP3    H235023   7.578   7.110  19.417  1.8729 -1.8439 -1.1522
 3610TIP3   OH235024   0.188   1.149  18.709  0.4911  0.5543  0.5358
 3610TIP3    H135025   0.108   1.189  18.743 -0.9969 -2.0986  0.4278
 3610TIP3    H235026   0.178   1.151  18.614  1.1376  1.2436  0.4682
 3611TIP3   OH235027   7.418   1.489  17.098 -0.2643 -0.1018  0.2269
 3611TIP3    H135028   7.362   1.514  17.025 -0.1201  1.2172  0.5330
 3611TIP3    H235029   7.436   1.572  17.143 -0.4882 -0.8958  1.8472
 3612TIP3   OH235030   1.673   4.301  17.212  0.0818  0.7672 -0.5414
 3612TIP3    H135031   1.620   4.367  17.256 -1.3340 -0.0202 -1.0244
 3612TIP3    H235032   1.616   4.265  17.145 -0.2656 -2.9756  1.5061
 3613TIP3   OH235033   3.166   6.080  18.191 -0.4529  0.0135  0.3887
 3613TIP3    H135034   3.238   6.047  18.246  0.3789  0.1328 -0.6084
 3613TIP3    H235035   3.115   6.136  18.250  1.4847  1.6531  0.5955
 3614TIP3   OH235036   3.999   2.065  17.600 -0.3054 -0.1895  0.3288
 3614TIP3    H135037   4.027   1.999  17.537  1.7287  0.2167  0.7385
 3614TIP3    H235038   4.015   2.148  17.556 -1.2903  0.0658  0.4386
 3615TIP3   OH235039   0.921   6.247  19.096 -0.3965 -0.1718  0.7011
 3615TIP3    H135040   0.874   6.331  19.095 -0.2003 -0.0673 -0.0496
 3615TIP3    H235041   1.013   6.272  19.088 -0.1559 -0.3571  2.4378
 3616TIP3   OH235042   5.026   6.845  19.246 -0.1585  0.0734 -0.4520
 3616TIP3    H135043   4.988   6.888  19.322  1.4461  1.7748 -0.5432
 3616TIP3    H235044   5.118   6.831  19.269  0.1317 -0.2586 -1.7133
 3617TIP3   OH235045   1.206   7.567  17.261 -0.0653  0.3057 -0.2025
 3617TIP3    H135046   1.267   7.611  17.202  0.1531 -0.9373 -0.9328
 3617TIP3    H235047   1.188   7.483  17.219 -1.3855  0.1718  0.5726
 3618TIP3   OH235048   1.303   5.311  18.425 -0.0282  0.1954 -0.5230
 3618TIP3    H135049   1.211   5.296  18.445  0.0730  0.9295  0.5954
 3618TIP3    H235050   1.342   5.224  18.421 -0.6229 -0.0823 -0.2980
 3619TIP3   OH235051   0.349   5.795  17.936  0.6169  0.0987  0.0415
 3619TIP3    H135052   0.318   5.713  17.899  1.5218  0.4811 -1.6572
 3619TIP3    H235053   0.314   5.796  18.025 -0.6844 -1.3989 -0.4133
 3620TIP3   OH235054   5.202   4.999  19.195  0.0956  0.5632 -0.5571
 3620TIP3    H135055   5.161   4.915  19.215 -1.0933  1.2725  0.1041
 3620TIP3    H235056   5.129   5.061  19.190  0.9878  1.6553 -0.5018
 3621TIP3   OH235057   1.172   1.522  17.487 -0.4474 -0.0230  0.3099
 3621TIP3    H135058   1.127   1.473  17.419 -0.3450  0.1726  0.1018
 3621TIP3    H235059   1.147   1.478  17.569 -2.6098  1.2364  0.4170
 3622TIP3   OH235060   1.219   6.347  18.106 -0.1087  0.4670  0.0000
 3622TIP3    H135061   1.169   6.346  18.188  3.4632 -0.3119  2.3744
 3622TIP3    H235062   1.259   6.434  18.103  0.9920 -0.0277 -0.1006
 3623TIP3   OH235063   6.891   5.612  18.110 -0.1441  0.5768 -0.3588
 3623TIP3    H135064   6.841   5.532  18.127 -0.3724  0.7707 -0.1163
 3623TIP3    H235065   6.842   5.657  18.041  0.6985 -0.1330 -1.4536
 3624TIP3   OH235066   6.121   3.298  18.044 -0.1094 -0.2903 -0.3342
 3624TIP3    H135067   6.157   3.264  17.962  1.3913 -1.2862  0.6773
 3624TIP3    H235068   6.122   3.393  18.033  1.0665 -0.3691 -1.0868
 3625TIP3   OH235069   5.775   4.823  17.931 -0.4169 -0.2992 -0.4298
 3625TIP3    H135070   5.680   4.821  17.941 -0.6097  0.3516 -1.8649
 3625TIP3    H235071   5.795   4.744  17.880 -0.6032  1.1237 -2.8463
 3626TIP3   OH235072   5.127   3.942  19.342  0.2406 -0.0948  0.1467
 3626TIP3    H135073   5.147   3.881  19.413  0.8636 -1.2336 -0.9812
 3626TIP3    H235074   5.213   3.971  19.310 -0.0391  0.7673  0.1374
 3627TIP3   OH235075   5.774   1.095  18.681  0.0700 -0.0355 -0.1517
 3627TIP3    H135076   5.740   1.010  18.711 -0.6860  0.8399  1.6364
 3627TIP3    H235077   5.800   1.080  18.591 -0.5407 -2.0381 -0.0434
 3628TIP3   OH235078   2.576   0.345  19.273 -0.1854  0.4374  0.2114
 3628TIP3    H135079   2.599   0.253  19.283  1.5502  0.4367 -2.7754
 3628TIP3    H235080   2.480   0.346  19.277 -0.2226 -1.4163  0.6734
 3629TIP3   OH235081   4.600   2.599  18.014  0.1354 -0.2505  0.5526
 3629TIP3    H135082   4.662   2.552  18.069 -0.0834  0.5065  1.4778
 3629TIP3    H235083   4.534   2.632  18.075  0.1492  1.0287 -0.0800
 3630TIP3   OH235084   6.061   2.538  17.156  0.5928 -0.5552  0.4165
 3630TIP3    H135085   6.015   2.607  17.108  1.0734  0.1454  0.9455
 3630TIP3    H235086   6.015   2.457  17.133  0.0420 -0.0628 -0.2333
 3631TIP3   OH235087   5.907   1.836  18.404  0.0518  0.2615 -0.2743
 3631TIP3    H135088   5.965   1.863  18.476 -0.2428  2.1155 -0.6789
 3631TIP3    H235089   5.820   1.862  18.433  0.0352  1.8533 -1.6360
 3632TIP3   OH235090   6.523   7.618  17.890 -0.5165  0.1824  0.3292
 3632TIP3    H135091   6.603   7.669  17.877  0.7304 -1.7521  0.1699
 3632TIP3    H235092   6.481   7.615  17.804 -0.1254  0.1631  0.1402
 3633TIP3   OH235093   5.715   1.174  18.989  0.1257  0.3275 -0.1454
 3633TIP3    H135094   5.761   1.143  19.067 -0.4901 -1.0490 -0.3016
 3633TIP3    H235095   5.715   1.100  18.930 -1.4242  0.5933 -0.5419
 3634TIP3   OH235096   0.857   1.844  18.540 -0.0679  0.1656 -0.0973
 3634TIP3    H135097   0.826   1.759  18.509 -0.2304  0.2409 -0.1419
 3634TIP3    H235098   0.794   1.869  18.608  0.7164 -0.3536  0.8495
 3635TIP3   OH235099   7.550   5.211  17.636  0.1622  0.0709 -0.2848
 3635TIP3    H135100   7.509   5.286  17.678  1.0661  0.1223  0.5305
 3635TIP3    H235101   7.477   5.163  17.597 -0.8508 -0.5068  2.1546
 3636TIP3   OH235102   1.412   2.198  16.825 -0.1218 -0.2441  0.7303
 3636TIP3    H135103   1.501   2.209  16.794  0.0539 -0.5712  1.1099
 3636TIP3    H235104   1.373   2.285  16.817 -0.5051 -0.5820 -1.6519
 3637TIP3   OH235105   2.304   0.275  18.163  0.1659  0.8260  0.5902
 3637TIP3    H135106   2.240   0.204  18.153  0.6207  0.5954 -1.1166
 3637TIP3    H235107   2.256   0.354  18.138  0.6166  0.5906 -1.1657
 3638TIP3   OH235108   2.102   6.631  18.520 -0.7073 -0.0882 -0.0361
 3638TIP3    H135109   2.008   6.636  18.535 -1.0608 -0.9057 -1.7784
 3638TIP3    H235110   2.122   6.708  18.467  0.2166  1.8033  2.8281
 3639TIP3   OH235111   0.410   6.351  17.473  0.4141 -0.0768 -0.4876
 3639TIP3    H135112   0.455   6.273  17.442  2.7080  0.5300  1.0726
 3639TIP3    H235113   0.478   6.419  17.475 -1.1467  1.5720 -0.3350
 3640TIP3   OH235114   0.081   3.308  17.042  0.0614 -0.0088 -0.2558
 3640TIP3    H135115   0.026   3.243  16.998 -1.2764  1.3423 -0.6665
 3640TIP3    H235116   0.115   3.262  17.118 -1.0312 -1.1355 -0.4036
 3641TIP3   OH235117   6.194   5.280  16.975  0.5557  0.3506 -0.5040
 3641TIP3    H135118   6.116   5.329  17.001 -0.0584 -1.3379  1.1030
 3641TIP3    H235119   6.255   5.346  16.943 -1.2876  1.7882 -1.2114
 3642TIP3   OH235120   3.405   3.433  17.703  0.2242 -0.0065 -0.1798
 3642TIP3    H135121   3.407   3.379  17.782  1.1277  2.1903  1.4044
 3642TIP3    H235122   3.467   3.391  17.643 -0.5818 -1.7878  0.1862
 3643TIP3   OH235123   3.917   5.701  17.772 -0.1446  0.1546  0.1739
 3643TIP3    H135124   3.988   5.758  17.801 -1.9659  1.4970  2.3237
 3643TIP3    H235125   3.881   5.746  17.695  1.0738 -0.3903 -0.7544
 3644TIP3   OH235126   7.069   4.852  19.626 -0.0047 -0.0664  0.2635
 3644TIP3    H135127   6.993   4.887  19.580  0.1083 -1.6688 -1.2403
 3644TIP3    H235128   7.110   4.928  19.667 -1.2607  1.1209 -0.6161
 3645TIP3   OH235129   4.891   2.645  17.893 -0.1277  0.0720  0.4615
 3645TIP3    H135130   4.978   2.666  17.928  0.5273  0.6118 -1.3973
 3645TIP3    H235131   4.830   2.690  17.953  0.7813 -0.9674  2.2612
 3646TIP3   OH235132   7.505   2.908  17.727 -0.2430  0.0960  1.0620
 3646TIP3    H135133   7.413   2.884  17.726  0.1081 -1.3470  0.7223
 3646TIP3    H235134   7.546   2.847  17.789  0.4292  0.9552  1.4917
 3647TIP3   OH235135   3.145   6.098  19.171 -0.4682  0.1443  0.6100
 3647TIP3    H135136   3.052   6.101  19.195 -1.3031  0.0311 -2.1992
 3647TIP3    H235137   3.167   6.189  19.151 -0.7294 -0.1262 -1.0601
 3648TIP3   OH235138   0.938   1.899  18.898  0.4052 -0.2485  0.3835
 3648TIP3    H135139   0.925   1.832  18.830 -0.8843 -1.1633  1.4921
 3648TIP3    H235140   1.027   1.932  18.881  0.7713 -1.6637 -0.7014
 3649TIP3   OH235141   3.086   0.307  18.864 -0.2853  0.0264 -0.1173
 3649TIP3    H135142   3.008   0.308  18.919 -0.6064  0.7153 -0.5759
 3649TIP3    H235143   3.057   0.269  18.781 -0.0727  0.0459 -0.2011
 3650TIP3   OH235144   4.228   5.558  17.507 -0.0904  0.1033 -0.3224
 3650TIP3    H135145   4.195   5.632  17.456 -0.6990 -0.4587 -0.7483
 3650TIP3    H235146   4.163   5.489  17.496 -0.5426  0.1391  1.6737
 3651TIP3   OH235147   3.544   0.461  18.612 -1.1994 -0.3758  0.0993
 3651TIP3    H135148   3.482   0.418  18.554 -2.3641  0.3429  0.7508
 3651TIP3    H235149   3.535   0.554  18.592  1.4542 -0.3681 -1.4672
 3652TIP3   OH235150   7.585   4.886  18.306  0.2945  0.2204  0.0927
 3652TIP3    H135151   7.580   4.799  18.266  0.4774  0.0351  0.4638
 3652TIP3    H235152   7.608   4.944  18.234 -2.1524  0.3526 -0.6613
 3653TIP3   OH235153   6.691   7.375  18.886 -1.3071 -0.7505 -0.3680
 3653TIP3    H135154   6.722   7.292  18.922 -2.5288 -1.3094 -0.5657
 3653TIP3    H235155   6.611   7.394  18.936 -2.4675 -1.0215 -2.0532
 3654TIP3   OH235156   6.709   2.994  17.712  0.1812  0.3044  0.6484
 3654TIP3    H135157   6.666   3.039  17.640  0.0225 -0.5346  0.2056
 3654TIP3    H235158   6.780   3.052  17.738  0.5491  0.3852 -0.5114
 3655TIP3   OH235159   5.197   2.976  17.270 -0.0420 -0.2603 -0.0697
 3655TIP3    H135160   5.259   2.979  17.343 -1.1071  0.0611  0.8522
 3655TIP3    H235161   5.252   2.966  17.192  1.1969  0.6348  0.6586
 3656TIP3   OH235162   6.942   5.045  17.392  0.0078 -0.5590 -0.5850
 3656TIP3    H135163   7.028   5.004  17.401 -0.4159 -1.4309 -0.4005
 3656TIP3    H235164   6.920   5.035  17.299  0.8820  1.2999 -1.0472
 3657TIP3   OH235165   5.329   2.945  17.035 -0.0935  0.0058  0.0751
 3657TIP3    H135166   5.256   2.936  16.974 -1.4894  0.9423  1.5250
 3657TIP3    H235167   5.367   3.031  17.014 -1.0127  0.6445  0.9249
 3658TIP3   OH235168   4.890   5.298  17.806 -0.0860 -0.0809 -0.0389
 3658TIP3    H135169   4.819   5.240  17.831  0.1421 -1.1119 -1.6522
 3658TIP3    H235170   4.933   5.254  17.733  1.1257  1.3488 -0.2458
 3659TIP3   OH235171   4.449   3.490  17.283 -0.3504 -0.1349 -0.4171
 3659TIP3    H135172   4.391   3.414  17.290  0.0505 -0.5181 -1.1374
 3659TIP3    H235173   4.537   3.454  17.294 -0.2631  0.5772  1.6068
 3660TIP3   OH235174   4.128   4.739  17.433  0.1518 -0.0440 -0.2826
 3660TIP3    H135175   4.137   4.809  17.498  1.4283  1.0057 -1.5205
 3660TIP3    H235176   4.036   4.715  17.435  0.0540  0.3909  1.4623
 3661TIP3   OH235177   1.641   1.933  19.053 -0.1672 -0.4333 -0.1279
 3661TIP3    H135178   1.702   1.893  18.991  1.2374  0.0134  0.9187
 3661TIP3    H235179   1.696   1.983  19.112 -1.6064  0.3605  0.5949
 3662TIP3   OH235180   5.473   3.890  16.507 -0.4747  0.2120 -0.4382
 3662TIP3    H135181   5.478   3.871  16.600 -3.1296  1.3297  0.0366
 3662TIP3    H235182   5.555   3.857  16.471 -0.2110 -2.0682  1.9377
 3663TIP3   OH235183   2.966   2.812  19.085 -0.0428 -0.1904  0.1524
 3663TIP3    H135184   2.922   2.761  19.153 -0.9494 -0.3832 -0.5460
 3663TIP3    H235185   3.004   2.746  19.027  0.3797 -0.0338  0.2485
 3664TIP3   OH235186   1.435   1.522  18.453 -0.2324  0.2730 -0.2646
 3664TIP3    H135187   1.499   1.577  18.408  0.4353 -1.1174 -1.0590
 3664TIP3    H235188   1.453   1.536  18.546  1.4566 -0.3274 -0.4704
 3665TIP3   OH235189   2.744   1.089  18.368  0.5016  0.0100  0.6291
 3665TIP3    H135190   2.687   1.127  18.301  0.1500 -0.2848  0.7500
 3665TIP3    H235191   2.721   1.136  18.448 -0.1412 -0.6341  0.8388
 3666TIP3   OH235192   3.963   0.188  19.030  0.1490  0.3523 -0.0954
 3666TIP3    H135193   3.929   0.103  19.056  0.5844  1.0117  2.9109
 3666TIP3    H235194   4.058   0.176  19.025  0.0582  0.0726 -2.3469
 3667TIP3   OH235195   2.833   6.243  18.177  0.8694 -0.5859 -0.5304
 3667TIP3    H135196   2.887   6.197  18.241 -1.5713 -2.1854  0.5313
 3667TIP3    H235197   2.794   6.173  18.125 -1.1873  0.3681 -0.3742
 3668TIP3   OH235198   1.869   3.693  18.029 -0.2407  0.1419 -0.5452
 3668TIP3    H135199   1.865   3.607  17.988 -0.6341 -0.2201  0.2425
 3668TIP3    H235200   1.852   3.677  18.121 -0.4993  1.0872 -0.4174
 3669TIP3   OH235201   3.058   2.124  17.642  0.1016 -0.2797 -0.3653
 3669TIP3    H135202   3.017   2.210  17.632  1.5908  0.7449  1.6295
 3669TIP3    H235203   3.009   2.081  17.712  0.3401 -0.3898 -0.2605
 3670TIP3   OH235204   5.543   3.036  18.738  0.1268 -0.8210 -0.2656
 3670TIP3    H135205   5.614   2.971  18.745  1.2834  0.1061 -2.4321
 3670TIP3    H235206   5.588   3.118  18.718 -1.5290 -0.1105 -1.2831
 3671TIP3   OH235207   6.475   1.839  18.562 -0.2291  0.0277 -0.2692
 3671TIP3    H135208   6.511   1.901  18.625 -1.7348 -1.1581  1.9192
 3671TIP3    H235209   6.550   1.809  18.511  1.4780 -0.4512  2.3302
 3672TIP3   OH235210   3.799   2.082  16.885 -0.2703  0.8946  0.3788
 3672TIP3    H135211   3.733   2.023  16.923  0.2506  0.5223  0.7177
 3672TIP3    H235212   3.788   2.164  16.934 -0.5549  0.8709  0.3575
 3673TIP3   OH235213   5.555   3.710  19.069 -0.4378 -0.3550 -0.0633
 3673TIP3    H135214   5.639   3.700  19.023 -0.6088  0.4375 -0.5663
 3673TIP3    H235215   5.579   3.746  19.154 -0.0399 -2.6077  0.8554
 3674TIP3   OH235216   3.264   2.612  18.000 -0.0399 -0.2462  0.0870
 3674TIP3    H135217   3.333   2.563  18.044  1.4512  0.5316 -1.3045
 3674TIP3    H235218   3.268   2.584  17.908 -2.1100 -0.7500  0.0858
 3675TIP3   OH235219   0.881   7.466  18.399  0.5014  0.1928  0.1244
 3675TIP3    H135220   0.826   7.545  18.399  0.8946  0.5510  3.0437
 3675TIP3    H235221   0.829   7.401  18.446  0.9637 -0.7542 -0.6363
 3676TIP3   OH235222   1.702   7.199  18.304 -0.0963 -0.7035 -0.0138
 3676TIP3    H135223   1.669   7.117  18.343 -0.7594  0.0074  1.0014
 3676TIP3    H235224   1.637   7.221  18.237 -0.1624 -0.7825  0.0230
 3677TIP3   OH235225   2.058   0.787  19.085 -0.0405 -0.0834 -0.2946
 3677TIP3    H135226   2.045   0.716  19.148  1.8466 -0.6876 -0.5290
 3677TIP3    H235227   2.027   0.865  19.130  1.5880 -0.4381  1.5794
 3678TIP3   OH235228   3.191   1.394  18.216 -0.3185 -0.1327  0.2683
 3678TIP3    H135229   3.240   1.445  18.152 -0.9953  0.1858 -0.0042
 3678TIP3    H235230   3.113   1.364  18.168 -0.4027 -0.6173  0.6946
 3679TIP3   OH235231   5.591   6.150  18.677  0.2379 -0.2258 -0.5907
 3679TIP3    H135232   5.516   6.096  18.654  0.6990 -1.3459  0.3867
 3679TIP3    H235233   5.650   6.090  18.724  1.0792  0.9712 -0.0611
 3680TIP3   OH235234   1.641   1.598  18.960  0.5494 -0.6015 -0.1343
 3680TIP3    H135235   1.707   1.664  18.939 -1.0159  1.0231 -0.1623
 3680TIP3    H235236   1.648   1.588  19.055 -0.2598  0.8427  0.1076
 3681TIP3   OH235237   5.203   2.544  18.983  0.2660 -0.0030  0.1585
 3681TIP3    H135238   5.219   2.594  19.062 -0.9204  0.6584  0.0065
 3681TIP3    H235239   5.206   2.452  19.012  0.8409  0.1974  0.7547
 3682TIP3   OH235240   6.182   2.311  19.246 -0.0085 -0.4561  0.4251
 3682TIP3    H135241   6.275   2.298  19.229 -0.3341 -0.4161 -1.6862
 3682TIP3    H235242   6.142   2.228  19.223 -0.3894 -0.9001  2.5688
 3683TIP3   OH235243   2.874   4.200  18.235 -0.1781 -0.1118  0.7901
 3683TIP3    H135244   2.909   4.111  18.236  0.2173 -0.0157 -0.8969
 3683TIP3    H235245   2.880   4.229  18.326  1.5237 -1.1163  1.0539
 3684TIP3   OH235246   0.556   7.006  18.141  0.0985  0.1873 -0.6596
 3684TIP3    H135247   0.484   6.968  18.090 -0.5378  2.5574 -1.6610
 3684TIP3    H235248   0.628   7.014  18.078 -0.0628  1.3558 -0.7195
 3685TIP3   OH235249   7.263   6.965  16.828  0.0461  0.3003  0.6073
 3685TIP3    H135250   7.188   6.965  16.887  0.8919 -2.1309  1.7899
 3685TIP3    H235251   7.339   6.953  16.885  1.1468  0.4687 -0.7619
 3686TIP3   OH235252   3.962   6.326  17.510 -0.7864 -0.1574  0.2901
 3686TIP3    H135253   3.959   6.418  17.483  0.2665 -1.0179 -3.3036
 3686TIP3    H235254   4.045   6.317  17.556 -0.8423  0.6361  0.5614
 3687TIP3   OH235255   6.914   0.471  16.678  0.2971 -0.2309 -0.1150
 3687TIP3    H135256   6.952   0.508  16.759  1.3176 -3.0282  0.8040
 3687TIP3    H235257   6.976   0.402  16.653 -0.3950  0.0864 -2.9252
 3688TIP3   OH235258   4.845   2.438  19.151  0.0035 -0.3427 -0.2992
 3688TIP3    H135259   4.882   2.372  19.094  1.5918 -1.0934  1.4911
 3688TIP3    H235260   4.855   2.402  19.239  0.4749  2.0507  0.7069
 3689TIP3   OH235261   7.138   0.255  16.956 -0.2823  0.0332  0.0342
 3689TIP3    H135262   7.125   0.168  16.994 -0.9919 -0.5624 -1.4771
 3689TIP3    H235263   7.105   0.247  16.866  1.5199  1.2914 -0.8113
 3690TIP3   OH235264   2.055   5.225  17.605 -0.3287  0.6569 -0.7627
 3690TIP3    H135265   2.079   5.259  17.691 -0.7073 -0.6538 -0.1244
 3690TIP3    H235266   2.137   5.192  17.568 -0.5595 -1.1198  0.1916
 3691TIP3   OH235267   4.712   2.995  19.329 -0.0473  0.0801 -0.7028
 3691TIP3    H135268   4.672   2.954  19.253  0.5329  0.4561 -1.2204
 3691TIP3    H235269   4.672   2.950  19.404 -0.4507 -0.4552 -1.2251
 3692TIP3   OH235270   2.548   3.461  18.160 -0.0244  0.0681 -0.0096
 3692TIP3    H135271   2.563   3.404  18.235  1.0003 -0.4348 -0.5832
 3692TIP3    H235272   2.520   3.545  18.198 -1.0848 -0.6467  0.8546
 3693TIP3   OH235273   2.901   7.449  17.304 -0.3970 -0.4414  0.1472
 3693TIP3    H135274   2.907   7.536  17.344 -0.1320 -0.8886  1.0976
 3693TIP3    H235275   2.976   7.445  17.245 -0.9430  0.3251 -0.6407
 3694TIP3   OH235276   1.839   4.379  18.633 -0.2751 -0.3371  0.2331
 3694TIP3    H135277   1.915   4.434  18.616  0.8890 -2.0246 -0.2762
 3694TIP3    H235278   1.831   4.377  18.728  0.3702 -0.2331  0.2899
 3695TIP3   OH235279   6.878   0.935  17.432  0.5186 -0.4108  0.1567
 3695TIP3    H135280   6.894   0.950  17.525 -0.4748  0.1812  0.2438
 3695TIP3    H235281   6.783   0.939  17.423  0.4971 -1.9199 -0.6487
 3696TIP3   OH235282   6.668   5.635  18.441 -0.1557  0.1328  0.0882
 3696TIP3    H135283   6.681   5.562  18.380 -1.0703  2.2399 -2.8298
 3696TIP3    H235284   6.742   5.693  18.424 -1.1077  1.3534  0.0009
 3697TIP3   OH235285   2.262   1.096  18.604  0.0103  0.6105 -0.2941
 3697TIP3    H135286   2.194   1.029  18.611 -0.6919  1.2977 -0.2948
 3697TIP3    H235287   2.339   1.050  18.572  0.0450 -0.5120  1.2981
 3698TIP3   OH235288   5.694   4.123  17.725  0.3837  0.1802 -0.2953
 3698TIP3    H135289   5.708   4.028  17.718  0.9167  0.2522 -0.2689
 3698TIP3    H235290   5.660   4.136  17.813 -2.8637 -0.3296 -1.3153
 3699TIP3   OH235291   6.494   5.957  17.315  0.2686  0.6202 -1.0926
 3699TIP3    H135292   6.516   5.864  17.303 -0.3596  0.5504 -1.7625
 3699TIP3    H235293   6.430   5.957  17.386  0.1432  0.5211 -1.2048
 3700TIP3   OH235294   4.981   3.294  18.045 -0.2878 -0.0581 -0.3549
 3700TIP3    H135295   5.049   3.333  18.099 -1.4257  1.1374  0.2712
 3700TIP3    H235296   4.904   3.349  18.059 -1.8087 -2.1758  0.0673
 3701TIP3   OH235297   6.168   0.002  17.015 -0.5279 -0.3483 -0.1736
 3701TIP3    H135298   6.171  -0.088  17.048 -0.5022 -0.0606  0.6377
 3701TIP3    H235299   6.075   0.017  16.998 -0.2293 -1.7091 -3.7742
 3702TIP3   OH235300   3.336   3.641  19.080  0.4546 -0.0971  1.1990
 3702TIP3    H135301   3.389   3.583  19.025  1.5440  1.9177 -0.0014
 3702TIP3    H235302   3.276   3.583  19.126 -0.2099 -1.9741 -1.7766
 3703TIP3   OH235303   6.473   3.676  18.618 -0.3362 -0.2114 -0.2023
 3703TIP3    H135304   6.557   3.670  18.573 -0.4174  0.0196 -0.3932
 3703TIP3    H235305   6.424   3.600  18.586  0.1916 -0.9706  0.7624
 3704TIP3   OH235306   7.525   2.788  17.479 -0.0323  0.1731 -0.4370
 3704TIP3    H135307   7.485   2.809  17.564 -1.6411 -0.2445 -1.0654
 3704TIP3    H235308   7.455   2.801  17.416  0.4752 -1.7519 -1.4605
 3705TIP3   OH235309   1.461   3.057  18.562 -0.3799 -0.4356  0.4495
 3705TIP3    H135310   1.384   3.113  18.570  0.7575  1.0258  1.6941
 3705TIP3    H235311   1.456   3.022  18.473 -2.4032 -0.3043  0.4619
 3706TIP3   OH235312   7.533   1.672  19.402 -0.3930  0.2099  0.0486
 3706TIP3    H135313   7.470   1.668  19.330 -0.0674 -0.0224 -0.2312
 3706TIP3    H235314   7.540   1.582  19.432  0.0294  0.1803 -0.1259
 3707TIP3   OH235315   1.349   0.423  17.964 -0.0512 -0.7870 -0.0991
 3707TIP3    H135316   1.343   0.455  17.874  0.1793  1.1720  0.5327
 3707TIP3    H235317   1.266   0.451  18.004  0.4547 -0.3461  0.6635
 3708TIP3   OH235318   1.253   0.814  18.882 -0.6567  0.0942 -0.1006
 3708TIP3    H135319   1.208   0.731  18.868 -2.1744  0.8764 -0.0538
 3708TIP3    H235320   1.227   0.842  18.969  0.0620  0.5001 -0.0047
 3709TIP3   OH235321   6.808   7.632  19.024  0.0460 -0.2596 -0.2853
 3709TIP3    H135322   6.764   7.556  18.986  0.7985 -0.7405 -0.2241
 3709TIP3    H235323   6.750   7.662  19.093 -0.5168 -0.4369 -0.6737
 3710TIP3   OH235324   3.887   5.738  18.079 -0.1461 -0.1256 -0.1323
 3710TIP3    H135325   3.806   5.716  18.124  0.1271  1.5789  1.2614
 3710TIP3    H235326   3.861   5.750  17.987 -1.2546 -0.6865  0.0972
 3711TIP3   OH235327   1.839   1.024  18.303 -0.1765 -0.3518 -0.3057
 3711TIP3    H135328   1.841   1.076  18.223  1.0943 -0.8490 -0.6220
 3711TIP3    H235329   1.750   1.034  18.336 -0.1956  1.3509 -0.7895
 3712TIP3   OH235330   4.576   0.420  19.067  0.0509 -0.1763  0.5490
 3712TIP3    H135331   4.622   0.497  19.034  3.3521 -0.7550  3.2376
 3712TIP3    H235332   4.580   0.357  18.996  0.0051  1.0781 -0.6087
 3713TIP3   OH235333   3.045   0.334  17.312 -1.0408 -0.1256 -0.3912
 3713TIP3    H135334   3.134   0.339  17.276 -0.9664 -1.0246 -0.3771
 3713TIP3    H235335   3.048   0.257  17.369 -1.1343  1.2702  1.6105
 3714TIP3   OH235336   5.034   2.960  19.449  0.1432  0.0581  0.0933
 3714TIP3    H135337   4.984   2.979  19.528 -1.5474 -0.9160 -0.6939
 3714TIP3    H235338   5.025   3.039  19.395 -1.5042 -0.4811 -0.4874
 3715TIP3   OH235339   2.607   6.511  18.491 -0.5186 -0.2434 -0.4253
 3715TIP3    H135340   2.656   6.564  18.555 -1.4063 -0.2638  0.2939
 3715TIP3    H235341   2.630   6.420  18.513 -1.9072 -0.3331  0.8287
 3716TIP3   OH235342   6.700   0.453  17.854 -0.3818 -0.0807 -0.4129
 3716TIP3    H135343   6.678   0.529  17.907 -1.8460 -1.1241  0.5723
 3716TIP3    H235344   6.772   0.482  17.799 -1.0959  2.1065 -0.3044
 3717TIP3   OH235345   1.671   5.647  17.966 -0.1776  0.1481  0.0100
 3717TIP3    H135346   1.742   5.584  17.959 -1.1134 -0.7425 -3.0973
 3717TIP3    H235347   1.591   5.595  17.957 -1.1068  1.4218  0.5615
 3718TIP3   OH235348   4.883   3.716  17.478 -0.0028 -0.3924 -0.5149
 3718TIP3    H135349   4.923   3.725  17.565 -2.5945 -1.2103  0.8947
 3718TIP3    H235350   4.904   3.627  17.450  0.7494 -0.1638 -0.6906
 3719TIP3   OH235351   0.072   5.585  17.693 -0.4701 -0.0429 -0.0673
 3719TIP3    H135352   0.122   5.577  17.611 -0.1077 -1.9727  0.2923
 3719TIP3    H235353  -0.009   5.537  17.677 -0.6389  0.0301  0.5313
 3720TIP3   OH235354   4.020   6.750  18.817  0.1558  0.8924  0.4541
 3720TIP3    H135355   3.957   6.679  18.829  2.1400 -1.3486 -1.3465
 3720TIP3    H235356   3.985   6.801  18.745  0.4398 -0.5112 -0.7306
 3721TIP3   OH235357   6.439   0.783  16.532  0.2860  0.2579  0.7022
 3721TIP3    H135358   6.520   0.773  16.482 -0.0886  0.3645  0.0671
 3721TIP3    H235359   6.425   0.877  16.538 -1.6806  0.2813 -2.3492
 3722TIP3   OH235360   2.452   4.260  18.975 -0.1239  0.0065  0.0326
 3722TIP3    H135361   2.481   4.329  19.036 -0.3478 -0.3451  0.5489
 3722TIP3    H235362   2.359   4.277  18.963  0.0062  0.3210 -0.5435
 3723TIP3   OH235363   2.224   4.312  17.438  0.4375  0.0557 -0.1132
 3723TIP3    H135364   2.143   4.329  17.486  0.1569 -0.1163 -0.5126
 3723TIP3    H235365   2.249   4.397  17.402 -0.0652 -0.0498 -0.7406
 3724TIP3   OH235366   6.670   6.057  18.817 -0.1065  0.6121  0.2447
 3724TIP3    H135367   6.755   6.025  18.788 -0.5094 -1.7503  1.4646
 3724TIP3    H235368   6.641   6.114  18.745  1.5918 -0.1340 -1.1134
 3725TIP3   OH235369   0.879   3.240  18.340 -0.0628  0.2220 -0.0931
 3725TIP3    H135370   0.868   3.147  18.358  1.2556  0.4481  2.3390
 3725TIP3    H235371   0.821   3.284  18.402 -1.2873  1.0704 -1.7609
 3726TIP3   OH235372   2.465   4.937  17.460  0.4546 -0.2021 -0.1886
 3726TIP3    H135373   2.500   4.857  17.499  0.6451 -0.4561 -0.8730
 3726TIP3    H235374   2.521   5.007  17.494  0.3490 -0.3627  0.3337
 3727TIP3   OH235375   1.503   0.785  16.927  0.3232 -0.7576  0.2911
 3727TIP3    H135376   1.571   0.807  16.991 -0.2559 -0.9020  0.9703
 3727TIP3    H235377   1.550   0.739  16.857  0.9480 -0.7239  0.6791
 3728TIP3   OH235378   4.758   5.385  16.624  0.3223 -0.3142  0.0840
 3728TIP3    H135379   4.807   5.467  16.620  1.8678 -1.0088  2.5353
 3728TIP3    H235380   4.672   5.411  16.659 -0.3909  0.6095 -2.1694
 3729TIP3   OH235381   3.422   3.445  18.923 -0.2528 -0.2087  0.3073
 3729TIP3    H135382   3.426   3.475  18.832 -1.9421  0.4548  0.4047
 3729TIP3    H235383   3.387   3.357  18.917  0.5601 -0.5388  0.2764
 3730TIP3   OH235384   1.475   3.674  17.911 -0.4886  0.3173 -0.0355
 3730TIP3    H135385   1.545   3.737  17.926  0.1285 -0.2029 -0.6167
 3730TIP3    H235386   1.512   3.613  17.846 -1.4911  0.0576 -0.3828
 3731TIP3   OH235387   7.648   6.825  16.750  0.1787  0.4295 -0.7504
 3731TIP3    H135388   7.578   6.775  16.708 -0.7631 -0.5585  1.7865
 3731TIP3    H235389   7.623   6.917  16.736 -0.9523  0.1075 -0.9967
 3732TIP3   OH235390   7.275   6.822  17.296 -0.6347 -0.9668 -0.5851
 3732TIP3    H135391   7.201   6.761  17.292 -1.6987  0.0929  1.3499
 3732TIP3    H235392   7.247   6.889  17.358  1.4726  0.1709 -0.7789
 3733TIP3   OH235393   4.323   3.875  18.421  0.7376 -0.0682 -0.1870
 3733TIP3    H135394   4.403   3.899  18.469  0.6078 -3.3445  2.0306
 3733TIP3    H235395   4.261   3.850  18.490 -1.7808  1.0673 -1.9120
 3734TIP3   OH235396   4.378   3.557  18.904  0.0805  0.0593 -0.2045
 3734TIP3    H135397   4.387   3.649  18.930  0.2269 -0.3729  1.3603
 3734TIP3    H235398   4.461   3.535  18.864  0.9767 -0.0410  1.6214
 3735TIP3   OH235399   0.065   5.199  18.458 -0.2756  0.2504  0.1113
 3735TIP3    H135400   0.006   5.132  18.493  0.9734 -1.6209 -1.1154
 3735TIP3    H235401   0.149   5.180  18.499  0.3500  0.3566 -1.0741
 3736TIP3   OH235402   0.376   6.488  18.907  0.3162  0.4424  0.4665
 3736TIP3    H135403   0.322   6.411  18.889 -2.0092  1.6681  1.7685
 3736TIP3    H235404   0.315   6.562  18.900  2.5058  2.2517 -0.9775
 3737TIP3   OH235405   2.312   6.709  19.021 -0.2320  0.2492 -0.1780
 3737TIP3    H135406   2.221   6.715  19.049 -0.0330 -1.4249  0.9636
 3737TIP3    H235407   2.308   6.701  18.926 -1.2651  0.3499 -0.1532
 3738TIP3   OH235408   3.883   3.212  18.761  0.0423  0.3374  0.0257
 3738TIP3    H135409   3.970   3.247  18.742  0.8719 -0.6538  1.8410
 3738TIP3    H235410   3.825   3.263  18.704  1.6229  2.0114 -0.1867
 3739TIP3   OH235411   3.959   2.953  18.855  0.1640  0.1513  0.1686
 3739TIP3    H135412   3.918   3.036  18.830 -0.2397  0.3090  1.2959
 3739TIP3    H235413   4.017   2.932  18.782  0.0195  1.2535 -0.2811
 3740TIP3   OH235414   7.405   6.658  18.603 -0.0968 -0.0496  0.2624
 3740TIP3    H135415   7.412   6.581  18.660 -1.2601 -2.0325 -2.0642
 3740TIP3    H235416   7.481   6.651  18.545  0.5715  1.4165  0.9146
 3741TIP3   OH235417   1.319   6.763  17.545  0.5126 -0.1372 -0.2826
 3741TIP3    H135418   1.266   6.683  17.535  1.7915 -1.0585  0.0251
 3741TIP3    H235419   1.396   6.734  17.594  1.3900  1.1331 -0.8713
 3742TIP3   OH235420   4.157   4.659  18.388  0.2672  0.4804 -0.2648
 3742TIP3    H135421   4.119   4.598  18.324  1.4663  1.0154 -1.5358
 3742TIP3    H235422   4.108   4.740  18.376 -1.0670 -0.0643  1.1583
 3743TIP3   OH235423   2.657   5.928  17.090 -0.5245 -0.3696  0.7234
 3743TIP3    H135424   2.652   5.835  17.070 -1.0674 -0.0804 -0.6661
 3743TIP3    H235425   2.569   5.952  17.118 -1.0281  0.1317 -1.1117
 3744TIP3   OH235426   5.720   4.206  18.288 -0.0847 -0.0017 -0.4862
 3744TIP3    H135427   5.770   4.235  18.364  0.1087 -0.1491 -0.5556
 3744TIP3    H235428   5.644   4.264  18.285  1.7528  2.4790 -2.3639
 3745TIP3   OH235429   2.051   0.416  17.161 -0.3461  0.4948 -0.1577
 3745TIP3    H135430   1.982   0.465  17.116  0.0971  1.4082  0.1262
 3745TIP3    H235431   2.121   0.408  17.096 -1.2857 -1.8198 -0.9868
 3746TIP3   OH235432   1.589   4.167  17.579  0.1571  0.1265 -0.0563
 3746TIP3    H135433   1.568   4.083  17.619  0.6238 -1.0020 -2.0252
 3746TIP3    H235434   1.681   4.158  17.552  0.0483  1.0512 -0.7897
 3747TIP3   OH235435   5.453   6.581  17.490  0.0585  0.0378 -0.1589
 3747TIP3    H135436   5.448   6.669  17.527 -0.9642  0.2958 -0.8674
 3747TIP3    H235437   5.469   6.595  17.397 -0.3058 -0.5126 -0.3100
 3748TIP3   OH235438   1.197   7.628  18.989  0.0698 -0.6471 -0.1740
 3748TIP3    H135439   1.288   7.636  19.016  0.6360 -1.1578 -1.7929
 3748TIP3    H235440   1.195   7.548  18.936 -1.1445 -0.2198 -0.8043
 3749TIP3   OH235441   3.872   5.421  18.802 -0.3078  0.3813 -0.5147
 3749TIP3    H135442   3.962   5.443  18.778  0.2465 -0.7022  0.4765
 3749TIP3    H235443   3.880   5.349  18.864 -1.7649  1.3777  0.9351
 3750TIP3   OH235444   5.468   3.289  19.217  0.3710 -0.5397 -0.0590
 3750TIP3    H135445   5.422   3.308  19.135  2.7277 -0.3333 -1.4188
 3750TIP3    H235446   5.440   3.359  19.276 -1.7863 -0.9924 -0.4347
 3751TIP3   OH235447   4.503   5.427  16.717  0.1362 -0.1927 -0.0506
 3751TIP3    H135448   4.499   5.359  16.785 -0.5086  0.6844  0.8294
 3751TIP3    H235449   4.412   5.456  16.707  0.5533  1.5846  0.7336
 3752TIP3   OH235450   3.231   2.155  18.432 -0.1724 -0.3374  0.2313
 3752TIP3    H135451   3.222   2.228  18.371 -0.0053  0.4486  1.1409
 3752TIP3    H235452   3.325   2.146  18.447 -0.1686 -0.9412 -0.1039
 3753TIP3   OH235453   3.798   2.527  19.266 -0.1297 -0.5037  0.7866
 3753TIP3    H135454   3.791   2.535  19.361 -0.8984 -0.0564  0.6966
 3753TIP3    H235455   3.753   2.446  19.245 -0.9109 -0.0597  0.7024
 3754TIP3   OH235456   4.605   2.869  17.208  0.2340  0.0362 -0.2612
 3754TIP3    H135457   4.529   2.898  17.258  0.2772 -0.3388  0.0300
 3754TIP3    H235458   4.576   2.789  17.164 -0.2943  1.1859 -2.0994
 3755TIP3   OH235459   6.224   3.769  18.999 -0.1244 -0.2925  0.6140
 3755TIP3    H135460   6.292   3.833  19.021 -0.1911 -0.6606  2.0088
 3755TIP3    H235461   6.258   3.722  18.924  1.6013 -1.0853  1.8454
 3756TIP3   OH235462   5.801   0.767  18.185  0.9417  0.2540 -0.3290
 3756TIP3    H135463   5.887   0.808  18.197  1.9884 -1.8840 -0.0247
 3756TIP3    H235464   5.817   0.673  18.198 -1.5583 -0.1590  0.2745
 3757TIP3   OH235465   7.228   5.810  18.212  0.1164  0.0131  0.1841
 3757TIP3    H135466   7.221   5.818  18.308  1.7966 -1.6283  0.5004
 3757TIP3    H235467   7.319   5.785  18.197 -0.4950 -1.2166 -1.7570
 3758TIP3   OH235468   2.861   5.702  19.140  0.4525  0.0323 -0.1907
 3758TIP3    H135469   2.884   5.618  19.100 -1.2498 -0.5130 -0.0987
 3758TIP3    H235470   2.902   5.699  19.227  0.1502 -0.8427 -0.0666
 3759TIP3   OH235471   4.739   6.945  19.182  0.2710  0.2614  0.1886
 3759TIP3    H135472   4.645   6.947  19.162  0.3209 -1.8376 -0.4554
 3759TIP3    H235473   4.765   7.037  19.180 -1.0722  0.7049 -3.0180
 3760TIP3   OH235474   0.190   5.571  17.198 -0.4460  0.2783  0.2410
 3760TIP3    H135475   0.240   5.545  17.121  1.3235 -0.6294  1.6233
 3760TIP3    H235476   0.121   5.505  17.206 -0.5585  0.3069 -0.4647
 3761TIP3   OH235477   3.297   3.009  17.826  0.1597 -0.3715  0.2564
 3761TIP3    H135478   3.354   3.011  17.903  0.0000 -1.2052  0.4091
 3761TIP3    H235479   3.320   2.928  17.781 -0.0164 -0.0820 -0.3729
 3762TIP3   OH235480   0.964   5.644  16.679  0.4402 -0.0233 -0.4258
 3762TIP3    H135481   0.870   5.639  16.665  0.5098 -0.5137 -0.7431
 3762TIP3    H235482   0.987   5.561  16.721  0.9828 -0.6586 -1.9017
 3763TIP3   OH235483   0.615   5.338  17.310 -0.0245  0.2587 -0.1748
 3763TIP3    H135484   0.682   5.290  17.358  0.6710  0.9204 -0.4667
 3763TIP3    H235485   0.571   5.391  17.377  0.1090  0.2319 -0.0641
 3764TIP3   OH235486   3.789   4.104  17.219  0.2353 -0.2643 -0.3310
 3764TIP3    H135487   3.849   4.161  17.268 -0.0203 -0.6422  0.4495
 3764TIP3    H235488   3.727   4.163  17.178  0.5167  0.0723 -0.2751
 3765TIP3   OH235489   6.077   2.323  17.473  0.2386 -0.8057 -0.5872
 3765TIP3    H135490   6.148   2.264  17.448  1.7969  0.8863 -0.3701
 3765TIP3    H235491   5.998   2.283  17.436  1.5588 -1.7538 -2.5561
 3766TIP3   OH235492   6.988   2.453  19.448  0.5706  0.2824 -0.5775
 3766TIP3    H135493   6.940   2.409  19.378  0.3759 -1.1436  0.4179
 3766TIP3    H235494   7.080   2.441  19.424  0.7381 -3.6756  1.2533
 3767TIP3   OH235495   6.482   2.865  16.842  0.8775  0.5165 -0.3096
 3767TIP3    H135496   6.487   2.794  16.906  0.6464 -1.0534 -1.9389
 3767TIP3    H235497   6.573   2.883  16.819  0.8980 -0.4973 -1.1310
 3768TIP3   OH235498   0.175   5.129  19.515 -0.0155  0.8089 -0.3491
 3768TIP3    H135499   0.266   5.125  19.486  0.0635  0.6013 -0.0801
 3768TIP3    H235500   0.132   5.056  19.470  0.2998 -0.0589  0.6909
 3769TIP3   OH235501   3.441   4.014  17.930 -0.0497  0.8930  0.2383
 3769TIP3    H135502   3.496   3.936  17.926 -0.1053  0.8628  0.0402
 3769TIP3    H235503   3.416   4.021  18.022 -2.1923 -0.8139 -0.1423
 3770TIP3   OH235504   5.217   5.606  17.893 -0.0866  0.4034  0.4693
 3770TIP3    H135505   5.214   5.671  17.824  1.0073  0.0424  0.0572
 3770TIP3    H235506   5.260   5.650  17.966 -2.3191  1.1777  1.4065
 3771TIP3   OH235507   5.085   6.576  17.217 -0.0902 -0.0454 -0.1447
 3771TIP3    H135508   5.116   6.492  17.185 -0.9189 -0.3786 -0.0919
 3771TIP3    H235509   4.990   6.568  17.218 -0.1302  0.1537  1.8234
 3772TIP3   OH235510   1.287   6.218  18.518  0.0440  0.2191 -0.4392
 3772TIP3    H135511   1.244   6.182  18.595  0.5433 -0.6196 -0.5470
 3772TIP3    H235512   1.285   6.313  18.532  0.3246  0.0737  0.7057
 3773TIP3   OH235513   4.587   0.171  18.909 -0.6117  0.5658 -0.1198
 3773TIP3    H135514   4.666   0.181  18.855 -1.0333  2.4613 -0.4705
 3773TIP3    H235515   4.541   0.096  18.871  0.4696  0.1238 -0.6084
 3774TIP3   OH235516   4.158   6.683  17.590 -0.4525 -0.0595  0.6256
 3774TIP3    H135517   4.197   6.757  17.638 -0.6487 -0.3864  1.3050
 3774TIP3    H235518   4.228   6.618  17.587 -0.2649  0.1676 -0.0160
 3775TIP3   OH235519   0.033   4.320  17.657  0.0550 -0.1793  0.6550
 3775TIP3    H135520   0.028   4.409  17.690 -0.4299 -0.4370  1.2772
 3775TIP3    H235521  -0.044   4.276  17.693 -0.0008 -0.7060 -0.0837
 3776TIP3   OH235522   7.368   1.298  18.712  0.1321  0.3322  0.4994
 3776TIP3    H135523   7.333   1.219  18.671 -1.5678  1.5033 -0.4167
 3776TIP3    H235524   7.330   1.370  18.663  1.3556  1.7572  1.5367
 3777TIP3   OH235525   3.968   3.700  18.045  0.0441 -0.4618 -0.1379
 3777TIP3    H135526   4.029   3.769  18.022  1.3366 -1.6390 -0.3488
 3777TIP3    H235527   3.964   3.702  18.141  2.5297 -2.0684  0.0742
 3778TIP3   OH235528   4.426   3.201  19.392  0.0346  0.2636  0.0136
 3778TIP3    H135529   4.483   3.228  19.464  0.1650 -1.9843  0.8188
 3778TIP3    H235530   4.479   3.213  19.314  1.5048 -1.3473  0.7057
 3779TIP3   OH235531   1.458   5.535  18.435 -0.2330 -0.9844  0.0709
 3779TIP3    H135532   1.395   5.465  18.419  0.0760 -1.4999  1.0338
 3779TIP3    H235533   1.457   5.547  18.529 -0.1429  0.1918 -0.0701
 3780TIP3   OH235534   5.428   2.049  17.623 -0.2651  0.9798 -0.5660
 3780TIP3    H135535   5.335   2.066  17.635 -0.3512 -0.6082  1.6798
 3780TIP3    H235536   5.469   2.082  17.703  0.9748  0.7429 -1.0769
 3781TIP3   OH235537   5.019   3.154  18.745  0.1497 -0.0449  0.1289
 3781TIP3    H135538   5.007   3.225  18.809  0.8239  0.2652 -0.0816
 3781TIP3    H235539   5.029   3.075  18.799 -0.3538  0.0570  0.3724
 3782TIP3   OH235540   4.705   4.399  18.009 -0.2075 -0.1020  1.0779
 3782TIP3    H135541   4.741   4.482  17.979 -0.7250 -0.7282 -1.5283
 3782TIP3    H235542   4.618   4.395  17.970 -0.3832 -1.6323  1.5613
 3783TIP3   OH235543   2.069   2.759  17.730 -0.6067 -0.1984  0.4317
 3783TIP3    H135544   2.117   2.841  17.724 -1.7010  0.5991  1.9223
 3783TIP3    H235545   2.072   2.736  17.822  0.7039 -2.5165 -0.1073
 3784TIP3   OH235546   0.205   4.608  18.164  0.4732 -0.5221  0.0399
 3784TIP3    H135547   0.216   4.660  18.244  2.8228 -1.9175  0.7331
 3784TIP3    H235548   0.135   4.545  18.185  0.4392 -0.2810  0.6631
 3785TIP3   OH235549   7.575   3.702  18.473  0.4707  0.1696  0.5856
 3785TIP3    H135550   7.646   3.642  18.450  0.6542  0.9385 -0.9993
 3785TIP3    H235551   7.532   3.722  18.390 -2.7267 -1.5549  1.6515
 3786TIP3   OH235552   6.732   4.198  18.584 -0.3090  0.5412  0.0595
 3786TIP3    H135553   6.754   4.239  18.501 -0.2717  0.8664  0.2258
 3786TIP3    H235554   6.646   4.158  18.570  0.1786 -0.3451 -0.4579
 3787TIP3   OH235555   5.648   3.464  18.095  0.2887 -0.7677 -0.2217
 3787TIP3    H135556   5.678   3.485  18.183  0.1124 -1.3104 -0.0317
 3787TIP3    H235557   5.665   3.370  18.085  1.8795 -0.4147 -1.3750
 3788TIP3   OH235558   6.716   5.735  16.417 -0.3480 -0.4190  0.1944
 3788TIP3    H135559   6.652   5.674  16.379 -2.3410  1.7054 -0.0965
 3788TIP3    H235560   6.663   5.799  16.465  1.2678  2.7615 -1.8931
 3789TIP3   OH235561   7.598   5.944  17.262  0.0265 -0.2139 -0.1456
 3789TIP3    H135562   7.565   6.030  17.289  0.3602 -0.0102 -0.3668
 3789TIP3    H235563   7.630   5.905  17.343  0.9902  0.3805 -0.2151
 3790TIP3   OH235564   1.069   5.440  16.858 -0.0779  0.2394  0.0010
 3790TIP3    H135565   1.045   5.376  16.925 -1.9757  0.7305 -0.1619
 3790TIP3    H235566   1.108   5.512  16.906 -2.9478  1.3536  0.8954
 3791TIP3   OH235567   6.370   2.742  17.678  0.0912 -0.1469 -0.5190
 3791TIP3    H135568   6.407   2.763  17.592  1.3654  0.3786  0.1225
 3791TIP3    H235569   6.275   2.752  17.666  0.3778  3.3113 -1.0552
 3792TIP3   OH235570   3.088   4.283  16.501  0.0325  0.4254 -0.8549
 3792TIP3    H135571   3.163   4.337  16.524  1.2124 -0.8202 -1.6109
 3792TIP3    H235572   3.023   4.301  16.570  1.7445  0.0848  0.9365
 3793TIP3   OH235573   0.728   4.186  18.490 -0.3962 -0.5842  0.2171
 3793TIP3    H135574   0.657   4.190  18.554 -1.1442  0.1785 -0.6206
 3793TIP3    H235575   0.698   4.242  18.418  0.6203 -1.0520 -0.5954
 3794TIP3   OH235576   3.276   2.262  17.504  0.4693  0.2593  0.5095
 3794TIP3    H135577   3.211   2.210  17.552 -1.6327  2.6170  0.4034
 3794TIP3    H235578   3.282   2.220  17.418  0.0227 -0.7097  0.9342
 3795TIP3   OH235579   5.833   6.685  17.844 -0.2966 -0.6385 -0.1377
 3795TIP3    H135580   5.864   6.667  17.933  1.0172 -0.4879 -0.5459
 3795TIP3    H235581   5.747   6.725  17.856  0.1523  0.0020  1.1006
 3796TIP3   OH235582   2.465   7.139  17.300 -0.4426 -0.2341 -0.0269
 3796TIP3    H135583   2.526   7.203  17.336  1.6352 -2.3846  0.5094
 3796TIP3    H235584   2.444   7.082  17.374 -3.0507  0.3114 -0.2366
 3797TIP3   OH235585   0.926   7.423  19.460 -0.3202 -0.0518  0.0609
 3797TIP3    H135586   0.894   7.444  19.373  0.7649 -0.6447 -0.5033
 3797TIP3    H235587   0.966   7.504  19.491 -1.4377  0.4015  0.3698
 3798TIP3   OH235588   6.638   1.637  19.609  0.9289  0.4019  0.0590
 3798TIP3    H135589   6.604   1.599  19.690  2.6797 -0.9980  0.1950
 3798TIP3    H235590   6.592   1.721  19.601 -1.2733 -0.6226  1.0555
 3799TIP3   OH235591   3.106   0.153  17.979  0.2374  0.0320 -0.4785
 3799TIP3    H135592   3.173   0.085  17.976  0.2210 -0.2267  2.2281
 3799TIP3    H235593   3.033   0.113  18.026 -0.9561  1.0286 -1.4093
 3800TIP3   OH235594   7.108   1.327  17.528  0.0499  0.1906  0.2356
 3800TIP3    H135595   7.179   1.387  17.547 -0.7105  1.0853  0.3353
 3800TIP3    H235596   7.082   1.292  17.613  0.1082  0.1755  0.2471
 3801TIP3   OH235597   5.579   4.913  17.173  0.1016 -0.0879 -0.2812
 3801TIP3    H135598   5.586   4.851  17.101 -2.4335 -1.6725  0.7021
 3801TIP3    H235599   5.523   4.983  17.140 -0.1098 -0.2302 -0.2264
 3802TIP3   OH235600   4.877   1.846  18.845 -0.0829  0.7898  0.0783
 3802TIP3    H135601   4.794   1.894  18.842 -0.2239  0.7380  1.8919
 3802TIP3    H235602   4.855   1.762  18.886 -0.0679 -1.4942 -3.9843
 3803TIP3   OH235603   1.008   1.264  17.626  0.4299  0.0850 -0.4116
 3803TIP3    H135604   0.957   1.297  17.699  0.7396  0.1310 -0.2145
 3803TIP3    H235605   0.965   1.300  17.548 -0.7598 -1.1096 -0.3477
 3804TIP3   OH235606   0.166   4.155  18.975 -0.5643 -0.0461 -0.2590
 3804TIP3    H135607   0.122   4.229  19.016 -0.1417 -0.3502  0.7805
 3804TIP3    H235608   0.150   4.082  19.035  2.3651  0.0915  0.8246
 3805TIP3   OH235609   3.009   1.203  17.953 -0.2915 -0.2059 -0.0624
 3805TIP3    H135610   3.024   1.147  18.029  0.6319  0.3410  0.1794
 3805TIP3    H235611   2.933   1.256  17.976  0.1554  0.1537  0.5960
 3806TIP3   OH235612   6.886   3.850  18.657 -0.4530 -0.1629 -0.3381
 3806TIP3    H135613   6.801   3.867  18.697 -0.2248  0.2741 -0.0350
 3806TIP3    H235614   6.935   3.804  18.725  0.0432  0.8573  0.0135
 3807TIP3   OH235615   3.486   1.466  19.061  0.2281 -0.2704  0.2188
 3807TIP3    H135616   3.431   1.434  19.132 -0.4137 -0.4032 -0.3230
 3807TIP3    H235617   3.482   1.562  19.069  0.9485 -0.2930  0.9423
 3808TIP3   OH235618   0.725   5.106  17.846  0.1396  0.5941 -0.0733
 3808TIP3    H135619   0.779   5.028  17.835  0.2706  0.5233  0.9657
 3808TIP3    H235620   0.765   5.171  17.789 -0.2567 -0.2285 -1.3259
 3809TIP3   OH235621   5.665   6.900  18.484  0.0453  0.3155 -0.5836
 3809TIP3    H135622   5.589   6.952  18.511  1.4117  2.1041  0.0481
 3809TIP3    H235623   5.632   6.811  18.477 -1.5991  0.6035  2.0276
 3810TIP3   OH235624   2.658   7.348  17.343 -0.1810 -0.4260  0.6388
 3810TIP3    H135625   2.610   7.431  17.339 -0.0230 -0.3817 -1.4750
 3810TIP3    H235626   2.750   7.374  17.334 -0.1369 -0.8039 -0.0939
 3811TIP3   OH235627   1.370   6.478  19.245  0.1415 -0.3016 -0.3290
 3811TIP3    H135628   1.408   6.548  19.298  1.0862 -0.8318 -0.2917
 3811TIP3    H235629   1.445   6.433  19.207 -0.3366 -2.4854  1.1243
 3812TIP3   OH235630   5.516   2.532  17.718 -0.3775 -0.1583 -0.1551
 3812TIP3    H135631   5.433   2.571  17.743 -0.7820 -1.0403 -0.0775
 3812TIP3    H235632   5.577   2.605  17.713 -1.0643  0.4429  0.1890
 3813TIP3   OH235633   5.666   1.596  17.431 -0.0838  1.1060 -0.0122
 3813TIP3    H135634   5.679   1.507  17.398 -0.1280  0.1162  2.4203
 3813TIP3    H235635   5.593   1.630  17.379  0.2843 -0.0534 -1.3603
 3814TIP3   OH235636   3.342   3.780  18.447 -0.2570  0.4554  0.1915
 3814TIP3    H135637   3.281   3.831  18.501  0.8383  0.8769  1.0798
 3814TIP3    H235638   3.424   3.782  18.496 -0.3243 -2.7676  0.6335
 3815TIP3   OH235639   6.282   5.406  19.320 -0.6429 -0.1535  0.1058
 3815TIP3    H135640   6.374   5.430  19.320 -0.4689 -0.5032 -2.3372
 3815TIP3    H235641   6.237   5.485  19.288 -0.9059 -0.6906 -0.8821
 3816TIP3   OH235642   7.492   4.305  17.261 -0.2163  0.3790 -0.0335
 3816TIP3    H135643   7.523   4.303  17.170 -1.6736 -0.1835 -0.5570
 3816TIP3    H235644   7.515   4.219  17.296 -1.3266 -0.1235 -0.4907
 3817TIP3   OH235645   6.907   6.216  16.863  0.4043  0.6801  0.3302
 3817TIP3    H135646   6.879   6.244  16.950  0.5932  2.2582 -0.0883
 3817TIP3    H235647   7.002   6.223  16.866  0.6059 -1.4857  0.6938
 3818TIP3   OH235648   5.966   2.900  19.519  0.2616  0.5434 -0.1019
 3818TIP3    H135649   5.942   2.808  19.525  2.0475 -0.0811 -1.5592
 3818TIP3    H235650   5.886   2.944  19.489  0.0406 -0.9673 -1.9388
 3819TIP3   OH235651   1.050   4.374  19.202 -0.0512 -0.0036 -0.0623
 3819TIP3    H135652   0.971   4.397  19.251  0.3765 -1.2675  1.3162
 3819TIP3    H235653   1.122   4.390  19.263  0.4571 -2.2064  0.0129
 3820TIP3   OH235654   2.632   5.179  18.014  0.0664 -0.1210  0.1341
 3820TIP3    H135655   2.679   5.098  17.990 -0.0183  0.3455 -1.7894
 3820TIP3    H235656   2.584   5.203  17.935  0.3371  1.9979  0.5520
 3821TIP3   OH235657   4.123   1.768  18.970  0.0055 -0.2186  0.0669
 3821TIP3    H135658   4.064   1.692  18.975  0.8151 -0.8738 -0.1330
 3821TIP3    H235659   4.147   1.773  18.878  0.0701  0.2003  0.1064
 3822TIP3   OH235660   6.786   5.373  17.840 -0.7533  0.0177  0.3838
 3822TIP3    H135661   6.703   5.412  17.865 -0.4534 -0.9296  3.2836
 3822TIP3    H235662   6.763   5.292  17.795 -1.4034 -0.0248  0.7899
 3823TIP3   OH235663   7.646   1.958  17.505 -0.2437 -0.1586 -0.7252
 3823TIP3    H135664   7.677   1.974  17.415 -0.4838 -0.0965 -0.7979
 3823TIP3    H235665   7.588   1.882  17.497 -1.0202  0.4302 -0.7835
 3824TIP3   OH235666   4.295   2.679  17.647 -0.2457  0.6146 -0.0601
 3824TIP3    H135667   4.239   2.751  17.674  0.5341  1.6992 -1.2457
 3824TIP3    H235668   4.367   2.679  17.709 -1.6379 -1.0122  1.6926
 3825TIP3   OH235669   7.057   5.306  17.881 -0.3838  0.0264 -0.2409
 3825TIP3    H135670   7.083   5.320  17.790 -1.0484  0.0670 -0.4256
 3825TIP3    H235671   6.967   5.338  17.886 -0.6495 -0.7648  0.2279
 3826TIP3   OH235672   5.519   7.615  19.253 -0.4441  0.5983  0.3542
 3826TIP3    H135673   5.563   7.531  19.266  1.3199  1.3168 -0.5658
 3826TIP3    H235674   5.458   7.623  19.327  1.0848 -0.3935  1.7790
 3827TIP3   OH235675   5.834   7.562  18.111 -0.2829 -0.5568  0.2071
 3827TIP3    H135676   5.795   7.482  18.146 -1.7889  0.6244  1.4026
 3827TIP3    H235677   5.921   7.566  18.151 -0.3324 -1.4028  0.4144
 3828TIP3   OH235678   6.406   5.636  19.113  0.2793 -0.2391 -0.1489
 3828TIP3    H135679   6.423   5.562  19.055  0.2299 -0.2580 -0.1405
 3828TIP3    H235680   6.312   5.632  19.130 -0.1846  1.2404 -2.0596
 3829TIP3   OH235681   3.944   2.631  17.365  0.2931  0.1855 -0.7040
 3829TIP3    H135682   3.947   2.583  17.282 -0.2609  1.6921 -1.6301
 3829TIP3    H235683   3.851   2.632  17.388  0.6156 -2.0497  1.1069
 3830TIP3   OH235684   0.044   5.909  18.319  0.1835 -0.6316 -0.4889
 3830TIP3    H135685  -0.001   5.982  18.276  0.5148  0.4966  1.0075
 3830TIP3    H235686  -0.001   5.900  18.403 -0.0922 -2.4158 -0.8010
 3831TIP3   OH235687   0.141   2.133  18.061  0.1081 -0.3861 -0.4119
 3831TIP3    H135688   0.079   2.068  18.030  2.3810 -3.2087  0.4953
 3831TIP3    H235689   0.201   2.146  17.988 -0.1888  0.5458 -0.5049
 3832TIP3   OH235690   7.272   3.835  18.481  0.0909  0.4137  0.0913
 3832TIP3    H135691   7.277   3.897  18.410  1.0540 -0.0462 -0.2570
 3832TIP3    H235692   7.295   3.751  18.442  0.3315  0.1002  0.8775
 3833TIP3   OH235693   7.616   7.334  17.436  0.2064 -0.5971 -0.1441
 3833TIP3    H135694   7.618   7.362  17.344 -1.1351 -2.3944 -0.7741
 3833TIP3    H235695   7.659   7.249  17.436 -0.4575 -0.9520  0.7536
 3834TIP3   OH235696   6.892   0.860  18.783  0.8309 -0.1220 -0.3407
 3834TIP3    H135697   6.835   0.790  18.751  0.5331  0.4906 -1.2212
 3834TIP3    H235698   6.898   0.846  18.877  0.9142 -1.4240 -0.5290
 3835TIP3   OH235699   0.042   7.586  16.433  0.1633 -0.1066 -0.0560
 3835TIP3    H135700   0.059   7.493  16.417 -0.1684 -0.4139  1.2198
 3835TIP3    H235701   0.113   7.631  16.388  0.3688 -0.9802 -0.6373
 3836TIP3   OH235702   3.673   1.061  17.043 -0.5313 -0.2512 -0.0481
 3836TIP3    H135703   3.721   0.983  17.070 -0.0459  0.6487  1.8700
 3836TIP3    H235704   3.589   1.056  17.088 -1.7316 -1.0832 -2.2392
 3837TIP3   OH235705   3.172   6.417  16.476 -0.5867  0.7665  0.1622
 3837TIP3    H135706   3.135   6.354  16.538  0.6361 -0.5352 -0.3778
 3837TIP3    H235707   3.261   6.385  16.459 -1.3693  0.0947 -3.5349
 3838TIP3   OH235708   3.629   3.801  18.543 -0.1670 -0.1683  0.2930
 3838TIP3    H135709   3.680   3.770  18.618 -0.0773 -0.4216  0.1296
 3838TIP3    H235710   3.675   3.766  18.467 -1.2445 -1.4148  0.1819
 3839TIP3   OH235711   5.047   3.435  18.284 -0.0348  0.4058  0.4767
 3839TIP3    H135712   5.044   3.527  18.256 -0.7380 -0.2143 -1.7421
 3839TIP3    H235713   4.972   3.426  18.342 -0.0033  1.2160  0.6608
 3840TIP3   OH235714   0.154   6.649  18.920  0.0229  0.4370 -0.1522
 3840TIP3    H135715   0.123   6.699  18.845 -0.2258  0.6624  0.0983
 3840TIP3    H235716   0.083   6.586  18.937 -0.7177  1.5155  0.9550
 3841TIP3   OH235717   4.596   5.576  17.525 -0.7532  0.2938  0.4805
 3841TIP3    H135718   4.650   5.638  17.574 -0.9876  0.6241  0.3244
 3841TIP3    H235719   4.650   5.498  17.518  0.1127  0.9568 -0.5201
 3842TIP3   OH235720   6.361   7.125  18.517 -0.2629 -0.2957  0.6815
 3842TIP3    H135721   6.303   7.197  18.544 -1.7848 -0.9541 -0.6922
 3842TIP3    H235722   6.303   7.049  18.509  1.1849 -1.5345  1.3663
 3843TIP3   OH235723   6.624   0.540  16.699  0.5295  0.2369  0.3585
 3843TIP3    H135724   6.654   0.599  16.629 -1.3377 -0.1461 -0.8354
 3843TIP3    H235725   6.700   0.485  16.718  0.7229 -0.6005 -2.4096
 3844TIP3   OH235726   7.086   1.616  18.369  0.1672  0.0345  0.5511
 3844TIP3    H135727   7.120   1.705  18.370 -1.9686  0.9048  1.2114
 3844TIP3    H235728   7.133   1.572  18.440 -0.8950  1.5391  2.2673
 3845TIP3   OH235729   4.592   4.578  17.669 -0.0251 -0.6800  0.1989
 3845TIP3    H135730   4.678   4.539  17.684  0.3343  0.2797  0.6990
 3845TIP3    H235731   4.610   4.671  17.656 -0.8589 -0.6797 -1.0423
 3846TIP3   OH235732   3.417   3.862  19.183 -0.0614  0.3136  0.7402
 3846TIP3    H135733   3.370   3.779  19.177 -0.4656  0.3332  2.7221
 3846TIP3    H235734   3.355   3.921  19.226  0.3806  1.5187 -0.2426
 3847TIP3   OH235735   5.969   0.179  17.190  0.1162  0.0479  0.7123
 3847TIP3    H135736   5.952   0.147  17.102  1.1565 -0.2600  0.6049
 3847TIP3    H235737   5.963   0.101  17.245 -0.2846  0.1956  0.8789
 3848TIP3   OH235738   1.101   5.614  18.752 -0.2820  0.1753 -0.2846
 3848TIP3    H135739   1.106   5.664  18.833  3.3755 -0.0379 -0.2008
 3848TIP3    H235740   1.045   5.539  18.772  1.1067 -0.2646  2.3295
 3849TIP3   OH235741   2.098   6.544  17.632 -0.5801 -0.0726 -0.2042
 3849TIP3    H135742   2.116   6.546  17.538 -2.1237  1.2802 -0.5153
 3849TIP3    H235743   2.006   6.568  17.639 -1.0355 -2.1043  1.5524
 3850TIP3   OH235744   2.758   5.316  18.450 -0.2536 -0.5903  0.5168
 3850TIP3    H135745   2.775   5.360  18.366  0.3683  0.6595  1.2685
 3850TIP3    H235746   2.757   5.387  18.514 -1.3179 -1.4672  1.4973
 3851TIP3   OH235747   0.864   1.247  19.162 -0.0874  0.2263  0.3943
 3851TIP3    H135748   0.793   1.190  19.136  0.9262 -0.1053 -1.9475
 3851TIP3    H235749   0.925   1.244  19.088  2.1513  0.8266  2.0978
 3852TIP3   OH235750   2.333   4.946  18.558  0.3609  0.2983  0.9211
 3852TIP3    H135751   2.339   4.882  18.486 -0.9129  0.9103  0.2501
 3852TIP3    H235752   2.390   5.018  18.530  0.2864  0.3013  0.7759
 3853TIP3   OH235753   1.097   2.157  17.388  0.2182  0.2245 -0.6633
 3853TIP3    H135754   1.095   2.066  17.361  1.9319 -0.2129  0.5298
 3853TIP3    H235755   1.063   2.156  17.478 -0.8324  0.9493 -1.0306
 3854TIP3   OH235756   4.719   7.674  19.081 -0.4419 -0.4840 -0.5431
 3854TIP3    H135757   4.808   7.708  19.077  0.6838 -2.8539  1.7378
 3854TIP3    H235758   4.665   7.743  19.042  2.2311  1.4633 -1.0514
 3855TIP3   OH235759   1.692   6.314  16.541 -0.2899  0.1719  0.3336
 3855TIP3    H135760   1.666   6.313  16.633  0.9060 -0.1014  0.6752
 3855TIP3    H235761   1.725   6.403  16.526 -0.1281  0.1013  0.2699
 3856TIP3   OH235762   0.277   1.672  18.088 -0.2503  0.4087 -0.1521
 3856TIP3    H135763   0.287   1.665  18.183 -1.6706  1.1136  0.0693
 3856TIP3    H235764   0.205   1.733  18.075  1.7570  2.6672 -1.7500
 3857TIP3   OH235765   0.222   6.496  17.608  0.4973  0.1227  0.1974
 3857TIP3    H135766   0.202   6.449  17.690  1.2916 -0.1610  0.2407
 3857TIP3    H235767   0.294   6.446  17.570  1.9904  1.8083  0.6863
 3858TIP3   OH235768   4.907   5.051  18.056 -0.0258 -0.3623  0.0001
 3858TIP3    H135769   4.826   5.092  18.027  1.9877  2.4863 -2.1555
 3858TIP3    H235770   4.921   5.085  18.145 -0.5164  0.1793 -0.1296
 3859TIP3   OH235771   6.997   5.454  16.460  0.1810  0.8052  0.0451
 3859TIP3    H135772   6.930   5.392  16.491 -1.0715  1.1831 -1.7460
 3859TIP3    H235773   7.007   5.434  16.367  0.9142  2.2394 -0.2026
 3860TIP3   OH235774   7.417   7.108  19.002  0.2619  0.2408  0.3595
 3860TIP3    H135775   7.386   7.067  19.082 -0.2077 -0.0358  0.0397
 3860TIP3    H235776   7.417   7.038  18.937 -1.5064  0.9331 -0.4456
 3861TIP3   OH235777   2.132   4.512  16.760 -0.1982 -0.4335 -0.4741
 3861TIP3    H135778   2.196   4.543  16.824 -0.2135 -0.8997 -0.2284
 3861TIP3    H235779   2.052   4.561  16.781  0.1527  0.3592 -0.9680
 3862TIP3   OH235780   0.404   7.150  17.362  0.3969 -0.4435  0.5614
 3862TIP3    H135781   0.326   7.177  17.312 -0.6081 -0.5161  2.0164
 3862TIP3    H235782   0.466   7.121  17.295 -0.3930  0.6780 -0.7217
 3863TIP3   OH235783   2.919   6.516  17.922 -0.2236 -0.4781 -0.2065
 3863TIP3    H135784   2.982   6.586  17.940  1.3476 -1.5441 -1.2815
 3863TIP3    H235785   2.853   6.525  17.991  0.2165  1.6886  0.0069
 3864TIP3   OH235786   4.500   5.064  18.140 -0.2899  0.3541  0.2276
 3864TIP3    H135787   4.510   5.146  18.189  0.3325  0.0522  0.6228
 3864TIP3    H235788   4.501   4.996  18.207  0.6779 -0.0735 -0.2074
 3865TIP3   OH235789   4.268   4.924  18.858 -0.2805 -0.1517  0.2670
 3865TIP3    H135790   4.317   4.990  18.810  2.1155 -2.8366 -1.3387
 3865TIP3    H235791   4.313   4.916  18.942  0.2325 -0.6261 -0.0530
 3866TIP3   OH235792   6.256   2.538  17.366  0.4701 -0.4898 -0.4538
 3866TIP3    H135793   6.227   2.471  17.428 -1.7535  0.9585  0.2025
 3866TIP3    H235794   6.183   2.547  17.305  1.3001  0.3795 -1.3441
 3867TIP3   OH235795   2.120   4.157  17.168 -0.5110  0.0656  0.2865
 3867TIP3    H135796   2.191   4.221  17.168 -0.9860  0.6008  0.6380
 3867TIP3    H235797   2.043   4.206  17.195 -1.0751 -0.4473 -0.3517
 3868TIP3   OH235798   4.044   1.966  16.875 -0.2752  0.5646  0.0597
 3868TIP3    H135799   4.077   1.968  16.785 -0.2394 -0.6668  0.0323
 3868TIP3    H235800   3.952   1.992  16.868 -0.1200  1.0375 -0.2508
 3869TIP3   OH235801   5.572   2.319  17.061  0.2679  0.3631  0.0151
 3869TIP3    H135802   5.494   2.323  17.005  0.1790  1.7658  0.2006
 3869TIP3    H235803   5.537   2.305  17.149  0.3480 -0.7754 -0.1170
 3870TIP3   OH235804   7.486   0.763  17.157  0.0193  0.4066  0.3778
 3870TIP3    H135805   7.582   0.766  17.154 -0.0045  0.3566 -0.5034
 3870TIP3    H235806   7.461   0.715  17.079 -0.8052  1.9393 -0.3338
 3871TIP3   OH235807   0.685   5.181  18.448  0.0234  0.1760  0.2205
 3871TIP3    H135808   0.718   5.211  18.533  0.1022  2.2495 -0.4791
 3871TIP3    H235809   0.730   5.237  18.384 -4.0729  2.6733 -0.8618
 3872TIP3   OH235810   5.574   6.631  18.691 -0.5636 -0.1038  0.0528
 3872TIP3    H135811   5.532   6.690  18.754 -0.7785 -0.4603  0.2489
 3872TIP3    H235812   5.631   6.576  18.744 -1.3819 -0.9754  0.0671
 3873TIP3   OH235813   2.577   4.012  17.973  0.0880  0.0896  0.1836
 3873TIP3    H135814   2.558   3.981  17.884  3.0092  1.8158 -1.1843
 3873TIP3    H235815   2.617   3.937  18.017 -1.1808 -0.7109  0.0313
 3874TIP3   OH235816   7.317   6.212  19.459 -0.4584 -0.1806 -0.2179
 3874TIP3    H135817   7.223   6.229  19.464 -0.3388  0.6946 -0.6753
 3874TIP3    H235818   7.332   6.188  19.367  0.1513  2.4470 -0.8965
 3875TIP3   OH235819   1.321   6.187  18.872 -0.2839 -0.0341  0.7634
 3875TIP3    H135820   1.265   6.119  18.909 -1.7193  1.0670  0.7155
 3875TIP3    H235821   1.274   6.269  18.888  2.3870  1.2709  2.8149
 3876TIP3   OH235822   5.394   1.529  18.389  0.2079 -0.3464  0.2768
 3876TIP3    H135823   5.299   1.523  18.381  0.1452  0.3846  0.3941
 3876TIP3    H235824   5.413   1.621  18.373  0.7986 -0.2851  1.2854
 3877TIP3   OH235825   5.519   1.142  19.255 -0.5952  0.0932  0.2468
 3877TIP3    H135826   5.530   1.048  19.243 -1.2086  0.1726 -1.1012
 3877TIP3    H235827   5.607   1.178  19.251 -0.3004 -0.4704  1.3401
 3878TIP3   OH235828   5.755   1.358  19.244  0.2264  0.7125 -0.1728
 3878TIP3    H135829   5.811   1.435  19.238 -0.2188  1.1221  0.7161
 3878TIP3    H235830   5.814   1.284  19.232  1.0906  1.1138  1.3951
 3879TIP3   OH235831   6.627   3.582  18.405 -0.4538 -0.2311 -0.2091
 3879TIP3    H135832   6.597   3.609  18.318 -0.4537 -1.6386 -0.6818
 3879TIP3    H235833   6.593   3.493  18.415 -1.0889  0.1627  1.5556
 3880TIP3   OH235834   2.888   6.041  18.485  0.6220 -0.2480  0.1436
 3880TIP3    H135835   2.867   5.988  18.562 -2.0675  1.5559  0.8008
 3880TIP3    H235836   2.807   6.040  18.433  0.0934  3.6365  0.5533
 3881TIP3   OH235837   5.964   2.391  19.556 -0.2218  0.1618  0.3199
 3881TIP3    H135838   6.026   2.365  19.488  0.5972  1.3177  0.5896
 3881TIP3    H235839   5.957   2.315  19.613 -0.6785 -0.7140 -0.8661
 3882TIP3   OH235840   7.479   1.660  18.492 -0.1063 -0.1073  0.1364
 3882TIP3    H135841   7.567   1.636  18.523 -0.3894 -0.9706  0.3009
 3882TIP3    H235842   7.491   1.679  18.399  0.1722 -0.7209  0.0403
 3883TIP3   OH235843   4.005   5.384  17.441  0.2393  0.2524  0.2455
 3883TIP3    H135844   3.923   5.370  17.393  0.5309 -1.2012  0.1186
 3883TIP3    H235845   3.978   5.419  17.526 -0.4272  0.8696 -0.2133
 3884TIP3   OH235846   2.431   1.498  18.611  0.1326 -0.2142 -0.0906
 3884TIP3    H135847   2.494   1.484  18.682  0.3667  1.3378  0.0500
 3884TIP3    H235848   2.484   1.520  18.535 -0.1984  0.2750 -0.1847
 3885TIP3   OH235849   4.292   7.440  18.069  0.0480 -0.2907 -0.4335
 3885TIP3    H135850   4.327   7.452  17.981 -1.5977 -2.8865 -1.5853
 3885TIP3    H235851   4.247   7.522  18.089  0.6712  0.4416 -1.8744
 3886TIP3   OH235852   3.041   6.246  18.378 -0.0365  0.1853 -0.1023
 3886TIP3    H135853   2.989   6.173  18.414  1.9499 -0.1543  2.3384
 3886TIP3    H235854   3.043   6.311  18.448 -2.0194  2.8918 -2.3266
 3887TIP3   OH235855   4.343   0.179  18.017  0.0034 -0.6828 -0.5573
 3887TIP3    H135856   4.300   0.107  18.064 -0.6507 -0.8249 -1.3584
 3887TIP3    H235857   4.282   0.202  17.947  0.8362 -0.2826 -1.1663
 3888TIP3   OH235858   3.794   3.757  18.763  0.4883 -0.2119 -0.2485
 3888TIP3    H135859   3.725   3.805  18.809  1.0278  0.5548 -0.2040
 3888TIP3    H235860   3.820   3.688  18.824 -0.2787 -0.5455 -0.2944
 3889TIP3   OH235861   5.213   0.049  17.790  0.9384  0.8195  0.6146
 3889TIP3    H135862   5.294   0.084  17.826  0.2442  1.1509  1.9311
 3889TIP3    H235863   5.231   0.035  17.697  2.9787 -0.5319  1.1544
 3890TIP3   OH235864   0.347   6.753  18.310  0.5161  0.6628 -0.2384
 3890TIP3    H135865   0.301   6.786  18.233  1.5761 -0.0401 -1.2218
 3890TIP3    H235866   0.351   6.658  18.296  0.3568  0.4794  0.9052
 3891TIP3   OH235867   4.913   1.530  19.391  0.2198  0.0001 -0.1530
 3891TIP3    H135868   4.881   1.619  19.377  1.0137  0.8315  2.6868
 3891TIP3    H235869   4.834   1.478  19.407 -0.1086  0.8693  1.2038
 3892TIP3   OH235870   3.534   6.016  17.653 -0.1723 -0.2185 -0.0539
 3892TIP3    H135871   3.540   5.991  17.745 -3.2202  2.4057  1.0455
 3892TIP3    H235872   3.617   6.061  17.635  0.8965 -1.6368  1.0189
 3893TIP3   OH235873   6.118   5.225  18.769 -0.0573 -0.3884  0.1372
 3893TIP3    H135874   6.200   5.179  18.786  0.3470  0.5511  0.8494
 3893TIP3    H235875   6.145   5.310  18.735 -0.7893 -0.7623 -1.4646
 3894TIP3   OH235876   6.245   1.812  18.360 -0.5558  0.3627  0.1581
 3894TIP3    H135877   6.240   1.884  18.298 -0.8285 -1.1963 -1.7155
 3894TIP3    H235878   6.336   1.813  18.391 -0.4526  1.2497 -0.1566
 3895TIP3   OH235879   3.188   1.056  16.893  0.2387 -0.5946  0.2476
 3895TIP3    H135880   3.145   0.984  16.847  0.7073 -1.4049  1.0659
 3895TIP3    H235881   3.175   1.132  16.835  1.3203 -1.6908 -1.5048
 3896TIP3   OH235882   3.044   1.485  18.670  0.5714  0.0227  0.0751
 3896TIP3    H135883   3.035   1.405  18.618 -0.1230 -0.4153  0.8421
 3896TIP3    H235884   2.957   1.525  18.669  1.2467  1.5606 -1.4999
 3897TIP3   OH235885   5.658   7.498  18.773  0.3668  0.1055 -0.4104
 3897TIP3    H135886   5.602   7.576  18.774  1.8343  1.2086  1.3595
 3897TIP3    H235887   5.639   7.454  18.856  2.8780  1.1501  0.8201
 3898TIP3   OH235888   6.505   2.478  19.217 -0.1185  0.1360 -0.0928
 3898TIP3    H135889   6.534   2.497  19.306 -3.2795  2.3533  0.6204
 3898TIP3    H235890   6.467   2.390  19.223  0.5954 -0.1487  0.4621
 3899TIP3   OH235891   4.352   3.142  18.762  0.5051 -0.4214 -0.4184
 3899TIP3    H135892   4.363   3.060  18.713  3.1434 -1.1295  1.1431
 3899TIP3    H235893   4.318   3.115  18.847 -3.3809  0.7369 -1.3751
 3900TIP3   OH235894   0.836   6.661  18.110  0.2515  0.7356 -0.3435
 3900TIP3    H135895   0.744   6.640  18.091  0.5900  0.0595 -1.2796
 3900TIP3    H235896   0.886   6.609  18.047  1.2467  1.7085 -0.3792
 3901TIP3   OH235897   3.767   7.048  17.939  0.2430 -0.4663 -0.5867
 3901TIP3    H135898   3.760   7.089  17.853  1.2030  0.5985 -0.1931
 3901TIP3    H235899   3.687   7.075  17.985  0.1556 -0.2756 -0.8517
 3902TIP3   OH235900   4.003   4.440  18.253 -0.3629  0.2311  0.1400
 3902TIP3    H135901   4.034   4.349  18.251  2.2224  1.0373 -0.0229
 3902TIP3    H235902   4.010   4.470  18.163 -1.7848  0.4585  0.0816
 3903TIP3   OH235903   3.064   6.214  17.498  0.6204  0.0489  0.0385
 3903TIP3    H135904   3.147   6.189  17.458  0.5463  0.2393 -0.2418
 3903TIP3    H235905   3.088   6.264  17.576  0.7810 -1.5297  1.0444
 3904TIP3   OH235906   2.037   1.568  17.908  0.1184  0.0482  0.1217
 3904TIP3    H135907   2.045   1.487  17.858  0.9351  0.3858 -0.3000
 3904TIP3    H235908   1.942   1.580  17.919 -0.0201 -0.7019 -0.2284
 3905TIP3   OH235909   7.339   4.357  18.306  0.1838 -0.8294 -0.0577
 3905TIP3    H135910   7.364   4.321  18.391  1.5983  0.3084  0.0420
 3905TIP3    H235911   7.419   4.352  18.253 -0.8966 -2.3564 -1.6628
 3906TIP3   OH235912   2.144   7.346  19.025  0.9640  0.1455 -0.0057
 3906TIP3    H135913   2.162   7.325  19.116  0.8707 -0.1358 -0.0530
 3906TIP3    H235914   2.209   7.296  18.975 -0.2366 -1.2714 -0.2130
 3907TIP3   OH235915   1.062   6.321  18.338 -0.2689  0.2454 -0.3903
 3907TIP3    H135916   1.050   6.253  18.405  0.3354 -0.2433 -0.7611
 3907TIP3    H235917   0.980   6.370  18.339 -0.1858  0.3904  0.8586
 3908TIP3   OH235918   6.288   2.144  17.441  0.2184 -0.2979 -0.5381
 3908TIP3    H135919   6.370   2.190  17.424  0.1953  0.0282  0.2161
 3908TIP3    H235920   6.276   2.088  17.364  0.0593  1.2236 -1.6852
 3909TIP3   OH235921   5.558   7.380  18.534  0.2209  0.1357 -0.2235
 3909TIP3    H135922   5.551   7.468  18.495  1.0643  0.0481 -0.6046
 3909TIP3    H235923   5.594   7.395  18.621 -1.1816  0.2906  0.3476
 3910TIP3   OH235924   7.285   6.663  18.154 -0.4997  0.2535 -0.6751
 3910TIP3    H135925   7.252   6.575  18.165  0.7624 -0.3395 -1.3455
 3910TIP3    H235926   7.287   6.700  18.242  0.0327 -0.8041 -0.2271
 3911TIP3   OH235927   3.436   1.188  17.258 -0.0679 -0.4802  0.2260
 3911TIP3    H135928   3.356   1.217  17.301 -0.0728  1.2938 -0.9019
 3911TIP3    H235929   3.490   1.267  17.252  0.9296 -1.2118 -0.8242
 3912TIP3   OH235930   5.962   0.286  18.916 -0.2844 -0.2684  0.0170
 3912TIP3    H135931   5.878   0.328  18.898 -0.4530  0.5689  2.3748
 3912TIP3    H235932   5.940   0.196  18.938 -0.8343  0.2966  2.0710
 3913TIP3   OH235933   5.558   2.509  18.949  0.7303  0.7538 -0.1842
 3913TIP3    H135934   5.509   2.431  18.923 -1.0944  1.4541  0.9611
 3913TIP3    H235935   5.650   2.485  18.937  0.1734 -1.1957 -0.8348
 3914TIP3   OH235936   4.460   1.332  17.322 -0.1842  0.3560  0.4971
 3914TIP3    H135937   4.400   1.373  17.261 -0.6831 -1.4338 -0.2767
 3914TIP3    H235938   4.443   1.238  17.313  1.4619 -0.0869  1.5909
 3915TIP3   OH235939   6.797   5.129  18.215  0.0896 -0.1117 -0.3374
 3915TIP3    H135940   6.742   5.207  18.215 -0.8031 -0.7013  1.1679
 3915TIP3    H235941   6.821   5.116  18.307 -2.7085 -3.5238  0.1249
 3916TIP3   OH235942   7.017   1.248  19.358  0.0332  0.6005 -0.0427
 3916TIP3    H135943   7.096   1.257  19.305 -0.7011  2.7555 -0.8897
 3916TIP3    H235944   6.961   1.188  19.309 -0.0147  1.3796 -0.9717
 3917TIP3   OH235945   0.418   0.498  19.124 -0.4359  0.8268  0.1051
 3917TIP3    H135946   0.464   0.567  19.171  0.8186 -0.1693  0.3852
 3917TIP3    H235947   0.423   0.421  19.181 -0.0547 -0.0477 -1.0508
 3918TIP3   OH235948   5.542   2.247  18.595 -0.6076 -0.0366  0.0928
 3918TIP3    H135949   5.589   2.232  18.677 -0.4651 -0.2530 -0.0277
 3918TIP3    H235950   5.480   2.174  18.590 -0.5923 -0.0417 -0.0101
 3919TIP3   OH235951   3.375   1.862  17.273 -0.5760 -0.2543 -0.1889
 3919TIP3    H135952   3.297   1.807  17.262 -0.2905 -0.7246  0.1205
 3919TIP3    H235953   3.445   1.801  17.296  0.3173 -0.0783 -2.2352
 3920TIP3   OH235954   4.781   6.594  18.329 -0.3089  0.1458  0.1608
 3920TIP3    H135955   4.768   6.685  18.300  2.0447  0.1801 -1.0830
 3920TIP3    H235956   4.824   6.552  18.255  1.1502 -1.2293  1.7042
 3921TIP3   OH235957   5.922   7.600  18.563  0.1360 -0.1372  0.4787
 3921TIP3    H135958   5.960   7.531  18.617  0.4975 -0.7833 -0.5641
 3921TIP3    H235959   5.997   7.652  18.534  0.1973 -0.9959 -1.0095
 3922TIP3   OH235960   5.755   6.439  19.252 -0.3070  0.0532  0.0541
 3922TIP3    H135961   5.748   6.348  19.224  0.1852  0.2072 -0.5834
 3922TIP3    H235962   5.686   6.484  19.204  0.2400  0.2334 -0.5764
 3923TIP3   OH235963   6.954   1.715  17.166 -0.0602 -0.0809  0.5805
 3923TIP3    H135964   6.928   1.801  17.201  2.0067  0.0503  1.9432
 3923TIP3    H235965   6.988   1.735  17.079  0.5454  0.5171  0.9420
 3924TIP3   OH235966   0.283   6.088  16.766 -0.2009  0.1909 -0.0174
 3924TIP3    H135967   0.272   6.037  16.686 -0.8117  0.8423 -0.3590
 3924TIP3    H235968   0.273   6.179  16.739  1.2440  0.5353  0.5235
 3925TIP3   OH235969   6.680   0.292  19.150 -0.3718 -0.4573 -0.0189
 3925TIP3    H135970   6.742   0.362  19.170  0.1680 -0.8979 -0.1201
 3925TIP3    H235971   6.676   0.289  19.054  0.5727 -1.3819 -0.0481
 3926TIP3   OH235972   2.412   6.680  16.781  0.1726  0.4384 -0.0785
 3926TIP3    H135973   2.343   6.614  16.780  0.2376  0.3632  0.2364
 3926TIP3    H235974   2.490   6.632  16.809  0.6053  0.2838 -1.4749
 3927TIP3   OH235975   0.845   6.714  18.456 -0.1426  0.6880  0.3789
 3927TIP3    H135976   0.772   6.720  18.518 -0.9947 -0.9153 -0.4121
 3927TIP3    H235977   0.821   6.775  18.387  0.1521  1.4867  0.9698
 3928TIP3   OH235978   0.330   6.741  18.602  0.5223  0.2570  0.2852
 3928TIP3    H135979   0.332   6.769  18.510 -0.4377  0.5539  0.3534
 3928TIP3    H235980   0.271   6.667  18.603  1.6527 -0.6763  0.4327
 3929TIP3   OH235981   5.018   4.394  18.657  1.2486  0.3954 -0.0571
 3929TIP3    H135982   5.060   4.433  18.734  3.3454  0.4354 -1.1348
 3929TIP3    H235983   4.985   4.469  18.608  1.0477  0.4591  0.1700
 3930TIP3   OH235984   7.226   0.958  19.168  0.3749 -0.2519 -0.8077
 3930TIP3    H135985   7.253   1.039  19.123  0.3067  0.8205  0.9742
 3930TIP3    H235986   7.194   0.988  19.253  1.4334 -2.2578  0.3657
 3931TIP3   OH235987   6.982   1.967  18.619  0.3060  0.0088 -0.6123
 3931TIP3    H135988   6.894   1.999  18.637  0.2924 -0.0282 -0.6129
 3931TIP3    H235989   6.981   1.876  18.649  0.6293  0.2903  0.2890
 3932TIP3   OH235990   6.671   1.070  17.646 -0.1206  0.5249  0.1923
 3932TIP3    H135991   6.760   1.059  17.680 -0.4821 -0.0921  0.9471
 3932TIP3    H235992   6.640   0.981  17.630 -1.6826  0.5162  2.7585
 3933TIP3   OH235993   2.541   6.155  18.926  0.3434  0.6891  0.1817
 3933TIP3    H135994   2.468   6.128  18.869  0.1333  1.2734  0.1688
 3933TIP3    H235995   2.534   6.250  18.931 -0.0573  0.6012  1.7393
 3934TIP3   OH235996   4.276   7.156  19.282  0.4887  0.4645  0.2959
 3934TIP3    H135997   4.191   7.167  19.238  0.2264 -1.4079  0.2459
 3934TIP3    H235998   4.334   7.216  19.236 -1.1088  2.9850  1.3610
 3935TIP3   OH235999   5.072   2.917  18.087  0.1270  0.4747 -0.5457
 3935TIP3    H136000   4.990   2.873  18.108  1.9197 -3.5653 -1.1980
 3935TIP3    H236001   5.114   2.932  18.172 -0.7214  1.6212 -0.2883
 3936TIP3   OH236002   1.166   0.173  17.006  0.5016 -0.5435  0.3037
 3936TIP3    H136003   1.226   0.118  17.057  1.3101 -0.1539 -0.2135
 3936TIP3    H236004   1.096   0.113  16.978  0.2112 -0.8414  1.5644
 3937TIP3   OH236005   4.040   3.155  18.082  0.2592  0.1477  0.5748
 3937TIP3    H136006   3.989   3.196  18.012  1.3547 -1.2712 -1.1421
 3937TIP3    H236007   3.979   3.094  18.124 -0.2391  0.5402  0.4305
 3938TIP3   OH236008   1.617   1.598  17.774 -0.1903 -0.2854  0.5343
 3938TIP3    H136009   1.661   1.514  17.759 -2.5097 -1.4142 -0.4561
 3938TIP3    H236010   1.538   1.575  17.823 -1.5314  1.1116 -0.8858
 3939TIP3   OH236011   2.156   2.508  18.281  0.1950 -0.3363  0.0282
 3939TIP3    H136012   2.126   2.469  18.363  1.9637 -1.3820  0.2290
 3939TIP3    H236013   2.190   2.434  18.230  0.0518  0.4401 -1.2312
 3940TIP3   OH236014   6.430   1.295  18.136 -0.7377 -0.1437  0.3572
 3940TIP3    H136015   6.361   1.231  18.118 -1.7575  0.8742  0.5089
 3940TIP3    H236016   6.423   1.312  18.230 -1.0411  0.7867  0.1839
 3941TIP3   OH236017   0.647   2.680  19.323 -0.0001  0.2101 -0.7180
 3941TIP3    H136018   0.614   2.735  19.394  0.2600  0.7428 -1.0069
 3941TIP3    H236019   0.741   2.701  19.318 -0.0144  0.1614 -1.2071
 3942TIP3   OH236020   1.290   6.881  17.915  0.4360  0.9676  0.0050
 3942TIP3    H136021   1.221   6.829  17.955  0.4357  0.8313 -0.1723
 3942TIP3    H236022   1.251   6.967  17.902 -0.0366  0.6130 -1.0225
 3943TIP3   OH236023   1.726   0.636  18.789  0.5226  0.1402  0.0145
 3943TIP3    H136024   1.718   0.707  18.853 -2.8604  0.2792 -0.3912
 3943TIP3    H236025   1.748   0.679  18.707  0.3506  0.5181  0.1658
 3944TIP3   OH236026   0.027   2.841  18.672  0.1169 -0.4641 -0.2981
 3944TIP3    H136027   0.022   2.916  18.612  0.4739 -0.4058 -0.2615
 3944TIP3    H236028   0.121   2.830  18.688 -0.0198  0.1756  1.0845
 3945TIP3   OH236029   6.228   6.334  17.449  0.8439 -0.2194  0.2340
 3945TIP3    H136030   6.176   6.305  17.524  1.7482 -1.0049  0.5775
 3945TIP3    H236031   6.294   6.392  17.488 -1.0513  2.5857 -0.4511
 3946TIP3   OH236032   0.233   2.273  18.671 -0.2115 -0.2462 -0.2861
 3946TIP3    H136033   0.146   2.234  18.662 -0.8242  0.9738  0.1161
 3946TIP3    H236034   0.292   2.198  18.678 -1.3502 -1.1030  0.6588
 3947TIP3   OH236035   0.790   3.589  18.978 -0.1124 -0.8967  0.2324
 3947TIP3    H136036   0.722   3.561  18.917  1.7991 -0.0348 -2.4799
 3947TIP3    H236037   0.811   3.511  19.029  0.0028 -2.4264 -2.0411
 3948TIP3   OH236038   5.279   6.822  18.556 -0.3857 -0.2486 -0.2202
 3948TIP3    H136039   5.233   6.903  18.533 -1.3927 -1.2026 -1.7562
 3948TIP3    H236040   5.231   6.789  18.632 -1.0462 -0.2494 -0.6279
 3949TIP3   OH236041   2.248   6.019  18.120 -0.3652 -0.3209 -0.2969
 3949TIP3    H136042   2.298   5.956  18.172 -0.5763 -0.0894  0.1870
 3949TIP3    H236043   2.167   5.973  18.098 -0.5986 -0.1539  0.2108
 3950TIP3   OH236044   3.123   5.965  18.936  0.3856  0.4459 -0.0850
 3950TIP3    H136045   3.155   6.021  18.866  2.1059 -0.6655 -0.2560
 3950TIP3    H236046   3.157   6.004  19.016 -1.7049  1.8004  0.2233
 3951TIP3   OH236047   6.614   4.517  17.990  0.0690 -0.4810  0.9349
 3951TIP3    H136048   6.574   4.536  17.905  1.9294 -0.6300 -0.0297
 3951TIP3    H236049   6.557   4.560  18.053  0.1223  2.0397 -0.5944
 3952TIP3   OH236050   7.438   6.424  16.531  0.0825 -0.1661 -0.1242
 3952TIP3    H136051   7.386   6.351  16.566  0.9716 -0.6417  0.2191
 3952TIP3    H236052   7.496   6.449  16.602  0.3223  0.3774 -0.5050
 3953TIP3   OH236053   6.903   6.025  18.149  0.0256 -0.0177  0.3181
 3953TIP3    H136054   6.868   6.099  18.199  0.6074  0.3350  0.2234
 3953TIP3    H236055   6.890   5.949  18.205  0.5333  0.3481  0.9569
 3954TIP3   OH236056   3.898   5.928  17.585  0.4571 -0.7176 -0.5806
 3954TIP3    H136057   3.990   5.955  17.588 -0.3409  2.2898  1.8538
 3954TIP3    H236058   3.850   6.007  17.563 -1.8237 -0.8807  2.9263
 3955TIP3   OH236059   7.385   0.732  19.132  0.1448 -0.8084  0.5868
 3955TIP3    H136060   7.387   0.828  19.139  2.5618 -0.6318 -1.3531
 3955TIP3    H236061   7.298   0.713  19.098 -0.1724  0.7537  0.4397
 3956TIP3   OH236062   6.972   4.696  17.123  0.5484 -0.4176  0.0512
 3956TIP3    H136063   6.916   4.727  17.051  1.3694 -2.4444 -1.5717
 3956TIP3    H236064   6.911   4.655  17.184 -0.2161  1.7112  0.8269
 3957TIP3   OH236065   0.533   2.221  18.038 -0.6474 -0.4055 -0.2211
 3957TIP3    H136066   0.495   2.263  18.116 -1.2902  3.5575 -2.3676
 3957TIP3    H236067   0.458   2.210  17.979  0.4738  2.2304 -2.3656
 3958TIP3   OH236068   7.136   3.408  16.592 -0.7780  0.1197  0.0896
 3958TIP3    H136069   7.049   3.402  16.631 -0.2177 -1.1427  1.2102
 3958TIP3    H236070   7.164   3.498  16.610 -1.1749  0.0305  1.2275
 3959TIP3   OH236071   0.199   1.271  17.903 -0.0968  0.3016  0.2904
 3959TIP3    H136072   0.174   1.359  17.929 -3.1300 -0.2501 -0.3538
 3959TIP3    H236073   0.220   1.278  17.810  0.5015  0.4608  0.4328
 3960TIP3   OH236074   3.192   2.547  17.499 -0.0005  0.5714 -0.3645
 3960TIP3    H136075   3.242   2.475  17.538  0.9656  0.6605 -1.3692
 3960TIP3    H236076   3.187   2.525  17.406  1.5806  2.4429 -0.9840
 3961TIP3   OH236077   4.084   5.912  18.130 -0.0523  0.2366  0.0755
 3961TIP3    H136078   4.144   5.846  18.165  0.5581 -0.8857 -2.7896
 3961TIP3    H236079   4.002   5.864  18.117 -0.0920  0.4570 -0.5176
 3962TIP3   OH236080   2.559   6.661  18.020 -0.5330 -0.2263 -0.0371
 3962TIP3    H136081   2.502   6.692  18.090  0.1598 -0.6690  0.7382
 3962TIP3    H236082   2.562   6.733  17.957 -0.5117  0.4902  0.7782
 3963TIP3   OH236083   7.269   5.537  18.979  0.2953 -0.1189  0.0766
 3963TIP3    H136084   7.261   5.526  19.074  1.5578  3.0177  0.6569
 3963TIP3    H236085   7.236   5.454  18.943  0.1165 -1.5721  3.2172
 3964TIP3   OH236086   2.220   7.585  18.958  0.0425 -0.2181  0.5039
 3964TIP3    H136087   2.297   7.560  18.906  1.3849 -0.2854  2.4094
 3964TIP3    H236088   2.177   7.502  18.980  0.6332 -0.3580  1.1663
 3965TIP3   OH236089   4.738   6.368  18.471  0.5543  0.3937 -0.3100
 3965TIP3    H136090   4.728   6.460  18.444 -0.0009  0.3965 -0.1256
 3965TIP3    H236091   4.825   6.344  18.442  1.7742  1.7694  1.9195
 3966TIP3   OH236092   4.094   4.694  17.839 -0.3921 -0.5366 -0.0787
 3966TIP3    H136093   4.148   4.764  17.802  0.0785 -1.3381 -0.9467
 3966TIP3    H236094   4.155   4.641  17.889 -0.9380  0.2562  1.4912
 3967TIP3   OH236095   5.629   6.588  18.226 -0.3141  0.6965 -0.4497
 3967TIP3    H136096   5.598   6.542  18.148 -0.0797  0.4034 -0.3720
 3967TIP3    H236097   5.724   6.590  18.217 -0.3910  2.4559 -1.1633
 3968TIP3   OH236098   1.251   3.039  17.419  0.5641  0.0765  0.3185
 3968TIP3    H136099   1.262   2.947  17.397  3.0826  0.6589 -1.2391
 3968TIP3    H236100   1.170   3.065  17.375  0.3286 -1.1525 -0.0043
 3969TIP3   OH236101   2.746   2.947  19.414  0.1624  0.3883 -0.3797
 3969TIP3    H136102   2.699   2.983  19.339 -0.2147 -1.8482 -1.2999
 3969TIP3    H236103   2.797   3.021  19.448  0.8717  1.3802 -3.2480
 3970TIP3   OH236104   0.407   0.070  17.468 -0.0567  0.1150  0.0250
 3970TIP3    H136105   0.397   0.162  17.493 -1.5458  0.0708 -0.3137
 3970TIP3    H236106   0.423   0.024  17.551  0.0220  0.5851  0.2757
 3971TIP3   OH236107   4.913   0.926  17.201 -0.0736  0.1973  0.6163
 3971TIP3    H136108   4.829   0.937  17.246 -1.5071  1.9733 -2.2471
 3971TIP3    H236109   4.973   0.982  17.250 -1.6720  2.4137  0.1740
 3972TIP3   OH236110   3.622   0.380  17.796  0.2377  0.5007 -0.1565
 3972TIP3    H136111   3.704   0.393  17.843 -0.7020  1.0084  1.4234
 3972TIP3    H236112   3.637   0.417  17.710  0.9646  2.6504  0.8333
 3973TIP3   OH236113   5.945   4.281  17.720  0.2009  0.4653 -0.4152
 3973TIP3    H136114   5.936   4.331  17.639  0.3817 -1.7641 -1.9125
 3973TIP3    H236115   5.868   4.224  17.721  1.2035 -0.9345 -0.0947
 3974TIP3   OH236116   1.885   3.522  17.811  0.5161  0.6324 -0.4464
 3974TIP3    H136117   1.883   3.452  17.876 -0.1130 -0.2568 -1.4178
 3974TIP3    H236118   1.973   3.559  17.820  0.5818  0.2703  0.6225
 3975TIP3   OH236119   4.582   5.605  17.822 -0.5918  0.2989 -0.3531
 3975TIP3    H136120   4.528   5.530  17.797 -0.6629  0.3814 -0.4492
 3975TIP3    H236121   4.666   5.567  17.847 -0.0663  0.3194 -1.9917
 3976TIP3   OH236122   1.738   3.312  18.954 -0.4457  0.1726  0.0332
 3976TIP3    H136123   1.742   3.318  18.858 -4.1528  1.1126 -0.2171
 3976TIP3    H236124   1.771   3.397  18.984  1.2399 -0.3238 -0.3218
 3977TIP3   OH236125   5.324   5.481  16.977 -0.0657  0.6768  0.0477
 3977TIP3    H136126   5.343   5.568  17.012 -1.0224  0.6568  0.6447
 3977TIP3    H236127   5.378   5.422  17.029  0.3483  0.8794 -0.1493
 3978TIP3   OH236128   0.297   1.751  19.144  0.9028 -0.1849  0.2638
 3978TIP3    H136129   0.293   1.715  19.056  0.5054  0.8163 -0.1426
 3978TIP3    H236130   0.390   1.772  19.157  0.6485  1.8684 -0.8584
 3979TIP3   OH236131   3.832   4.977  17.623  0.0130  0.1619 -0.3500
 3979TIP3    H136132   3.822   5.016  17.710 -0.6367 -1.4830  0.3699
 3979TIP3    H236133   3.757   4.918  17.615  0.7460 -0.6523 -1.5012
 3980TIP3   OH236134   4.563   6.912  18.402 -0.5837  0.0091 -0.2562
 3980TIP3    H136135   4.616   6.903  18.323 -0.7623 -4.5873 -0.0999
 3980TIP3    H236136   4.627   6.922  18.473 -0.3916  2.9113 -0.7196
 3981TIP3   OH236137   2.083   7.291  17.519 -0.3151  0.0477  0.2784
 3981TIP3    H136138   2.050   7.365  17.469  0.0499  2.4113  3.2537
 3981TIP3    H236139   2.010   7.265  17.576  0.2129 -0.4985  0.7306
 3982TIP3   OH236140   5.313   4.034  17.619  0.4956  1.3874 -0.3687
 3982TIP3    H136141   5.244   4.061  17.679  0.6702  1.8644 -0.3768
 3982TIP3    H236142   5.392   4.074  17.654  1.4509 -1.8810  1.5987
 3983TIP3   OH236143   2.309   6.935  18.446  0.2018  0.0070  0.4459
 3983TIP3    H136144   2.295   6.869  18.514  0.7770  1.0534  1.6353
 3983TIP3    H236145   2.386   6.984  18.477  1.4514 -0.4667 -1.7531
 3984TIP3   OH236146   3.264   0.413  19.158 -0.2908 -0.1375 -0.3919
 3984TIP3    H136147   3.229   0.328  19.183 -0.5553  0.1351  0.1667
 3984TIP3    H236148   3.310   0.397  19.075 -0.3663 -0.8127 -0.3009
 3985TIP3   OH236149   5.163   2.652  18.609 -0.1215 -0.1567 -0.3178
 3985TIP3    H136150   5.131   2.662  18.520  1.4091  1.3287 -0.7681
 3985TIP3    H236151   5.259   2.657  18.600  0.1810 -2.0577  1.1882
 3986TIP3   OH236152   4.921   4.915  18.854 -0.2982 -0.1170  0.0435
 3986TIP3    H136153   4.880   4.830  18.843 -0.9356  0.2471 -0.4532
 3986TIP3    H236154   5.015   4.896  18.861 -0.4453 -0.8597  0.0574
 3987TIP3   OH236155   5.024   2.470  18.392 -0.7749  0.1238  0.0545
 3987TIP3    H136156   5.026   2.436  18.303  1.8059  1.3940 -0.4724
 3987TIP3    H236157   5.077   2.407  18.442  1.2093  1.4741 -0.2355
 3988TIP3   OH236158   4.630   3.622  18.625 -0.1027  0.1107  0.1125
 3988TIP3    H136159   4.567   3.556  18.600  0.0061 -0.8084  2.0686
 3988TIP3    H236160   4.583   3.678  18.687  0.8292 -0.3459  1.2770
 3989TIP3   OH236161   2.101   4.765  19.202  0.4365  0.2982  0.1406
 3989TIP3    H136162   2.078   4.836  19.262  0.4059  1.2629 -0.9757
 3989TIP3    H236163   2.194   4.780  19.182  0.0271  0.9938 -1.3401
 3990TIP3   OH236164   7.649   4.904  17.821 -0.1812 -0.2206 -0.2988
 3990TIP3    H136165   7.571   4.936  17.866  1.1668  1.7704  0.7247
 3990TIP3    H236166   7.619   4.888  17.731 -1.6402  0.9661 -0.0683
 3991TIP3   OH236167   2.625   1.471  18.425 -0.9022  0.2999 -0.0317
 3991TIP3    H136168   2.718   1.489  18.417 -0.8477  0.7994  1.4678
 3991TIP3    H236169   2.583   1.525  18.358 -0.1286  0.0703 -0.7103
 3992TIP3   OH236170   1.719   0.671  17.564 -0.5668  0.0226 -0.0836
 3992TIP3    H136171   1.690   0.582  17.545 -0.1697 -0.3009  0.7730
 3992TIP3    H236172   1.806   0.660  17.603 -0.8400  0.7230  0.7545
 3993TIP3   OH236173   0.681   5.885  17.553 -0.1643 -0.4379  0.4937
 3993TIP3    H136174   0.606   5.843  17.511  0.2295 -0.7420  0.0893
 3993TIP3    H236175   0.644   5.961  17.598 -0.4812  0.3801 -1.0926
 3994TIP3   OH236176   7.062   4.734  19.381  0.0946 -0.1069  0.2542
 3994TIP3    H136177   7.069   4.728  19.476  1.2308 -1.1967  0.1340
 3994TIP3    H236178   7.140   4.689  19.349 -2.3232 -3.6091 -1.2504
 3995TIP3   OH236179   7.189   2.535  18.514 -0.4260  0.0634  0.4799
 3995TIP3    H136180   7.172   2.523  18.421 -1.6383 -0.2883  0.7297
 3995TIP3    H236181   7.148   2.620  18.535 -0.1099  0.1679  0.6802
 3996TIP3   OH236182   6.501   5.263  17.362 -0.2693  0.2162 -0.2434
 3996TIP3    H136183   6.582   5.226  17.398  0.2759  0.3076 -1.3204
 3996TIP3    H236184   6.529   5.345  17.320 -1.0068  0.4940 -0.2027
 3997TIP3   OH236185   4.475   4.387  17.834 -0.1146 -0.2410 -0.0215
 3997TIP3    H136186   4.481   4.457  17.769 -1.0576 -0.4007 -0.2986
 3997TIP3    H236187   4.492   4.307  17.785 -2.9271 -0.5851 -0.5836
 3998TIP3   OH236188   3.964   6.207  17.262  0.5610  0.6928 -0.6364
 3998TIP3    H136189   3.991   6.116  17.245  0.6352  0.9542 -2.0419
 3998TIP3    H236190   4.006   6.228  17.345  1.1258 -0.3419 -0.6289
 3999TIP3   OH236191   1.789   1.096  18.744  0.4922 -0.8638  0.5439
 3999TIP3    H136192   1.852   1.142  18.800  0.9628  1.8000 -1.9549
 3999TIP3    H236193   1.705   1.136  18.764  0.8830  1.1904 -1.5412
 4000TIP3   OH236194   2.455   4.298  17.996  0.1764 -0.2270 -0.5032
 4000TIP3    H136195   2.476   4.205  18.007 -2.3568 -0.7103  1.1120
 4000TIP3    H236196   2.383   4.299  17.932 -0.4114  0.5134  0.1475
 4001TIP3   OH236197   3.608   6.895  18.194 -0.4744 -0.0908 -0.1442
 4001TIP3    H136198   3.581   6.855  18.112  0.7509 -0.9844 -0.1351
 4001TIP3    H236199   3.551   6.972  18.204 -0.3346  0.2895 -2.0450
 4002TIP3   OH236200   3.312   1.465  18.683 -0.1028 -0.2240  0.3296
 4002TIP3    H136201   3.316   1.401  18.612  1.6103 -1.0158  1.0832
 4002TIP3    H236202   3.221   1.493  18.686 -0.4007 -0.8920 -1.5356
 4003TIP3   OH236203   3.752   2.669  18.607 -0.3956 -0.6206  0.0452
 4003TIP3    H136204   3.791   2.585  18.632  0.3106 -0.1312  0.6391
 4003TIP3    H236205   3.719   2.654  18.518 -0.5702 -1.6140  0.2639
 4004TIP3   OH236206   6.751   5.137  16.719  0.0460  0.0099 -0.3647
 4004TIP3    H136207   6.682   5.161  16.781 -0.3217  2.4202 -1.5945
 4004TIP3    H236208   6.762   5.043  16.731 -1.2712  0.0807  2.0398
 4005TIP3   OH236209   3.036   4.424  18.870 -0.3069  0.1851 -0.6652
 4005TIP3    H136210   3.062   4.430  18.962 -2.3948 -0.2450  0.0130
 4005TIP3    H236211   3.041   4.331  18.849  0.1853  0.2841 -1.0024
 4006TIP3   OH236212   7.069   1.506  19.214 -0.4111 -0.0930 -0.2867
 4006TIP3    H136213   7.074   1.415  19.244 -0.3671 -0.6899 -1.9980
 4006TIP3    H236214   7.044   1.499  19.122  0.5549  1.5958 -0.7065
 4007TIP3   OH236215   6.468   5.573  16.417 -0.0144  0.1571 -0.4178
 4007TIP3    H136216   6.397   5.558  16.355  0.1961  0.5752 -0.7630
 4007TIP3    H236217   6.425   5.574  16.502 -0.3352 -0.2144 -0.5702
 4008TIP3   OH236218   5.244   3.964  18.381  0.2212 -0.0934 -0.8174
 4008TIP3    H136219   5.188   4.017  18.437  0.4031 -0.9647  0.2085
 4008TIP3    H236220   5.333   3.982  18.411  0.2539 -1.4000 -0.0425
 4009TIP3   OH236221   4.241   2.056  17.338  0.1893  0.3552  0.6687
 4009TIP3    H136222   4.197   1.975  17.313  0.3672  0.1538  1.0059
 4009TIP3    H236223   4.186   2.125  17.300 -0.6353  0.1218  1.3908
 4010TIP3   OH236224   0.973   5.667  17.703 -0.4964 -0.1462  0.2605
 4010TIP3    H136225   1.069   5.666  17.707 -0.4953  0.2715  0.3602
 4010TIP3    H236226   0.946   5.684  17.793 -0.6549  0.1152  0.1642
 4011TIP3   OH236227   6.372   4.599  19.064  0.1090 -0.1278 -0.4422
 4011TIP3    H136228   6.419   4.677  19.032 -1.8813  1.1567 -0.4334
 4011TIP3    H236229   6.355   4.618  19.156  1.1800 -1.4297  0.0456
 4012TIP3   OH236230   0.727   5.811  18.909  0.8168  0.3453 -0.4281
 4012TIP3    H136231   0.772   5.843  18.832  0.4276 -0.4271 -0.9931
 4012TIP3    H236232   0.761   5.864  18.981  1.8659  0.4466 -0.9869
 4013TIP3   OH236233   6.013   4.139  18.809 -0.0874  0.2680  0.2252
 4013TIP3    H136234   6.070   4.216  18.801 -2.3279  1.9014 -1.5325
 4013TIP3    H236235   5.957   4.143  18.732 -1.1857 -2.4427  0.7696
 4014TIP3   OH236236   1.493   7.088  17.625 -0.2408 -0.5748  0.5237
 4014TIP3    H136237   1.509   7.131  17.709  1.8256  0.3755 -0.2898
 4014TIP3    H236238   1.488   7.160  17.562 -1.7502 -1.2765 -0.2119
 4015TIP3   OH236239   1.655   5.482  18.733 -0.3734 -0.1537 -0.3088
 4015TIP3    H136240   1.708   5.553  18.698 -0.2404  1.0182  2.0442
 4015TIP3    H236241   1.569   5.492  18.692  0.1910  0.1338 -1.4528
 4016TIP3   OH236242   3.799   0.415  18.533 -0.0663  0.4798  0.2718
 4016TIP3    H136243   3.812   0.342  18.594 -0.5856 -1.0462 -1.3646
 4016TIP3    H236244   3.705   0.432  18.537 -0.0953  0.4025 -0.0661
 4017TIP3   OH236245   1.870   1.010  19.138  0.1691  0.3290 -0.7773
 4017TIP3    H136246   1.916   1.041  19.216  0.2131  0.6559 -0.9323
 4017TIP3    H236247   1.842   1.090  19.093  0.4378  0.1502 -1.2710
 4018TIP3   OH236248   5.952   4.608  18.738 -0.3033 -0.0491 -0.1003
 4018TIP3    H136249   5.864   4.612  18.776  0.0448 -1.1919  0.8875
 4018TIP3    H236250   6.003   4.557  18.801  0.6609 -0.8018 -1.4536
 4019TIP3   OH236251   2.313   2.848  18.369  0.3222 -0.7332  0.7830
 4019TIP3    H136252   2.299   2.850  18.464 -1.0638 -1.1768  0.6041
 4019TIP3    H236253   2.398   2.890  18.357  0.3990 -0.4296  2.2002
 4020TIP3   OH236254   4.727   1.306  19.407 -0.0106  0.5153 -0.6132
 4020TIP3    H136255   4.634   1.285  19.404  0.1164 -0.3730  0.7138
 4020TIP3    H236256   4.770   1.222  19.423  0.8935  1.1124  0.2135
 4021TIP3   OH236257   4.304   1.460  18.089  0.6976  0.3690 -0.1516
 4021TIP3    H136258   4.246   1.532  18.114 -1.7227 -1.5899  0.3174
 4021TIP3    H236259   4.327   1.418  18.172 -1.6034 -1.9437 -0.5227
 4022TIP3   OH236260   0.233   1.424  18.897  0.0938 -0.2166 -0.3578
 4022TIP3    H136261   0.237   1.338  18.939  1.2684 -0.8685 -1.7037
 4022TIP3    H236262   0.322   1.459  18.905 -0.4160  0.9802  0.3477
 4023TIP3   OH236263   4.496   2.056  17.459  0.1245 -0.5977  0.0475
 4023TIP3    H136264   4.419   2.042  17.405  0.1591  0.9986 -0.4827
 4023TIP3    H236265   4.538   2.133  17.420 -0.0283  0.8484  2.5465
 4024TIP3   OH236266   1.361   4.219  18.798  0.3055 -0.2659 -0.1997
 4024TIP3    H136267   1.309   4.189  18.873  2.0735 -0.3200  1.0579
 4024TIP3    H236268   1.364   4.314  18.808  1.8863 -0.3850  0.7735
 4025TIP3   OH236269   7.248   2.111  19.492  0.4803 -0.1291 -0.0835
 4025TIP3    H136270   7.255   2.134  19.400  0.4066 -0.7806 -0.2510
 4025TIP3    H236271   7.165   2.148  19.520 -0.2743 -1.3145 -0.6936
 4026TIP3   OH236272   7.107   4.594  17.410 -0.3067  0.2578 -0.0783
 4026TIP3    H136273   7.180   4.534  17.396 -1.5013 -1.6768  1.4221
 4026TIP3    H236274   7.057   4.590  17.329  0.5007  0.5539 -0.6076
 4027TIP3   OH236275   1.639   2.712  16.868 -0.2599 -0.0272  0.2331
 4027TIP3    H136276   1.707   2.743  16.927 -0.9236  0.7018  0.6428
 4027TIP3    H236277   1.557   2.745  16.907 -0.6336  1.5957 -1.7765
 4028TIP3   OH236278   7.614   7.480  18.195 -0.1412  0.3315  0.2592
 4028TIP3    H136279   7.571   7.399  18.222 -0.3074  1.0040  2.1009
 4028TIP3    H236280   7.597   7.485  18.101  0.2548 -1.9917 -0.0014
 4029TIP3   OH236281   0.996   7.229  18.936 -0.1853 -0.0965  0.2560
 4029TIP3    H136282   0.983   7.161  18.870 -1.4803 -0.9610  1.3534
 4029TIP3    H236283   0.917   7.282  18.932 -0.5801 -0.5547  1.5464
 4030TIP3   OH236284   2.675   3.615  19.427 -0.5140 -0.5169 -0.4023
 4030TIP3    H136285   2.652   3.695  19.475 -0.3796 -0.9367  0.3619
 4030TIP3    H236286   2.633   3.626  19.342 -0.8085  0.2028 -0.1693
 4031TIP3   OH236287   4.097   1.120  17.367  0.3485 -0.3720 -0.0528
 4031TIP3    H136288   4.143   1.080  17.293  0.1389 -0.5423 -0.0944
 4031TIP3    H236289   4.140   1.083  17.444  1.9104  1.3315 -0.0540
 4032TIP3   OH236290   7.648   6.521  17.479  0.2268  0.1229  0.6522
 4032TIP3    H136291   7.723   6.528  17.539  1.4965  0.7362 -0.9222
 4032TIP3    H236292   7.574   6.499  17.536  1.5523 -0.3371  2.2977
 4033TIP3   OH236293   0.688   0.231  19.440  0.3878 -0.0027  0.8037
 4033TIP3    H136294   0.691   0.228  19.344  0.0372 -0.1546  0.7970
 4033TIP3    H236295   0.685   0.140  19.467 -0.4033  0.0546  0.9278
 4034TIP3   OH236296   1.155   1.272  18.061  0.1819 -0.5697 -0.5766
 4034TIP3    H136297   1.251   1.270  18.059  0.2647 -2.1024  1.1370
 4034TIP3    H236298   1.130   1.180  18.068 -1.4176 -0.1752 -0.7479
 4035TIP3   OH236299   3.335   6.637  17.630  0.3474 -0.2813  0.4133
 4035TIP3    H136300   3.384   6.718  17.646 -1.3389  0.8460  0.1185
 4035TIP3    H236301   3.384   6.570  17.677  1.4666  1.0202  1.1812
 4036TIP3   OH236302   2.523   2.694  17.549  0.2394 -0.3311 -0.0260
 4036TIP3    H136303   2.476   2.612  17.534  0.9552 -0.4269 -1.9651
 4036TIP3    H236304   2.508   2.746  17.470  0.0510  1.3183  1.0351
 4037TIP3   OH236305   5.903   5.513  19.291  0.1657  0.0440 -0.2165
 4037TIP3    H136306   5.931   5.438  19.344  1.3462  0.5299 -0.1317
 4037TIP3    H236307   5.808   5.517  19.304  0.2910 -0.4977  1.0085
 4038TIP3   OH236308   6.260   0.132  16.793  0.4728  0.1978  0.5962
 4038TIP3    H136309   6.297   0.055  16.751  1.2179  0.4263  0.8169
 4038TIP3    H236310   6.206   0.098  16.864  0.6021 -0.1264  0.5369
 4039TIP3   OH236311   4.544   6.227  17.290 -0.1886  0.0124 -0.3653
 4039TIP3    H136312   4.632   6.231  17.253 -0.8000  1.3056 -1.7827
 4039TIP3    H236313   4.502   6.155  17.243 -0.3846  0.4416 -0.8496
 4040TIP3   OH236314   3.522   4.494  19.123 -0.3038 -0.8893 -0.7243
 4040TIP3    H136315   3.448   4.455  19.170 -0.6624 -2.0400 -2.1790
 4040TIP3    H236316   3.481   4.541  19.049  0.1708  1.6753  0.5199
 4041TIP3   OH236317   3.343   0.651  17.459  0.4915 -0.3713 -0.5797
 4041TIP3    H136318   3.324   0.676  17.368  1.0872  0.6185 -0.4471
 4041TIP3    H236319   3.408   0.715  17.488 -0.5858  0.0865  0.9276
 4042TIP3   OH236320   5.157   4.677  18.693  0.3152 -0.2566  0.5726
 4042TIP3    H136321   5.212   4.731  18.636 -1.4388  1.3754  0.3525
 4042TIP3    H236322   5.070   4.681  18.654 -0.2614 -1.7558  1.6071
 4043TIP3   OH236323   4.069   3.544  18.492 -0.4686  0.5518 -0.0460
 4043TIP3    H136324   4.084   3.485  18.419  2.2734 -0.3208  1.0942
 4043TIP3    H236325   4.030   3.489  18.560 -0.7876  0.7884 -0.0371
 4044TIP3   OH236326   6.430   2.388  18.671 -0.0206 -0.1877 -0.1517
 4044TIP3    H136327   6.477   2.335  18.606 -1.6664 -1.5891 -0.2544
 4044TIP3    H236328   6.459   2.478  18.653  0.4949 -0.6747 -2.0246
 4045TIP3   OH236329   1.632   6.865  17.614 -0.4413  0.0391 -0.0125
 4045TIP3    H136330   1.595   6.953  17.624 -0.4817 -0.1668  2.0427
 4045TIP3    H236331   1.575   6.809  17.666  0.9450 -0.8044  0.6617
 4046TIP3   OH236332   4.791   5.883  17.452  0.0228  0.3384  0.0384
 4046TIP3    H136333   4.832   5.899  17.367  0.5435  0.9144  0.3891
 4046TIP3    H236334   4.863   5.889  17.515 -0.4299  0.3293  0.5670
 4047TIP3   OH236335   2.861   5.355  19.055 -0.0464  0.1272 -0.0006
 4047TIP3    H136336   2.857   5.328  19.146  0.2812  0.5388  0.1429
 4047TIP3    H236337   2.941   5.314  19.022  0.7185  1.2733  0.3509
 4048TIP3   OH236338   3.673   6.457  16.675 -0.3627  0.0723  0.3655
 4048TIP3    H136339   3.607   6.505  16.625 -0.4659 -0.3737  0.0619
 4048TIP3    H236340   3.661   6.485  16.765  1.6596  3.0978 -0.1370
 4049TIP3   OH236341   3.407   4.472  18.198  0.1578  0.3297  0.2378
 4049TIP3    H136342   3.340   4.406  18.212  2.1220 -2.0932 -0.9940
 4049TIP3    H236343   3.443   4.489  18.285 -1.9233  1.6701  0.9170
 4050TIP3   OH236344   5.564   2.478  16.501 -0.3789 -0.2294 -0.2192
 4050TIP3    H136345   5.478   2.486  16.459  0.3670  2.1545 -1.4679
 4050TIP3    H236346   5.554   2.519  16.586 -0.8460 -1.3384  0.2713
 4051TIP3   OH236347   7.531   4.343  18.119  0.4432  0.0668  0.1481
 4051TIP3    H136348   7.532   4.296  18.035  0.3129 -1.2420  0.8550
 4051TIP3    H236349   7.622   4.339  18.149  0.2408 -0.6530  0.6920
 4052TIP3   OH236350   4.521   6.989  17.664 -0.4837 -0.3492 -0.3171
 4052TIP3    H136351   4.496   7.079  17.685 -1.4307 -0.0107 -2.5590
 4052TIP3    H236352   4.440   6.938  17.674 -0.3239 -0.6556 -0.5552
 4053TIP3   OH236353   4.984   0.748  18.073  0.2064 -0.2081  0.0376
 4053TIP3    H136354   4.965   0.657  18.052  1.7523 -0.4272 -0.5505
 4053TIP3    H236355   4.920   0.798  18.023 -0.4439 -0.9468  0.1073
 4054TIP3   OH236356   7.398   5.962  17.672 -0.1937  0.2011  0.1170
 4054TIP3    H136357   7.466   5.896  17.660 -1.1231 -0.6568 -0.6599
 4054TIP3    H236358   7.426   6.012  17.749  1.2041 -0.2381 -0.0762
 4055TIP3   OH236359   4.903   7.045  18.093  0.5785  0.4376  0.7480
 4055TIP3    H136360   4.963   7.066  18.021 -0.1300  0.0407  0.0287
 4055TIP3    H236361   4.836   7.113  18.090  1.2592  1.2016  1.9043
 4056TIP3   OH236362   0.939   2.404  17.398  0.0482 -0.3687 -0.1937
 4056TIP3    H136363   0.999   2.333  17.377 -0.5825 -0.7198 -0.8975
 4056TIP3    H236364   0.876   2.365  17.459  1.1480  0.3056  1.4345
 4057TIP3   OH236365   3.144   1.292  16.757 -0.4103  0.4574  0.4359
 4057TIP3    H136366   3.229   1.324  16.725 -0.8100  0.9955 -0.1035
 4057TIP3    H236367   3.117   1.358  16.821  0.2793 -0.4981  1.7424
 4058TIP3   OH236368   1.422   5.512  17.983  0.0314  0.0146 -0.4238
 4058TIP3    H136369   1.373   5.591  17.963 -0.0739 -0.2579 -1.2821
 4058TIP3    H236370   1.358   5.441  17.974  0.1243 -0.1805  0.3274
 4059TIP3   OH236371   5.961   3.209  18.269  0.0049  0.2049 -0.1804
 4059TIP3    H136372   5.877   3.190  18.229  0.0480 -0.5900  0.0893
 4059TIP3    H236373   6.025   3.199  18.198  0.0916 -1.2966  0.0784
 4060TIP3   OH236374   4.073   1.032  18.457  0.2865  0.8841 -0.2999
 4060TIP3    H136375   4.066   1.009  18.550 -1.2379  1.1518 -0.3083
 4060TIP3    H236376   4.120   1.115  18.456 -0.6242  1.4232  0.3405
 4061TIP3   OH236377   5.036   1.932  18.633 -0.5675  0.2673  0.4087
 4061TIP3    H136378   4.978   1.910  18.705 -1.3037 -4.8412 -1.2989
 4061TIP3    H236379   4.978   1.961  18.563 -0.6753 -0.9532 -0.0347
 4062TIP3   OH236380   3.423   1.969  19.048  0.0617  0.2300 -0.3295
 4062TIP3    H136381   3.420   2.009  18.961 -0.1137 -1.4905 -1.1757
 4062TIP3    H236382   3.332   1.949  19.068  0.1023  0.6426  0.2612
 4063TIP3   OH236383   0.546   2.816  19.100  0.2608  0.3463  0.4602
 4063TIP3    H136384   0.561   2.747  19.164  2.1276 -1.4607 -1.7531
 4063TIP3    H236385   0.610   2.884  19.121  1.3630 -0.5617  0.1622
 4064TIP3   OH236386   6.130   0.586  18.129 -0.5784  0.2449 -0.1980
 4064TIP3    H136387   6.220   0.587  18.097 -0.0263 -0.0852  1.2478
 4064TIP3    H236388   6.120   0.669  18.176 -0.6198 -0.2311  0.6582
 4065TIP3   OH236389   0.508   5.314  17.629  0.1104  0.1623 -0.0917
 4065TIP3    H136390   0.557   5.393  17.608  0.9795 -0.6053 -1.0488
 4065TIP3    H236391   0.493   5.318  17.723  0.1675  1.4368 -0.1242
 4066TIP3   OH236392   2.819   1.444  19.150 -0.2759 -0.4864  0.3424
 4066TIP3    H136393   2.859   1.509  19.209 -1.6087 -0.1546  0.9168
 4066TIP3    H236394   2.871   1.364  19.165  2.5972  0.8083 -1.7289
 4067TIP3   OH236395   0.214   3.703  19.525 -0.5197  0.1090  0.1378
 4067TIP3    H136396   0.213   3.608  19.521  1.3207  0.0249  0.6394
 4067TIP3    H236397   0.156   3.725  19.598 -1.5641 -0.5555 -0.4649
 4068TIP3   OH236398   0.873   2.726  18.891  0.0577  0.3027 -0.0293
 4068TIP3    H136399   0.838   2.710  18.803 -0.7776 -0.1822  0.3849
 4068TIP3    H236400   0.874   2.822  18.899 -0.1501  0.3441 -0.4512
 4069TIP3   OH236401   0.106   6.299  17.363  0.1403 -0.3398  0.1721
 4069TIP3    H136402   0.176   6.269  17.420  1.0399  0.3391 -0.5483
 4069TIP3    H236403   0.061   6.366  17.415  0.2913 -0.4723  0.4779
 4070TIP3   OH236404   3.296   3.510  18.508  0.8568  0.1584  0.5572
 4070TIP3    H136405   3.227   3.475  18.565  1.0665  0.4246  0.9763
 4070TIP3    H236406   3.273   3.602  18.497 -0.0090 -0.2026 -0.9980
 4071TIP3   OH236407   7.611   4.066  18.048 -0.0656 -0.3038 -0.4677
 4071TIP3    H136408   7.617   3.988  17.993 -1.2352  0.3127 -1.5220
 4071TIP3    H236409   7.573   4.133  17.991 -0.6219  0.5740  0.8860
 4072TIP3   OH236410   3.840   0.880  18.315 -0.1043  0.1489  0.1717
 4072TIP3    H136411   3.909   0.944  18.295  0.3606 -0.4238 -0.0714
 4072TIP3    H236412   3.765   0.934  18.341  1.0415  0.7591  2.4817
 4073TIP3   OH236413   2.068   2.673  17.999 -0.2909 -0.2231  0.1868
 4073TIP3    H136414   2.041   2.740  18.061 -2.8971 -2.3419  1.5644
 4073TIP3    H236415   2.109   2.605  18.053 -0.4194 -1.0556 -0.7279
 4074TIP3   OH236416   5.830   4.592  17.790 -0.3563  0.0447  0.2329
 4074TIP3    H136417   5.796   4.554  17.709  1.5728 -1.5196  0.0797
 4074TIP3    H236418   5.816   4.524  17.856  0.6083  0.1728  0.5820
 4075TIP3   OH236419   0.229   3.031  16.933  0.1250 -0.1424 -0.3529
 4075TIP3    H136420   0.168   3.094  16.897 -0.9461 -0.5454  0.6868
 4075TIP3    H236421   0.279   2.999  16.858 -2.0873 -1.0354 -1.5145
 4076TIP3   OH236422   6.964   4.704  18.758 -0.4220  0.8640  0.0069
 4076TIP3    H136423   6.877   4.729  18.790 -0.3399  2.1911 -0.7135
 4076TIP3    H236424   6.976   4.757  18.679  1.6081  1.7439  0.8513
 4077TIP3   OH236425   6.094   0.580  17.469 -0.2254  0.1804 -0.2191
 4077TIP3    H136426   6.036   0.504  17.476  0.0601  0.0041  0.2816
 4077TIP3    H236427   6.131   0.590  17.556  0.3084  0.4458 -0.4726
 4078TIP3   OH236428   7.023   6.531  18.312 -0.0053 -0.2101  0.2172
 4078TIP3    H136429   7.100   6.587  18.307  0.1298 -0.4218 -0.0569
 4078TIP3    H236430   6.991   6.544  18.402 -0.0586  0.4089  0.1100
 4079TIP3   OH236431   3.727   3.611  17.191  0.5525 -0.5500 -0.0083
 4079TIP3    H136432   3.720   3.515  17.189  1.9109 -0.8595  3.2442
 4079TIP3    H236433   3.684   3.637  17.272 -1.0642  1.8612 -1.4907
 4080TIP3   OH236434   0.666   2.235  16.609 -0.4705 -0.8023 -0.2577
 4080TIP3    H136435   0.714   2.222  16.527 -1.5046 -0.0542 -1.0172
 4080TIP3    H236436   0.652   2.146  16.643  1.2629 -1.0344 -0.0984
 4081TIP3   OH236437   6.495   3.339  18.436 -0.4080  0.2082 -0.5642
 4081TIP3    H136438   6.451   3.276  18.379  0.2110 -1.9268  1.1613
 4081TIP3    H236439   6.425   3.387  18.479 -0.8866  1.0918 -2.2219
 4082TIP3   OH236440   5.309   2.829  16.702  0.3010 -0.3987 -0.0366
 4082TIP3    H136441   5.267   2.881  16.770  0.7598  0.0713 -0.1005
 4082TIP3    H236442   5.281   2.739  16.719 -1.5852  0.0155 -0.7307
 4083TIP3   OH236443   7.588   4.867  19.151 -0.6116 -1.0484  0.2557
 4083TIP3    H136444   7.666   4.891  19.100  0.0529 -0.1217  1.6354
 4083TIP3    H236445   7.533   4.818  19.090 -0.2777  0.7842 -1.6262
 4084TIP3   OH236446   0.848   1.586  16.941 -0.6165 -0.4859  0.0885
 4084TIP3    H136447   0.934   1.586  16.982 -0.2520 -2.6558 -0.5361
 4084TIP3    H236448   0.850   1.659  16.880  1.1122 -0.9845 -0.5154
 4085TIP3   OH236449   5.911   6.763  18.483  0.1917  0.2585  0.6536
 4085TIP3    H136450   5.831   6.816  18.493  0.2809  0.0618  2.9845
 4085TIP3    H236451   5.900   6.720  18.398 -0.8773  2.3336 -0.3489
 4086TIP3   OH236452   6.868   6.352  16.301  0.1443 -0.0530 -0.3603
 4086TIP3    H136453   6.952   6.391  16.325  0.2549 -0.3615 -0.2399
 4086TIP3    H236454   6.803   6.409  16.343  0.3441 -0.7663  0.9798
 4087TIP3   OH236455   4.689   4.667  17.951 -0.2903  0.1938 -1.0375
 4087TIP3    H136456   4.644   4.726  17.891  0.0201  1.1360 -0.3792
 4087TIP3    H236457   4.685   4.712  18.036  0.1863 -0.6106 -0.5764
 4088TIP3   OH236458   4.845   6.881  18.346  0.1229 -0.2404 -0.8011
 4088TIP3    H136459   4.937   6.899  18.366 -0.1512  0.9091 -0.4960
 4088TIP3    H236460   4.825   6.939  18.272 -0.2441 -0.8185 -1.1681
 4089TIP3   OH236461   5.352   1.919  17.960  0.3973  0.0801 -0.1830
 4089TIP3    H136462   5.370   1.989  18.022  0.9251 -0.3274  0.1267
 4089TIP3    H236463   5.275   1.949  17.912  1.2303  1.3377 -0.7640
 4090TIP3   OH236464   1.011   1.151  18.932  0.0858  0.1188  0.6141
 4090TIP3    H136465   0.975   1.062  18.927 -0.1267  0.1817  0.9790
 4090TIP3    H236466   1.105   1.139  18.915 -0.0079 -0.1200  0.2366
 4091TIP3   OH236467   4.752   0.661  19.006  0.3677 -0.3704  0.4050
 4091TIP3    H136468   4.742   0.680  18.913  1.0672 -0.3330  0.3345
 4091TIP3    H236469   4.713   0.736  19.051 -1.3054 -1.0604  0.1639
 4092TIP3   OH236470   7.274   3.231  17.178 -0.4556  0.1181  0.2939
 4092TIP3    H136471   7.351   3.187  17.214  0.1204 -1.5739 -2.6850
 4092TIP3    H236472   7.201   3.178  17.206  0.0321 -1.4824 -1.2616
 4093TIP3   OH236473   5.359   7.331  17.339 -0.2953 -0.1989  0.3975
 4093TIP3    H136474   5.372   7.361  17.249 -1.4633 -2.3041 -0.5621
 4093TIP3    H236475   5.269   7.357  17.360 -0.7535 -1.4967  0.1441
 4094TIP3   OH236476   1.199   6.810  18.777  0.2905 -0.5650  0.4021
 4094TIP3    H136477   1.244   6.886  18.814  0.6676 -0.8646  0.5744
 4094TIP3    H236478   1.111   6.814  18.814  0.4850 -0.5326  0.8656
 4095TIP3   OH236479   3.536   2.516  18.051 -0.1689 -0.0679 -0.5342
 4095TIP3    H136480   3.611   2.575  18.050 -1.6899  1.9732 -0.8862
 4095TIP3    H236481   3.533   2.480  17.963 -0.3141  0.8476 -0.9223
 4096TIP3   OH236482   6.930   3.916  17.705  0.4687  0.1452 -0.5039
 4096TIP3    H136483   7.017   3.896  17.739  0.3040 -0.4452 -0.4260
 4096TIP3    H236484   6.909   4.002  17.742  0.5791 -0.1785  0.3262
 4097TIP3   OH236485   5.989   1.165  18.036  0.5282  0.2945  0.2129
 4097TIP3    H136486   5.940   1.091  18.000  0.7750  0.1501  0.1659
 4097TIP3    H236487   5.935   1.197  18.108  1.2290 -1.0670  1.4083
 4098TIP3   OH236488   4.229   2.474  19.003  0.1269 -0.0894 -0.1875
 4098TIP3    H136489   4.236   2.514  18.916  0.2987  0.3277  0.0130
 4098TIP3    H236490   4.135   2.460  19.015  0.0253  0.6255 -0.1024
 4099TIP3   OH236491   0.484   5.759  17.154 -0.0361 -0.5022 -0.0351
 4099TIP3    H136492   0.462   5.690  17.092  1.1552 -1.1630  0.2354
 4099TIP3    H236493   0.466   5.841  17.107  0.8969 -0.9907 -1.3044
 4100TIP3   OH236494   7.356   4.420  18.948 -0.7644 -0.1070  0.5449
 4100TIP3    H136495   7.363   4.503  18.995  1.6950  0.6400 -0.9345
 4100TIP3    H236496   7.324   4.444  18.861  0.5752 -0.5533 -0.1082
 4101TIP3   OH236497   2.026   6.856  17.420 -0.1716 -0.0626  0.1229
 4101TIP3    H136498   2.089   6.797  17.379 -0.2605 -0.2001  0.1850
 4101TIP3    H236499   2.025   6.830  17.512  0.0160  0.2354  0.2107
 4102TIP3   OH236500   6.009   1.105  17.303  0.0389 -0.4485 -0.4601
 4102TIP3    H136501   5.960   1.032  17.267  0.7634 -0.3619 -1.6573
 4102TIP3    H236502   5.973   1.182  17.259 -0.5973 -0.0798  0.6611
 4103TIP3   OH236503   5.554   3.315  17.793 -0.7040 -0.0397  0.0560
 4103TIP3    H136504   5.625   3.292  17.853 -0.3374  0.6619 -0.0944
 4103TIP3    H236505   5.589   3.388  17.741 -0.2313 -1.9322 -2.4771
 4104TIP3   OH236506   4.676   5.177  17.962 -0.1936 -0.2788  0.3354
 4104TIP3    H136507   4.684   5.269  17.986 -0.4989 -0.0048 -0.5616
 4104TIP3    H236508   4.611   5.142  18.022  0.6365 -0.1541  1.3234
 4105TIP3   OH236509   2.648   1.871  17.854  0.7351 -0.0494 -0.1282
 4105TIP3    H136510   2.619   1.933  17.920  1.1018  0.1584 -0.1560
 4105TIP3    H236511   2.711   1.920  17.801  2.7168 -1.0274  1.1571
 4106TIP3   OH236512   1.563   4.345  18.508  0.3743 -0.0298  0.1414
 4106TIP3    H136513   1.609   4.363  18.590  0.3206  0.5941  0.0415
 4106TIP3    H236514   1.500   4.277  18.530 -0.9669  1.4473  1.1023
 4107TIP3   OH236515   1.487   2.785  17.310 -0.5490  0.6680  0.3361
 4107TIP3    H136516   1.454   2.858  17.259  0.8323  1.0674 -0.0190
 4107TIP3    H236517   1.513   2.823  17.394  0.3060  0.6336  0.0991
 4108TIP3   OH236518   0.614   7.097  17.207 -0.5793 -0.1471  0.5493
 4108TIP3    H136519   0.586   7.084  17.117  0.3553  0.9276  0.0856
 4108TIP3    H236520   0.692   7.152  17.201 -0.7401  0.2935  2.0305
 4109TIP3   OH236521   1.471   0.188  18.046 -0.1453 -0.0678 -0.0169
 4109TIP3    H136522   1.536   0.187  17.976 -1.9016 -1.3904 -1.7271
 4109TIP3    H236523   1.428   0.272  18.037 -1.1499 -0.6889 -1.3587
 4110TIP3   OH236524   7.422   6.964  17.078  0.1533 -0.3164  0.3484
 4110TIP3    H136525   7.380   7.049  17.071  1.9841  0.6351  0.3522
 4110TIP3    H236526   7.381   6.922  17.154 -1.9153 -0.1633 -0.6048
 4111TIP3   OH236527   1.345   2.158  18.652  0.0748 -0.1727  0.0687
 4111TIP3    H136528   1.385   2.241  18.625  1.8708 -0.5451  1.4266
 4111TIP3    H236529   1.364   2.150  18.745 -1.4458 -1.3868  0.3306
 4112TIP3   OH236530   6.123   2.849  18.506  0.0524 -0.1753 -0.0441
 4112TIP3    H136531   6.169   2.795  18.441 -2.1245 -1.3571 -0.7004
 4112TIP3    H236532   6.143   2.939  18.482  3.0578 -0.5822  0.5264
 4113TIP3   OH236533   7.575   2.314  16.328  0.0079  0.0242  0.0696
 4113TIP3    H136534   7.536   2.286  16.245  0.2161  0.5848 -0.2261
 4113TIP3    H236535   7.663   2.344  16.305  0.3176 -0.4399  0.6026
 4114TIP3   OH236536   2.222   3.041  19.226 -0.0785 -0.4337  0.2849
 4114TIP3    H136537   2.167   2.963  19.216 -0.0391 -0.7368  2.1192
 4114TIP3    H236538   2.234   3.050  19.321  2.9079 -0.2936  0.0007
 4115TIP3   OH236539   1.723   1.348  17.783 -0.5632 -0.1173 -0.5463
 4115TIP3    H136540   1.767   1.331  17.866  2.2131  1.9003 -1.4519
 4115TIP3    H236541   1.685   1.264  17.759  3.6604 -2.4511 -0.0615
 4116TIP3   OH236542   3.387   1.350  18.430  0.1202  0.2501 -0.3246
 4116TIP3    H136543   3.315   1.352  18.367 -0.7295  0.0807  0.6277
 4116TIP3    H236544   3.450   1.288  18.392 -1.2973 -1.4367 -0.0642
 4117TIP3   OH236545   3.560   1.675  17.344 -0.0291 -0.1025 -0.3684
 4117TIP3    H136546   3.561   1.597  17.289  0.7284  1.2084 -2.3243
 4117TIP3    H236547   3.651   1.689  17.369 -0.1679  0.1287  0.0231
 4118TIP3   OH236548   4.339   4.767  17.261  0.2034  0.3512 -0.8544
 4118TIP3    H136549   4.344   4.687  17.210 -0.8546  0.1601 -0.6840
 4118TIP3    H236550   4.270   4.751  17.325  0.4126  1.1683 -0.4028
 4119TIP3   OH236551   7.611   6.217  19.397  0.7309 -0.6560 -0.1225
 4119TIP3    H136552   7.622   6.304  19.437  1.9625 -0.3462 -1.0409
 4119TIP3    H236553   7.520   6.215  19.368  0.3729 -0.1215  0.8906
 4120TIP3   OH236554   7.661   1.414  17.301  0.3783 -0.1049  0.3287
 4120TIP3    H136555   7.576   1.382  17.269 -0.2730  1.1903  0.6980
 4120TIP3    H236556   7.657   1.400  17.396  1.4224 -1.8971  0.1673
 4121TIP3   OH236557   4.589   1.631  17.222 -0.5159 -0.3437  0.4692
 4121TIP3    H136558   4.529   1.558  17.240  0.0364 -0.6697  1.0568
 4121TIP3    H236559   4.534   1.709  17.229 -1.5197 -0.7461 -1.9054
 4122TIP3   OH236560   1.141   7.491  16.944  0.2437  0.1591 -0.0446
 4122TIP3    H136561   1.214   7.524  16.997  0.4017  0.9241 -0.7178
 4122TIP3    H236562   1.171   7.407  16.910  1.0685  0.7417 -0.8008
 4123TIP3   OH236563   4.078   2.690  17.957 -0.1855 -0.1519  0.2458
 4123TIP3    H136564   4.111   2.720  17.872 -0.1354  0.0169  0.3236
 4123TIP3    H236565   3.993   2.651  17.937  0.0565 -0.5839  0.0459
 4124TIP3   OH236566   5.484   6.957  16.836  0.1976 -0.0366 -0.3435
 4124TIP3    H136567   5.458   7.042  16.870 -0.1815 -0.3669  0.2097
 4124TIP3    H236568   5.555   6.976  16.775  0.5419  0.6141  0.2494
 4125TIP3   OH236569   6.920   6.302  18.583  0.0424  0.6284 -0.0006
 4125TIP3    H136570   6.950   6.390  18.605 -1.4889  1.3185 -0.5061
 4125TIP3    H236571   6.906   6.304  18.489  1.3504 -0.6330 -0.2649
 4126TIP3   OH236572   6.537   2.250  17.437 -0.1588 -0.6701 -0.8035
 4126TIP3    H136573   6.592   2.327  17.449  0.7401 -1.4739  0.6056
 4126TIP3    H236574   6.595   2.176  17.457 -1.0910 -1.6891 -1.7472
 4127TIP3   OH236575   6.479   2.599  17.871  0.5596 -0.8145  0.5393
 4127TIP3    H136576   6.432   2.659  17.813  1.3131  0.2076  0.9543
 4127TIP3    H236577   6.416   2.529  17.890  0.9121 -2.4227 -3.2267
 4128TIP3   OH236578   4.320   3.156  19.037  0.1755 -0.0294 -0.0595
 4128TIP3    H136579   4.402   3.181  19.080 -0.3978 -2.1940  2.6098
 4128TIP3    H236580   4.277   3.239  19.016  2.3447  1.1376 -0.1527
 4129TIP3   OH236581   1.123   5.205  17.336  0.3839  0.0737 -0.1861
 4129TIP3    H136582   1.186   5.142  17.370 -0.3173 -0.5775 -0.0677
 4129TIP3    H236583   1.053   5.152  17.297 -0.2022  0.7664 -0.1207
 4130TIP3   OH236584   2.580   5.749  18.687  0.0292 -0.3987  0.4722
 4130TIP3    H136585   2.521   5.804  18.636  0.6673  0.7115  0.8954
 4130TIP3    H236586   2.579   5.787  18.775  1.5295 -0.2170  0.4325
 4131TIP3   OH236587   6.835   4.585  19.292  0.3378  0.0465  0.0006
 4131TIP3    H136588   6.913   4.617  19.336 -0.1213 -1.4076  2.0532
 4131TIP3    H236589   6.864   4.506  19.246 -0.0140 -1.0319  1.5271
 4132TIP3   OH236590   0.012   4.957  17.021 -0.5864 -0.0753  0.2033
 4132TIP3    H136591   0.012   4.916  16.935  0.1202  0.0008  0.1558
 4132TIP3    H236592   0.100   4.940  17.055 -0.5594  0.6704  0.5329
 4133TIP3   OH236593   0.428   6.268  18.204 -0.1080 -0.0001 -0.1599
 4133TIP3    H136594   0.521   6.246  18.196 -0.1651 -0.0539 -0.6628
 4133TIP3    H236595   0.385   6.185  18.224 -0.4441 -0.5780 -2.9360
 4134TIP3   OH236596   7.275   4.235  18.640  0.0275 -0.7030  0.8929
 4134TIP3    H136597   7.196   4.186  18.623 -0.3058  0.6230 -2.0602
 4134TIP3    H236598   7.244   4.323  18.665  0.4973 -0.0782 -0.6149
 4135TIP3   OH236599   5.047   1.247  19.422 -0.5374  0.8069 -0.2591
 4135TIP3    H136600   5.121   1.309  19.422 -0.1841  0.5361  2.9002
 4135TIP3    H236601   4.970   1.303  19.424 -0.2496  1.1896  1.2646
 4136TIP3   OH236602   4.422   6.628  19.150  0.3335  0.2988 -0.6511
 4136TIP3    H136603   4.382   6.692  19.208  0.4461 -1.2704  1.2474
 4136TIP3    H236604   4.381   6.644  19.065 -1.6222  1.0925  0.3851
 4137TIP3   OH236605   5.298   0.564  17.976  0.5656 -0.0525 -0.1554
 4137TIP3    H136606   5.385   0.568  17.935  0.2026 -1.5968 -1.1819
 4137TIP3    H236607   5.285   0.470  17.993 -1.8170 -0.1646 -2.1123
 4138TIP3   OH236608   3.077   0.120  18.383  0.5940 -0.6483 -0.4405
 4138TIP3    H136609   3.040   0.042  18.342 -0.1786 -0.3518 -0.3407
 4138TIP3    H236610   3.031   0.193  18.340  0.2905 -0.3094  0.4426
 4139TIP3   OH236611   0.262   0.872  19.622  0.1325  0.4086  0.1327
 4139TIP3    H136612   0.228   0.784  19.608  2.5899 -0.8288  1.3751
 4139TIP3    H236613   0.216   0.925  19.556 -1.4144 -1.7470 -0.6705
 4140TIP3   OH236614   3.665   7.562  17.454 -0.3133  0.3837  0.8366
 4140TIP3    H136615   3.639   7.545  17.364  0.5636  1.5365  0.3511
 4140TIP3    H236616   3.715   7.484  17.479  1.5321  1.0583 -0.5238
 4141TIP3   OH236617   3.700   2.336  18.769  0.0248 -0.4167  1.0121
 4141TIP3    H136618   3.795   2.326  18.768  0.0453 -0.1797  0.2765
 4141TIP3    H236619   3.668   2.271  18.706 -0.2623 -0.1053  0.8353
 4142TIP3   OH236620   7.573   5.620  17.369 -0.0712  0.5080 -0.6695
 4142TIP3    H136621   7.481   5.644  17.367 -0.5234 -0.6820  1.6765
 4142TIP3    H236622   7.575   5.528  17.343  0.5991  0.7631 -1.5873
 4143TIP3   OH236623   0.947   1.616  16.618 -0.1385 -0.2676  0.0142
 4143TIP3    H136624   0.993   1.676  16.559  0.2501 -2.1826 -1.7284
 4143TIP3    H236625   0.887   1.673  16.666 -1.5140  1.3054 -3.2093
 4144TIP3   OH236626   5.718   0.674  16.937  0.3203  0.3628  0.5728
 4144TIP3    H136627   5.654   0.745  16.938 -0.0525  0.1649  3.8892
 4144TIP3    H236628   5.685   0.611  17.001  1.6422 -1.8779 -0.8286
 4145TIP3   OH236629   3.971   1.355  17.873  0.2072 -0.0705  0.1433
 4145TIP3    H136630   3.946   1.409  17.948  1.4284  0.4385  0.1957
 4145TIP3    H236631   3.889   1.312  17.847 -0.3996  0.3623  1.2587
 4146TIP3   OH236632   3.600   5.569  18.002  0.4013 -0.0260  0.7484
 4146TIP3    H136633   3.558   5.518  18.071 -0.5130 -0.0688  0.1808
 4146TIP3    H236634   3.534   5.634  17.977  0.8044  0.1329  0.0739
 4147TIP3   OH236635   6.455   6.706  17.963 -0.7697 -0.6015 -0.1875
 4147TIP3    H136636   6.550   6.717  17.956 -0.6787 -0.3036  1.1873
 4147TIP3    H236637   6.419   6.783  17.920 -0.4103 -0.9483 -1.1308
 4148TIP3   OH236638   6.472   3.400  17.503 -0.0594 -0.3799 -0.5735
 4148TIP3    H136639   6.462   3.486  17.543  0.4881 -0.2922 -0.6125
 4148TIP3    H236640   6.431   3.408  17.417 -0.0780 -0.1835 -0.5460
 4149TIP3   OH236641   6.595   2.852  17.953 -0.3520  0.1741 -0.0177
 4149TIP3    H136642   6.627   2.916  17.889  2.2659 -0.1911  0.7928
 4149TIP3    H236643   6.613   2.767  17.914 -1.0570 -0.0653  0.1635
 4150TIP3   OH236644   2.260   4.564  18.469 -0.0297 -0.1529  0.3817
 4150TIP3    H136645   2.195   4.633  18.485 -0.3115 -0.1483 -0.6489
 4150TIP3    H236646   2.291   4.583  18.380  3.1101  1.2459  1.6401
 4151TIP3   OH236647   3.527   7.645  16.702  0.6663  0.0017  0.1583
 4151TIP3    H136648   3.569   7.720  16.744  1.2557 -0.8019  1.0597
 4151TIP3    H236649   3.588   7.573  16.716  0.6291 -0.4375 -1.6201
 4152TIP3   OH236650   2.725   1.642  19.530  0.3715 -0.6948 -0.2323
 4152TIP3    H136651   2.748   1.552  19.511 -0.6942 -1.0124 -0.0736
 4152TIP3    H236652   2.632   1.640  19.551  0.3644  0.4137 -0.0553
 4153TIP3   OH236653   4.144   1.658  18.180 -0.2340  0.0312  0.1677
 4153TIP3    H136654   4.163   1.751  18.169 -0.8599  0.1741  0.2685
 4153TIP3    H236655   4.059   1.646  18.138  0.7945 -0.9307 -1.8056
 4154TIP3   OH236656   3.010   2.578  18.160  0.3804  0.2672  0.2920
 4154TIP3    H136657   3.007   2.623  18.075 -0.6498  2.1635  1.2547
 4154TIP3    H236658   2.932   2.609  18.206  1.8232  0.7106  2.5897
 4155TIP3   OH236659   3.480   5.494  18.831  0.3841  0.5754 -0.0795
 4155TIP3    H136660   3.560   5.514  18.881  1.1181  0.2954 -1.1079
 4155TIP3    H236661   3.457   5.577  18.789 -0.2429  0.8150  0.7159
 4156TIP3   OH236662   6.719   1.418  19.445  0.0140 -0.1048  0.4220
 4156TIP3    H136663   6.687   1.474  19.516  0.2379  1.4933 -0.6911
 4156TIP3    H236664   6.807   1.450  19.426 -0.1636 -0.2868 -0.7949
 4157TIP3   OH236665   3.670   4.246  19.053  0.2971  0.1814  0.1160
 4157TIP3    H136666   3.658   4.208  19.140  0.7721  0.9939  0.5524
 4157TIP3    H236667   3.607   4.317  19.050 -1.9892 -1.7717 -1.4398
 4158TIP3   OH236668   6.223   2.676  18.052 -0.6766  0.1910  0.2418
 4158TIP3    H136669   6.189   2.667  18.141 -0.3444  0.3751  0.3899
 4158TIP3    H236670   6.225   2.586  18.018  0.2921 -0.0221  0.8366
 4159TIP3   OH236671   4.991   2.115  18.236 -0.2112  0.1809  0.1962
 4159TIP3    H136672   4.916   2.063  18.207  1.5911 -1.8777 -1.0833
 4159TIP3    H236673   5.023   2.159  18.158  0.5350  0.1830  0.4877
 4160TIP3   OH236674   2.154   2.713  17.305 -0.7979  0.4897 -0.3193
 4160TIP3    H136675   2.213   2.658  17.253  1.6002  0.9237  1.7335
 4160TIP3    H236676   2.079   2.657  17.324 -0.3566 -0.6289 -1.7192
 4161TIP3   OH236677   0.001   1.012  18.229  0.3602 -0.0264 -0.0283
 4161TIP3    H136678  -0.013   0.940  18.168 -0.3480  0.0963 -0.0100
 4161TIP3    H236679  -0.067   1.003  18.295  0.5306  0.4054  0.2161
 4162TIP3   OH236680   3.909   7.186  18.141  0.6654  0.4289 -0.2901
 4162TIP3    H136681   3.881   7.133  18.066 -0.6058  0.6746 -0.0173
 4162TIP3    H236682   3.895   7.276  18.113  1.2833  0.5723 -0.1585
 4163TIP3   OH236683   1.324   6.735  18.547 -0.4523  0.0811  0.1646
 4163TIP3    H136684   1.269   6.675  18.496 -0.4061  0.5255 -0.4134
 4163TIP3    H236685   1.274   6.751  18.627  0.0427 -1.6327  0.8640
 4164TIP3   OH236686   1.049   4.410  18.377  0.2106 -0.5516 -0.3474
 4164TIP3    H136687   1.102   4.331  18.374  1.6747  0.3666  0.0510
 4164TIP3    H236688   1.087   4.467  18.309  0.0058  0.2818  0.2175
 4165TIP3   OH236689   5.802   4.868  19.264  0.1466 -0.7094  0.1047
 4165TIP3    H136690   5.838   4.956  19.260  1.0526 -1.0738 -0.1157
 4165TIP3    H236691   5.708   4.880  19.262  0.2476  0.2895  0.7836
 4166TIP3   OH236692   5.452   4.435  17.828  0.3957  0.7769 -0.2389
 4166TIP3    H136693   5.422   4.351  17.862  0.4522  0.5269 -0.7956
 4166TIP3    H236694   5.373   4.476  17.793  0.3748  0.9436 -0.0011
 4167TIP3   OH236695   2.332   1.926  18.287  0.3370  0.1684  0.3380
 4167TIP3    H136696   2.289   1.940  18.371 -0.3050  1.3345 -0.1600
 4167TIP3    H236697   2.412   1.978  18.290  0.0767  0.5917  0.0609
 4168TIP3   OH236698   5.486   3.023  19.313 -0.5668 -0.4646 -0.1034
 4168TIP3    H136699   5.498   2.995  19.222 -3.2177 -0.5174 -0.5043
 4168TIP3    H236700   5.471   3.118  19.307 -2.3564 -0.7081  0.0580
 4169TIP3   OH236701   5.415   0.322  16.659  0.4853  0.2220  0.3070
 4169TIP3    H136702   5.469   0.310  16.580  0.2340  0.3073  0.1195
 4169TIP3    H236703   5.400   0.417  16.662 -1.3159  0.0063 -0.7610
 4170TIP3   OH236704   6.425   1.850  17.487  0.0007 -0.1762 -0.4323
 4170TIP3    H136705   6.384   1.930  17.519  1.3535  0.4899 -0.2570
 4170TIP3    H236706   6.407   1.785  17.556 -2.6558 -0.5897 -1.4099
 4171TIP3   OH236707   5.880   2.686  16.983  0.0083 -0.3192  0.1107
 4171TIP3    H136708   5.807   2.629  16.960  0.0692 -0.5931  0.5943
 4171TIP3    H236709   5.877   2.756  16.917 -1.2165  0.1585  0.6397
 4172TIP3   OH236710   5.230   6.998  17.452  0.4356  0.0740 -0.2138
 4172TIP3    H136711   5.177   6.918  17.455  0.6550 -0.1678 -1.7851
 4172TIP3    H236712   5.236   7.019  17.359  2.9685  0.1634 -0.0962
 4173TIP3   OH236713   1.554   3.557  18.722  0.2862 -0.0363 -0.1998
 4173TIP3    H136714   1.589   3.573  18.810  1.7495 -0.5619 -0.6591
 4173TIP3    H236715   1.487   3.624  18.711 -0.5409 -0.4949  1.6434
 4174TIP3   OH236716   3.551   1.098  19.305  0.3492  0.3590 -0.8802
 4174TIP3    H136717   3.607   1.022  19.322 -0.7267 -0.2626  0.0699
 4174TIP3    H236718   3.524   1.088  19.214 -0.9943 -1.2706 -0.3585
 4175TIP3   OH236719   7.541   6.598  19.422 -0.2269  0.0771  0.6664
 4175TIP3    H136720   7.598   6.542  19.476 -0.5933 -2.0104 -1.0007
 4175TIP3    H236721   7.453   6.583  19.457 -0.3083 -0.2854  0.3080
 4176TIP3   OH236722   7.202   5.325  18.793 -0.8213  0.2225  0.3280
 4176TIP3    H136723   7.172   5.234  18.797 -0.6709  0.2087  1.2432
 4176TIP3    H236724   7.271   5.324  18.727 -0.3156 -0.4872  0.8553
 4177TIP3   OH236725   1.266   6.243  19.445 -0.3278 -0.1314  0.0871
 4177TIP3    H136726   1.294   6.325  19.406  1.6584  0.7213  2.9902
 4177TIP3    H236727   1.177   6.260  19.476  0.7832  1.8800  2.6403
 4178TIP3   OH236728   0.838   6.072  18.366  0.2838 -0.5512 -0.1187
 4178TIP3    H136729   0.840   6.082  18.461  1.3108  1.1094 -0.2817
 4178TIP3    H236730   0.796   5.987  18.352 -0.9367 -0.3138  1.7683
 4179TIP3   OH236731   0.840   1.502  17.519 -0.3080 -0.0473  0.3713
 4179TIP3    H136732   0.875   1.464  17.438 -2.1881  0.4976 -0.7626
 4179TIP3    H236733   0.894   1.580  17.534 -1.1928  1.0364 -1.5869
 4180TIP3   OH236734   6.720   3.201  19.003  0.2758 -0.4475  0.4040
 4180TIP3    H136735   6.665   3.201  19.081 -1.6150 -1.7893 -0.8284
 4180TIP3    H236736   6.681   3.134  18.946  0.3066  1.7994 -2.5201
 4181TIP3   OH236737   7.219   5.213  18.350  0.0102 -0.3244 -0.3365
 4181TIP3    H136738   7.167   5.193  18.272 -1.0157  0.7246  0.0525
 4181TIP3    H236739   7.281   5.280  18.320  1.1924 -1.5924 -0.8070
 4182TIP3   OH236740   3.162   4.210  17.222  0.5259 -0.2190  0.4405
 4182TIP3    H136741   3.257   4.224  17.217  0.1743  2.0880 -2.1722
 4182TIP3    H236742   3.140   4.162  17.143 -0.4645 -1.1027  1.2224
 4183TIP3   OH236743   2.922   1.149  19.066 -0.4636  0.5642 -0.1899
 4183TIP3    H136744   2.979   1.206  19.013 -0.6089  1.7652  0.8904
 4183TIP3    H236745   2.964   1.063  19.063  1.4901  1.4260  0.6239
 4184TIP3   OH236746   6.856   7.372  17.239 -0.3252 -0.2323  0.0701
 4184TIP3    H136747   6.781   7.316  17.258 -1.2518  0.8937 -0.1633
 4184TIP3    H236748   6.829   7.460  17.266  0.9132  0.2030 -0.0104
 4185TIP3   OH236749   1.870   2.723  16.674  0.3816  0.2085  0.2633
 4185TIP3    H136750   1.786   2.723  16.719  0.7041  1.6123  0.9351
 4185TIP3    H236751   1.907   2.636  16.691 -1.4645 -0.9327 -1.1639
 4186TIP3   OH236752   4.536   0.836  17.820  0.0590  0.1482 -0.0120
 4186TIP3    H136753   4.535   0.811  17.727 -0.6366 -0.4977  0.1605
 4186TIP3    H236754   4.444   0.835  17.846  0.3995 -2.1070  1.3100
 4187TIP3   OH236755   3.477   4.832  17.068 -0.0796  0.3173 -0.1473
 4187TIP3    H136756   3.506   4.864  16.982 -0.8577  0.3770 -0.3926
 4187TIP3    H236757   3.384   4.813  17.057 -0.1701  0.2455  0.6669
 4188TIP3   OH236758   6.316   1.133  18.871  0.2694  0.0421 -0.0575
 4188TIP3    H136759   6.369   1.058  18.844 -0.1399 -0.6552  0.9960
 4188TIP3    H236760   6.377   1.189  18.920 -0.0690 -1.1480  1.8541
 4189TIP3   OH236761   2.597   1.038  18.853 -0.2545 -0.1027 -0.1777
 4189TIP3    H136762   2.531   0.969  18.863 -1.2162  0.8932  0.5209
 4189TIP3    H236763   2.657   1.024  18.926 -1.3402  0.7468  0.8951
 4190TIP3   OH236764   0.906   2.954  18.384  0.0174 -0.2646  0.8467
 4190TIP3    H136765   0.958   2.882  18.420  0.1424 -0.5001  0.2119
 4190TIP3    H236766   0.872   2.919  18.301  0.4394  0.5573  0.3158
 4191TIP3   OH236767   5.394   5.081  16.662  0.0937  0.3991  0.2238
 4191TIP3    H136768   5.402   5.072  16.567 -2.9901  0.9050 -0.2075
 4191TIP3    H236769   5.336   5.157  16.674 -0.0630 -0.0104  2.4748
 4192TIP3   OH236770   5.180   4.425  16.918 -0.2397  0.2798  0.4645
 4192TIP3    H136771   5.155   4.420  16.826 -0.5905  0.4964  0.5447
 4192TIP3    H236772   5.230   4.507  16.924  0.6033 -0.2025  0.2816
 4193TIP3   OH236773   1.101   0.116  17.397 -0.1685 -0.1086 -0.0190
 4193TIP3    H136774   1.151   0.186  17.439 -1.0402  0.3560  0.2583
 4193TIP3    H236775   1.167   0.051  17.373  0.9149  1.5684 -1.8664
 4194TIP3   OH236776   4.660   4.256  19.076 -0.5106  0.0336 -0.4003
 4194TIP3    H136777   4.638   4.345  19.102  1.8206 -0.0338  2.2698
 4194TIP3    H236778   4.737   4.266  19.020  0.8462 -0.3130  1.3346
 4195TIP3   OH236779   4.491   6.312  16.593 -0.2260 -0.1798 -0.5329
 4195TIP3    H136780   4.418   6.349  16.642 -0.3354 -0.5106 -0.4478
 4195TIP3    H236781   4.466   6.222  16.575  0.8334 -0.8038  0.8933
 4196TIP3   OH236782   4.028   3.746  18.313 -0.6652 -0.2413  0.0894
 4196TIP3    H136783   4.051   3.670  18.367  0.7086  0.2155  0.1769
 4196TIP3    H236784   4.101   3.806  18.324 -0.9167  0.3661 -1.3673
 4197TIP3   OH236785   5.427   6.992  18.273  0.0410  0.2963  0.5911
 4197TIP3    H136786   5.412   6.898  18.282 -1.6624  0.4692 -0.0978
 4197TIP3    H236787   5.436   7.024  18.363 -2.1632 -0.1458  1.0257
 4198TIP3   OH236788   1.753   0.745  19.244  0.2157  0.1693 -0.2216
 4198TIP3    H136789   1.659   0.741  19.261  0.4612  0.0542  1.2382
 4198TIP3    H236790   1.769   0.837  19.223 -0.0447  0.4544  0.7729
 4199TIP3   OH236791   4.793   1.202  18.499  0.5246 -0.6190 -0.0200
 4199TIP3    H136792   4.777   1.226  18.591 -0.2213  0.2485 -0.3625
 4199TIP3    H236793   4.706   1.180  18.465  0.8768 -1.4727 -0.3803
 4200TIP3   OH236794   1.731   7.408  18.606 -0.6027 -0.4533 -0.3985
 4200TIP3    H136795   1.816   7.372  18.632 -0.9870  0.0432  1.7247
 4200TIP3    H236796   1.673   7.331  18.602 -0.8059 -0.4469  1.5293
 4201TIP3   OH236797   3.289   1.293  17.509  0.4628  0.2833 -0.1830
 4201TIP3    H136798   3.292   1.387  17.490 -0.2090  0.2962 -0.2353
 4201TIP3    H236799   3.380   1.270  17.530  0.5302  1.0542  0.3883
 4202TIP3   OH236800   1.342   5.149  18.129 -0.0548  0.0018 -0.2139
 4202TIP3    H136801   1.272   5.141  18.065 -0.9916  2.1201  0.4651
 4202TIP3    H236802   1.314   5.094  18.202 -0.2872 -0.3170 -0.5406
 4203TIP3   OH236803   2.330   2.349  18.146 -0.0647 -0.1716  0.0159
 4203TIP3    H136804   2.249   2.303  18.122 -0.5876  0.8981 -0.3527
 4203TIP3    H236805   2.377   2.287  18.201  1.0080 -2.6770 -3.3534
 4204TIP3   OH236806   1.785   1.812  18.857 -0.1033  0.1550  0.1692
 4204TIP3    H136807   1.880   1.799  18.866 -0.0471 -0.4037 -1.0376
 4204TIP3    H236808   1.775   1.849  18.769 -0.8323  2.3471  1.0899
 4205TIP3   OH236809   3.961   5.603  18.422  0.1715  0.3713  0.0282
 4205TIP3    H136810   4.034   5.639  18.372 -0.5265  1.4113 -0.2979
 4205TIP3    H236811   3.915   5.680  18.456 -0.3467 -0.2767  0.8468
 4206TIP3   OH236812   6.214   3.975  17.231  0.1211  0.2545 -0.4936
 4206TIP3    H136813   6.291   4.022  17.198  0.3646  0.6790  0.6578
 4206TIP3    H236814   6.168   4.039  17.285  1.3237 -1.2202  2.4739
 4207TIP3   OH236815   1.245   0.193  19.323  0.3619 -0.5418 -0.8038
 4207TIP3    H136816   1.216   0.268  19.376  0.5644 -1.0565  0.0582
 4207TIP3    H236817   1.339   0.187  19.339  0.2545 -1.3331 -0.3910
 4208TIP3   OH236818   7.373   4.729  17.984 -0.3570 -0.4296 -0.3061
 4208TIP3    H136819   7.285   4.704  17.955 -0.6820  0.4328 -0.0892
 4208TIP3    H236820   7.421   4.744  17.903 -0.9639  0.9477 -0.4430
 4209TIP3   OH236821   0.497   5.514  19.164  0.4517 -0.4302 -0.4593
 4209TIP3    H136822   0.414   5.550  19.134  0.3895 -0.3261 -0.1614
 4209TIP3    H236823   0.493   5.519  19.260  1.6705  1.5856 -0.4449
 4210TIP3   OH236824   0.435   5.699  18.888 -0.1004 -0.0538 -0.2733
 4210TIP3    H136825   0.522   5.737  18.900  0.7363 -2.2383  1.1994
 4210TIP3    H236826   0.390   5.715  18.971 -0.4832 -0.4336 -0.4046
 4211TIP3   OH236827   7.595   6.479  16.759  0.2327 -0.5195 -0.3239
 4211TIP3    H136828   7.646   6.507  16.834  1.9114 -0.5389 -1.4166
 4211TIP3    H236829   7.643   6.404  16.723  1.0223  1.1207 -2.9700
 4212TIP3   OH236830   4.973   3.153  18.290 -0.1598 -0.1245  0.1543
 4212TIP3    H136831   4.947   3.184  18.203  0.0010  0.5150  0.3245
 4212TIP3    H236832   5.064   3.180  18.299  0.4581 -1.9677 -0.2604
 4213TIP3   OH236833   3.418   3.378  19.320 -0.2427  0.4519  0.4732
 4213TIP3    H136834   3.449   3.375  19.411 -0.1395  1.2803  0.4756
 4213TIP3    H236835   3.495   3.406  19.270 -0.7142  1.5553  0.3458
 4214TIP3   OH236836   4.809   1.345  19.079 -0.0467 -0.2168  0.0000
 4214TIP3    H136837   4.788   1.372  19.168  0.5132 -1.1402  0.4187
 4214TIP3    H236838   4.882   1.284  19.088 -2.2182 -3.1679 -0.7435
 4215TIP3   OH236839   0.332   7.266  17.632  0.4822 -0.3777 -0.5600
 4215TIP3    H136840   0.348   7.248  17.539  0.7579 -0.9564 -0.4033
 4215TIP3    H236841   0.372   7.353  17.647  1.6067 -0.8547 -0.6818
 4216TIP3   OH236842   2.514   3.077  19.213 -0.0891 -0.0091  0.1363
 4216TIP3    H136843   2.497   2.984  19.200 -1.0264 -0.0580  1.5394
 4216TIP3    H236844   2.428   3.117  19.217  0.2903  0.7987  0.3320
 4217TIP3   OH236845   2.070   1.183  19.241 -0.3515 -0.3837 -0.3143
 4217TIP3    H136846   2.095   1.198  19.150  0.2227  0.3403 -0.0467
 4217TIP3    H236847   2.152   1.158  19.284 -0.4951 -0.1084  0.1271
 4218TIP3   OH236848   0.426   4.537  17.362  0.2642  0.1094  0.5207
 4218TIP3    H136849   0.448   4.607  17.300 -1.7801  0.7546  0.4244
 4218TIP3    H236850   0.510   4.501  17.389  1.2804  0.9705 -1.3041
 4219TIP3   OH236851   6.146   1.971  19.559 -0.3787 -0.6373  0.0111
 4219TIP3    H136852   6.236   1.980  19.528 -1.4703  0.3197 -3.2057
 4219TIP3    H236853   6.125   1.879  19.545  0.6377 -1.4153  2.7896
 4220TIP3   OH236854   6.019   5.312  19.455  0.0971 -0.0666  0.3485
 4220TIP3    H136855   6.111   5.336  19.441 -0.2409  0.7254 -0.6428
 4220TIP3    H236856   6.023   5.228  19.501  1.3179  0.6152  1.5811
 4221TIP3   OH236857   0.319   0.341  18.190 -0.0798  0.1743  0.1758
 4221TIP3    H136858   0.250   0.320  18.128 -0.0521  1.5617 -0.3353
 4221TIP3    H236859   0.400   0.312  18.147 -0.2265 -0.5626  0.3737
 4222TIP3   OH236860   5.457   3.822  18.659 -0.1678 -0.4761 -0.3062
 4222TIP3    H136861   5.551   3.834  18.674  0.3617 -4.6747  0.9220
 4222TIP3    H236862   5.451   3.788  18.570 -0.4187 -1.1114 -0.0490
 4223TIP3   OH236863   3.998   4.667  19.013 -0.2880  0.1146 -0.5590
 4223TIP3    H136864   3.989   4.649  19.106 -1.9187 -0.4235 -0.7979
 4223TIP3    H236865   4.054   4.597  18.980  2.1861  1.5259  0.3504
 4224TIP3   OH236866   3.173   4.976  16.867 -0.2748 -0.3843 -0.6446
 4224TIP3    H136867   3.205   5.030  16.795 -2.2775  0.3135 -1.0862
 4224TIP3    H236868   3.078   4.990  16.867 -0.8394 -3.3887 -0.3687
 4225TIP3   OH236869   5.356   6.225  17.658  0.4301  0.2431 -0.8085
 4225TIP3    H136870   5.417   6.176  17.604  1.3682  0.7890 -0.2702
 4225TIP3    H236871   5.279   6.168  17.666  0.6333 -0.2175 -1.9502
 4226TIP3   OH236872   2.600   7.345  17.686 -0.2425  0.4680 -0.2789
 4226TIP3    H136873   2.519   7.318  17.643  0.8496 -0.5851 -1.8276
 4226TIP3    H236874   2.632   7.265  17.728 -0.8710  1.2943  1.9107
 4227TIP3   OH236875   1.513   6.496  18.891 -0.2551 -0.4332  0.0933
 4227TIP3    H136876   1.569   6.570  18.916 -1.6078  0.8864 -0.5739
 4227TIP3    H236877   1.424   6.529  18.903 -0.9121 -2.1097  0.1367
 4228TIP3   OH236878   1.848   1.738  17.677  0.6331 -0.0922 -0.4354
 4228TIP3    H136879   1.856   1.833  17.684  0.7821 -0.0095 -1.4682
 4228TIP3    H236880   1.786   1.714  17.745  0.9879  0.6782  0.1776
 4229TIP3   OH236881   4.512   1.301  18.275  0.8898 -0.3658  0.2518
 4229TIP3    H136882   4.606   1.285  18.272  0.9111 -0.0202 -1.2723
 4229TIP3    H236883   4.503   1.379  18.330  1.5619  0.0698 -0.2388
 4230TIP3   OH236884   4.213   6.050  17.321  0.6860  0.9683  0.6249
 4230TIP3    H136885   4.284   5.987  17.334  1.2797  1.7541  1.2724
 4230TIP3    H236886   4.219   6.075  17.229 -0.0829 -0.5236  0.1349
 4231TIP3   OH236887   6.721   7.257  19.230  0.3313  0.3339 -0.0700
 4231TIP3    H136888   6.636   7.293  19.255  1.5197  1.7318  2.3994
 4231TIP3    H236889   6.747   7.308  19.153 -1.4853 -0.8923 -1.5674
 4232TIP3   OH236890   3.437   4.134  18.865  0.0635 -0.3117 -0.1318
 4232TIP3    H136891   3.466   4.046  18.889 -2.2897 -1.0087  0.4671
 4232TIP3    H236892   3.415   4.129  18.773  0.7343 -0.0903 -0.3105
 4233TIP3   OH236893   2.634   0.683  18.387 -0.1260 -0.1942 -0.0692
 4233TIP3    H136894   2.720   0.658  18.353  0.8168  1.9045  0.5910
 4233TIP3    H236895   2.611   0.612  18.447  1.3068 -0.6395 -0.0085
 4234TIP3   OH236896   3.710   5.528  19.002 -0.0157 -0.0425 -0.4784
 4234TIP3    H136897   3.754   5.465  18.945 -1.6217 -0.9210 -0.8198
 4234TIP3    H236898   3.768   5.604  19.004  1.8996 -1.4411 -0.1939
 4235TIP3   OH236899   6.566   4.563  16.935  0.3729  0.2357  0.2247
 4235TIP3    H136900   6.503   4.600  16.998  1.6434  0.5346  1.3669
 4235TIP3    H236901   6.568   4.626  16.863 -1.4453 -0.3342 -0.3957
 4236TIP3   OH236902   1.148   1.422  16.567  0.1836  0.8113  0.5246
 4236TIP3    H136903   1.068   1.475  16.562 -0.9589 -0.9274 -1.3634
 4236TIP3    H236904   1.116   1.334  16.587  1.7702  0.3129  0.9593
 4237TIP3   OH236905   4.593   0.243  17.893 -0.6046  0.2352 -0.3088
 4237TIP3    H136906   4.512   0.233  17.944 -0.7077  0.1915 -0.4794
 4237TIP3    H236907   4.564   0.279  17.809 -0.2486  2.0178  0.2899
 4238TIP3   OH236908   1.377   1.534  16.427  0.1625 -0.1895  0.0470
 4238TIP3    H136909   1.401   1.622  16.455  0.2175 -0.0006 -0.5737
 4238TIP3    H236910   1.308   1.507  16.487 -0.8663  0.8458 -0.6400
 4239TIP3   OH236911   6.520   4.259  17.737  0.2899 -0.3360 -0.3985
 4239TIP3    H136912   6.511   4.215  17.822  0.0047 -1.6484 -1.0791
 4239TIP3    H236913   6.430   4.274  17.708  0.3750  0.8883 -0.1107
 4240TIP3   OH236914   6.280   4.369  18.070 -0.5392 -0.2397  0.1197
 4240TIP3    H136915   6.299   4.276  18.059 -0.9871 -0.2620 -0.5470
 4240TIP3    H236916   6.206   4.385  18.011  0.4116  0.8431 -0.8244
 4241TIP3   OH236917   7.328   7.143  17.535 -0.0552 -0.2313 -0.3308
 4241TIP3    H136918   7.273   7.208  17.493 -1.6476 -2.0327 -1.2001
 4241TIP3    H236919   7.412   7.150  17.490 -0.5791  0.4136 -1.2290
 4242TIP3   OH236920   6.164   5.669  17.973  0.1148  0.5920  0.3718
 4242TIP3    H136921   6.217   5.707  17.904  0.1417 -0.4346 -0.1825
 4242TIP3    H236922   6.216   5.595  18.006 -0.1039  0.7803  1.1699
 4243TIP3   OH236923   4.099   0.754  18.078  0.4614  0.0156 -0.4813
 4243TIP3    H136924   4.020   0.743  18.132  0.3651 -0.7288 -0.7577
 4243TIP3    H236925   4.122   0.846  18.088 -2.0485  1.0003 -2.5583
 4244TIP3   OH236926   0.459   3.770  18.527  0.7291  0.1551 -0.0493
 4244TIP3    H136927   0.451   3.740  18.618  1.2861 -2.4744 -0.7857
 4244TIP3    H236928   0.452   3.866  18.533  0.6904  0.0684  2.7332
 4245TIP3   OH236929   4.901   5.039  18.629 -0.0003  0.2679 -0.2847
 4245TIP3    H136930   4.899   5.001  18.716  0.0530 -0.7758 -0.7229
 4245TIP3    H236931   4.972   5.103  18.633  1.7447 -1.5560 -0.2387
 4246TIP3   OH236932   3.597   4.809  18.530  0.0768  0.0836  0.0355
 4246TIP3    H136933   3.661   4.863  18.484 -0.9542  0.3797 -1.0948
 4246TIP3    H236934   3.568   4.863  18.603  0.0475  0.5241 -0.3005
 4247TIP3   OH236935   5.815   0.054  19.001 -0.5982  0.7575  0.6445
 4247TIP3    H136936   5.755   0.113  19.047 -0.9311  0.2378  0.8891
 4247TIP3    H236937   5.758  -0.001  18.948 -0.6380 -1.4962  2.8235
 4248TIP3   OH236938   1.438   3.731  19.289 -0.0508  0.1145 -0.0076
 4248TIP3    H136939   1.521   3.774  19.270 -0.9615  1.9213 -0.1488
 4248TIP3    H236940   1.382   3.750  19.214 -1.2034  0.6458  0.9395
 4249TIP3   OH236941   3.208   1.081  19.459  0.0924  0.6388 -0.5664
 4249TIP3    H136942   3.193   1.086  19.365  0.4966 -0.0105 -0.6685
 4249TIP3    H236943   3.284   1.025  19.468 -0.1218  0.4602  0.1693
 4250TIP3   OH236944   2.340   4.298  17.069 -0.6589  0.2101 -0.4043
 4250TIP3    H136945   2.319   4.381  17.114 -1.0363  0.1633 -0.4908
 4250TIP3    H236946   2.435   4.297  17.065 -0.5749 -0.1168  1.0254
 4251TIP3   OH236947   7.275   2.883  18.705 -0.1612  0.2484 -0.9002
 4251TIP3    H136948   7.314   2.970  18.702 -0.5277  0.5114  0.6707
 4251TIP3    H236949   7.274   2.853  18.614  2.8643  0.5701 -1.1323
 4252TIP3   OH236950   0.587   2.304  17.502 -0.1192  0.3151  0.2118
 4252TIP3    H136951   0.615   2.318  17.592  1.9715  0.3987 -0.3953
 4252TIP3    H236952   0.570   2.392  17.468  2.3729  0.6531 -0.3921
 4253TIP3   OH236953   5.329   1.869  19.317  0.1625  0.3883 -0.4019
 4253TIP3    H136954   5.236   1.864  19.295 -0.6140 -1.3491  2.6746
 4253TIP3    H236955   5.373   1.879  19.232 -2.5650 -2.6083 -2.4260
 4254TIP3   OH236956   1.587   5.111  17.236  0.4760 -0.3353  0.1434
 4254TIP3    H136957   1.515   5.133  17.176 -0.3372 -0.8493  0.9017
 4254TIP3    H236958   1.660   5.088  17.179 -0.7526 -2.3826 -0.6988
 4255TIP3   OH236959   1.291   2.003  16.982 -0.4070 -0.0225  0.2739
 4255TIP3    H136960   1.311   2.070  16.916 -2.3492  1.3217  0.9745
 4255TIP3    H236961   1.223   1.950  16.942 -0.1527 -0.4646  0.4239
 4256TIP3   OH236962   7.390   1.289  17.914 -0.4421  0.4223 -0.3485
 4256TIP3    H136963   7.424   1.374  17.941  0.6078 -0.1554  0.1951
 4256TIP3    H236964   7.399   1.234  17.992 -1.1972 -0.1669 -0.6682
 4257TIP3   OH236965   6.714   1.899  18.220  0.2429 -0.6204  0.2021
 4257TIP3    H136966   6.718   1.846  18.140 -1.1746 -0.7998  0.2308
 4257TIP3    H236967   6.717   1.835  18.291  0.7548 -0.5066  0.2868
 4258TIP3   OH236968   0.288   6.114  19.348  0.0455  0.0695  0.4486
 4258TIP3    H136969   0.252   6.113  19.436 -0.8430  0.1242  0.1004
 4258TIP3    H236970   0.216   6.084  19.292  1.0160 -1.3204 -0.1208
 4259TIP3   OH236971   1.914   6.882  18.476 -0.1925  0.2140  0.2824
 4259TIP3    H136972   1.837   6.881  18.533  0.6399  0.7090  1.4700
 4259TIP3    H236973   1.970   6.950  18.513  0.9483 -0.3508 -0.3492
 4260TIP3   OH236974   0.872   7.084  18.374  0.1612 -0.0383 -0.1652
 4260TIP3    H136975   0.797   7.134  18.408  0.5106  0.3027  0.1120
 4260TIP3    H236976   0.832   7.010  18.329 -0.3375 -0.0111  0.2177
 4261TIP3   OH236977   0.422   5.087  16.974 -0.2044 -0.2858  0.0343
 4261TIP3    H136978   0.443   5.167  17.021  0.7181 -1.5456  1.8740
 4261TIP3    H236979   0.344   5.053  17.018 -0.1876 -0.7470 -0.2790
 4262TIP3   OH236980   6.382   6.587  19.003 -0.1870 -0.1463 -0.2979
 4262TIP3    H136981   6.304   6.600  19.057  0.8866 -0.2899  1.3476
 4262TIP3    H236982   6.447   6.549  19.063  1.4909  0.9220 -1.3536
 4263TIP3   OH236983   6.282   0.856  17.914 -0.0499  0.1764 -0.2718
 4263TIP3    H136984   6.365   0.817  17.942  0.1009  1.2595  0.8301
 4263TIP3    H236985   6.299   0.950  17.910 -0.7697  0.2745 -1.6661
 4264TIP3   OH236986   5.253   5.188  18.085  0.0357  0.3659  0.3973
 4264TIP3    H136987   5.341   5.180  18.049 -0.3504 -0.3790 -0.4119
 4264TIP3    H236988   5.217   5.266  18.044  0.8229  1.5565  1.8665
 4265TIP3   OH236989   2.863   0.379  18.278 -0.1542 -0.2969 -0.3062
 4265TIP3    H136990   2.868   0.473  18.264 -1.2192  0.0207  1.2524
 4265TIP3    H236991   2.839   0.343  18.192 -0.2622  0.8921 -0.7863
 4266TIP3   OH236992   2.641   3.879  16.693  0.0403  0.5995  0.7555
 4266TIP3    H136993   2.684   3.919  16.617  1.3731 -2.7630 -0.4507
 4266TIP3    H236994   2.713   3.839  16.742 -1.0774  0.6865  2.5470
 4267TIP3   OH236995   0.244   7.623  18.898  0.4753 -0.1508  0.7155
 4267TIP3    H136996   0.337   7.632  18.874  1.2922  1.9015  3.9813
 4267TIP3    H236997   0.213   7.714  18.902 -1.6142 -0.7972  0.1150
 4268TIP3   OH236998   4.194   0.364  18.432 -0.2609 -0.0279  0.4015
 4268TIP3    H136999   4.205   0.449  18.388  1.8047 -0.8112 -0.7148
 4268TIP3    H237000   4.282   0.329  18.439 -0.9676 -1.6647  1.7847
 4269TIP3   OH237001   4.161   4.247  17.988  0.3746  0.4238 -0.4824
 4269TIP3    H137002   4.096   4.311  17.960  0.9033  1.7459  1.1381
 4269TIP3    H237003   4.146   4.237  18.082  1.8414 -0.0357 -0.2720
 4270TIP3   OH237004   5.122   4.345  18.040 -0.2103 -0.2519  0.9843
 4270TIP3    H137005   5.084   4.371  18.124 -0.9146 -1.7945  1.1627
 4270TIP3    H237006   5.056   4.289  18.000  0.1477  0.3913 -0.5888
 4271TIP3   OH237007   3.154   1.190  17.150  0.8997  0.1634 -0.2273
 4271TIP3    H137008   3.165   1.128  17.078 -2.2688  1.2494 -1.8399
 4271TIP3    H237009   3.180   1.274  17.113  2.1943  0.2986  0.9406
 4272TIP3   OH237010   0.459   2.221  17.277  0.5901  0.1044  0.1831
 4272TIP3    H137011   0.519   2.263  17.339  1.2398  0.2037 -0.5087
 4272TIP3    H237012   0.510   2.209  17.198 -0.2202 -0.0761 -0.3245
 4273TIP3   OH237013   6.359   0.404  18.978 -0.1304  1.2189 -0.3124
 4273TIP3    H137014   6.306   0.475  19.015 -1.3098  1.0252 -1.5491
 4273TIP3    H237015   6.351   0.333  19.041 -0.5785  1.5141 -0.0294
 4274TIP3   OH237016   6.104   2.634  17.634  0.3724 -0.5936  0.5573
 4274TIP3    H137017   6.106   2.539  17.639 -0.2676 -0.5547  2.1647
 4274TIP3    H237018   6.019   2.655  17.594  0.6359 -0.6839 -0.0671
 4275TIP3   OH237019   0.735   1.036  19.296 -0.0287 -0.4477 -0.1537
 4275TIP3    H137020   0.755   1.125  19.325 -0.9783 -0.2114 -0.1782
 4275TIP3    H237021   0.654   1.014  19.342 -1.1689 -0.3442 -1.9984
 4276TIP3   OH237022   2.934   6.812  16.905 -0.3178 -0.1820  0.4321
 4276TIP3    H137023   2.868   6.749  16.935 -0.4597 -1.0995 -1.6604
 4276TIP3    H237024   2.928   6.810  16.810  0.6822  1.9699  0.2581
 4277TIP3   OH237025   4.975   5.976  18.034 -0.1815 -0.7234 -0.2892
 4277TIP3    H137026   4.946   5.986  18.125 -0.4425 -0.8512 -0.3560
 4277TIP3    H237027   4.912   5.914  17.996  0.1445 -0.9560 -0.4540
 4278TIP3   OH237028   2.390   0.771  16.477  0.3808  0.0132  0.2750
 4278TIP3    H137029   2.449   0.773  16.552  0.4985 -0.1032  0.1875
 4278TIP3    H237030   2.319   0.714  16.505  0.1994  0.3288  0.4608
 4279TIP3   OH237031   7.244   7.254  19.199 -0.8420  0.3811  0.1313
 4279TIP3    H137032   7.175   7.293  19.253 -1.1708  3.0987 -2.0675
 4279TIP3    H237033   7.208   7.169  19.174 -1.7660  0.1575  2.0069
 4280TIP3   OH237034   4.801   2.243  16.824  0.7525  0.4279 -0.2130
 4280TIP3    H137035   4.861   2.189  16.875 -0.6572  0.6612  1.7909
 4280TIP3    H237036   4.740   2.181  16.784  0.0731  0.3917  0.8348
 4281TIP3   OH237037   5.766   6.277  18.507  0.3513  0.4300  0.0333
 4281TIP3    H137038   5.691   6.238  18.552  0.6058 -0.3849 -0.2408
 4281TIP3    H237039   5.750   6.260  18.414  1.2441 -0.4336  0.0190
 4282TIP3   OH237040   7.083   5.911  17.971 -0.2276 -0.0116 -0.3146
 4282TIP3    H137041   7.081   5.837  18.031 -0.8024  0.0316 -0.2692
 4282TIP3    H237042   7.021   5.974  18.008 -0.3387  0.1551 -0.7728
 4283TIP3   OH237043   6.004   4.417  18.409 -0.1562 -0.2186  0.1118
 4283TIP3    H137044   6.062   4.390  18.338  0.2251 -1.4635  0.8616
 4283TIP3    H237045   6.061   4.421  18.486 -0.6316  0.7839  0.4239
 4284TIP3   OH237046   2.627   1.930  17.124  0.0043  0.1134  0.1154
 4284TIP3    H137047   2.591   2.007  17.168  1.0372  1.1037 -0.7043
 4284TIP3    H237048   2.705   1.908  17.175  1.6416  1.7263 -1.5375
 4285TIP3   OH237049   2.896   6.948  18.538 -0.5887 -0.1398 -0.6445
 4285TIP3    H137050   2.965   6.905  18.487  0.9814  0.0685  1.1827
 4285TIP3    H237051   2.885   7.034  18.497  0.6631  0.0391 -0.6298
 4286TIP3   OH237052   7.572   5.774  17.788  0.4655  0.5241  0.1089
 4286TIP3    H137053   7.639   5.713  17.758  0.4295  0.3359  0.4043
 4286TIP3    H237054   7.523   5.726  17.855  0.7341  1.0301  0.6821
 4287TIP3   OH237055   0.223   2.476  19.435  0.2835 -0.0979 -0.0208
 4287TIP3    H137056   0.316   2.461  19.418  0.3499  0.1987  0.0665
 4287TIP3    H237057   0.213   2.572  19.430 -0.0680 -0.1457 -0.2976
 4288TIP3   OH237058   0.413   6.328  19.179 -0.9032 -0.2270 -0.2469
 4288TIP3    H137059   0.406   6.272  19.256 -0.9709  0.4366  0.2379
 4288TIP3    H237060   0.460   6.275  19.115  2.0217  0.2978  1.2944
 4289TIP3   OH237061   4.259   0.035  18.966 -0.2457  0.1093 -0.5523
 4289TIP3    H137062   4.273  -0.059  18.956  0.5274 -0.2478  2.8341
 4289TIP3    H237063   4.346   0.074  18.958 -0.2517  0.2799  0.1470
 4290TIP3   OH237064   2.103   0.528  18.575  0.3138 -0.0285  0.6143
 4290TIP3    H137065   2.089   0.461  18.508  0.9461 -1.2656  1.6654
 4290TIP3    H237066   2.109   0.478  18.657 -0.0297  1.3973  1.5432
 4291TIP3   OH237067   5.019   0.995  18.439  0.3076 -0.0287  0.0537
 4291TIP3    H137068   4.929   1.024  18.454  0.1332 -0.9425  0.9421
 4291TIP3    H237069   5.010   0.906  18.405  0.8380  0.6299 -1.9860
 4292TIP3   OH237070   2.163   5.022  18.296  0.2623 -0.1123  0.2288
 4292TIP3    H137071   2.104   5.005  18.370  0.0103 -0.6078 -0.0763
 4292TIP3    H237072   2.105   5.051  18.226  0.4592  0.0227  0.1230
 4293TIP3   OH237073   7.475   5.821  19.095  0.3443  0.0878  0.0208
 4293TIP3    H137074   7.395   5.809  19.146  0.7682  1.5605  1.1004
 4293TIP3    H237075   7.450   5.881  19.025  0.5037  0.5758  0.3789
 4294TIP3   OH237076   3.395   1.046  18.234  0.1912  0.0150 -0.2913
 4294TIP3    H137077   3.439   1.043  18.149  0.8605 -1.0707  0.0706
 4294TIP3    H237078   3.466   1.059  18.297 -0.3920  1.7433  0.0602
 4295TIP3   OH237079   0.930   4.016  18.903 -0.1901 -0.1907  0.3864
 4295TIP3    H137080   0.877   4.083  18.860  0.2457 -0.7207 -1.0208
 4295TIP3    H237081   0.874   3.983  18.973 -0.7084  1.0837  0.6008
 4296TIP3   OH237082   4.236   1.884  18.718 -0.0577 -0.3128 -0.2392
 4296TIP3    H137083   4.300   1.815  18.703  1.4854  1.4083 -2.1506
 4296TIP3    H237084   4.288   1.962  18.739 -1.7561  0.2598  2.3561
 4297TIP3   OH237085   4.180   1.447  18.924 -0.0583  0.6710  0.1985
 4297TIP3    H137086   4.181   1.362  18.967  1.4006  0.4437 -0.2395
 4297TIP3    H237087   4.093   1.482  18.942 -0.4133 -0.5816  1.0208
 4298TIP3   OH237088   2.224   1.654  18.122  0.6900  0.2367  0.1629
 4298TIP3    H137089   2.160   1.643  18.052  0.8173 -0.8689  0.2125
 4298TIP3    H237090   2.247   1.747  18.119  0.4419  0.2689 -1.0490
 4299TIP3   OH237091   7.559   0.302  18.157  0.0799  0.0793 -0.7529
 4299TIP3    H137092   7.603   0.218  18.165  2.5329  1.2974 -0.6410
 4299TIP3    H237093   7.567   0.326  18.065 -1.6687 -0.3031 -1.0428
 4300TIP3   OH237094   5.934   6.810  17.173  0.2881  0.1099 -0.2347
 4300TIP3    H137095   5.933   6.902  17.199 -0.6906 -0.1642  0.7511
 4300TIP3    H237096   6.020   6.779  17.200 -0.6537 -0.1483  2.7377
 4301TIP3   OH237097   0.860   1.051  17.452 -0.1706  0.0442  0.1684
 4301TIP3    H137098   0.792   0.985  17.448 -0.6412  0.3230  2.2108
 4301TIP3    H237099   0.813   1.134  17.461  0.4249  0.5130 -0.8414
 4302TIP3   OH237100   6.818   2.002  17.866  0.4240  0.2569 -0.3619
 4302TIP3    H137101   6.748   1.937  17.856  1.8451 -1.2564 -1.1180
 4302TIP3    H237102   6.855   2.012  17.778  0.9983  1.2050 -0.0313
 4303TIP3   OH237103   0.062   4.381  18.360  0.5334  0.2100  0.2821
 4303TIP3    H137104   0.000   4.323  18.406 -0.6443  0.6249 -0.7458
 4303TIP3    H237105   0.085   4.333  18.281 -1.1028  1.4494 -1.0008
 4304TIP3   OH237106   1.512   2.448  19.247  0.0719 -0.2198  0.8639
 4304TIP3    H137107   1.479   2.529  19.209 -1.4761 -0.5083  1.5312
 4304TIP3    H237108   1.602   2.469  19.275  0.1088  0.8930 -0.0467
 4305TIP3   OH237109   3.589   0.359  18.927  0.0193  0.0664  0.8722
 4305TIP3    H137110   3.627   0.385  18.843  0.2474 -0.4184  0.8262
 4305TIP3    H237111   3.498   0.389  18.922 -0.0761 -0.2956  0.2945
 4306TIP3   OH237112   6.853   6.729  19.227 -0.6076 -0.0055  0.4348
 4306TIP3    H137113   6.944   6.738  19.257 -0.5630 -0.4382  0.4407
 4306TIP3    H237114   6.825   6.644  19.261 -0.2178 -1.0037 -1.5726
 4307TIP3   OH237115   0.188   2.419  17.963 -0.2563 -0.4112  0.6089
 4307TIP3    H137116   0.096   2.399  17.944 -0.2629 -0.0097  0.1897
 4307TIP3    H237117   0.191   2.515  17.969  0.4498 -0.2757 -1.1794
 4308TIP3   OH237118   5.440   6.075  17.909 -0.2359 -0.2162 -0.5910
 4308TIP3    H137119   5.430   6.114  17.821 -1.1779 -1.1792 -0.9270
 4308TIP3    H237120   5.478   5.989  17.893  2.7143  0.8207  0.2194
 4309TIP3   OH237121   2.553   0.901  18.226  0.0156 -0.1738  0.6394
 4309TIP3    H137122   2.618   0.942  18.168 -0.9903 -1.0010 -1.1765
 4309TIP3    H237123   2.605   0.848  18.286  1.2950  2.9028  2.4750
 4310TIP3   OH237124   4.588   1.908  17.823  1.1591  0.0696  0.2901
 4310TIP3    H137125   4.588   1.894  17.729  1.1072  1.8220  0.0027
 4310TIP3    H237126   4.681   1.910  17.848  1.1816  0.0443  0.2067
 4311TIP3   OH237127   4.531   1.913  19.492  0.0628  0.1723  0.0104
 4311TIP3    H137128   4.496   1.851  19.556  1.9373 -0.7731  0.1703
 4311TIP3    H237129   4.466   1.983  19.490 -0.4920 -0.1824  2.2965
 4312TIP3   OH237130   5.361   3.442  18.120  0.2538 -0.0373 -0.2346
 4312TIP3    H137131   5.351   3.430  18.025  0.6339  1.9396 -0.5546
 4312TIP3    H237132   5.455   3.450  18.134  0.0953  1.8363 -0.0167
 4313TIP3   OH237133   1.986   7.127  17.779  0.4092 -0.2069 -0.0492
 4313TIP3    H137134   2.001   7.033  17.789  1.0899 -0.1094 -0.0742
 4313TIP3    H237135   1.891   7.138  17.787  0.2392 -0.9983 -0.8910
 4314TIP3   OH237136   2.511   5.974  17.678  0.4309 -0.4683  0.4041
 4314TIP3    H137137   2.559   5.897  17.708  1.0078 -1.0564 -1.8580
 4314TIP3    H237138   2.535   5.983  17.586 -2.6319  0.1075 -0.4625
 4315TIP3   OH237139   4.956   7.654  19.324  0.1719 -0.1458  0.6763
 4315TIP3    H137140   4.986   7.608  19.247 -0.5371  0.1695  0.1946
 4315TIP3    H237141   5.017   7.727  19.334 -0.7815  0.8901 -0.6916
 4316TIP3   OH237142   7.669   7.455  17.212  0.5346  0.0090  0.2774
 4316TIP3    H137143   7.747   7.508  17.229 -0.0446  1.3247 -1.0275
 4316TIP3    H237144   7.660   7.454  17.117 -0.0284 -1.6573  0.3161
 4317TIP3   OH237145   0.384   2.936  17.955  0.3836  0.0456 -0.0855
 4317TIP3    H137146   0.343   3.020  17.932 -0.4516 -0.3446 -0.0561
 4317TIP3    H237147   0.477   2.956  17.960  0.1426  1.1226  0.5336
 4318TIP3   OH237148   4.406   6.536  17.617  0.0846 -0.8095 -0.0567
 4318TIP3    H137149   4.457   6.456  17.608  1.1450 -0.0295 -1.3215
 4318TIP3    H237150   4.448   6.583  17.689  0.8792 -0.3922 -0.7775
 4319TIP3   OH237151   7.362   4.698  19.040 -0.2939 -0.1804  0.2025
 4319TIP3    H137152   7.314   4.724  19.119  1.2384  1.7656  0.5760
 4319TIP3    H237153   7.337   4.763  18.974 -0.4731 -0.9527 -0.5085
 4320TIP3   OH237154   6.714   0.356  18.529  0.6208  0.4452  0.0373
 4320TIP3    H137155   6.643   0.300  18.560  0.5544 -0.3846 -1.5105
 4320TIP3    H237156   6.792   0.322  18.574  0.4785 -0.5034 -0.4002
 4321TIP3   OH237157   3.817   0.595  18.749 -0.0281  0.3280  0.1348
 4321TIP3    H137158   3.799   0.533  18.678  2.6760 -0.0837 -0.3035
 4321TIP3    H237159   3.797   0.681  18.711 -2.4212 -0.1037  0.2675
 4322TIP3   OH237160   6.090   4.144  17.907 -0.2181 -0.5405  0.1783
 4322TIP3    H137161   6.035   4.116  17.979  1.0070 -0.5754  1.1395
 4322TIP3    H237162   6.035   4.202  17.855 -1.2178 -0.7641  0.9564
 4323TIP3   OH237163   0.365   1.303  17.670 -0.2273 -0.4108 -0.1897
 4323TIP3    H137164   0.318   1.222  17.650 -2.3453  0.3949  1.0939
 4323TIP3    H237165   0.420   1.281  17.746 -1.5468 -0.4658  0.7932
 4324TIP3   OH237166   1.021   3.774  17.752 -0.2990  0.1854 -0.0701
 4324TIP3    H137167   1.067   3.690  17.746 -4.4141 -2.5129  1.6529
 4324TIP3    H237168   0.947   3.766  17.692 -1.7093  1.8593  1.3287
 4325TIP3   OH237169   4.542   6.669  17.419 -0.7475  0.0263 -0.0053
 4325TIP3    H137170   4.509   6.604  17.358 -0.7652  1.1272 -1.2041
 4325TIP3    H237171   4.523   6.633  17.506  0.6181 -2.2590 -0.5839
 4326TIP3   OH237172   2.984   2.792  17.989  0.8045 -0.2057  0.7252
 4326TIP3    H137173   3.071   2.828  18.004  1.5409 -1.6888  0.1765
 4326TIP3    H237174   2.927   2.843  18.047  1.6836  2.1363 -0.3130
 4327TIP3   OH237175   2.943   7.675  17.551  0.3565 -0.8471  0.0685
 4327TIP3    H137176   2.969   7.763  17.523  0.5273 -1.1682 -0.8293
 4327TIP3    H237177   3.024   7.625  17.551  0.0877 -1.3032 -0.6259
 4328TIP3   OH237178   5.481   0.606  19.516  0.5301  0.0461 -0.3007
 4328TIP3    H137179   5.404   0.631  19.567  0.0278 -1.1523 -0.4272
 4328TIP3    H237180   5.505   0.520  19.550  2.0905  0.5760  0.0278
 4329TIP3   OH237181   0.897   1.420  18.121 -0.2198 -0.1383 -0.2815
 4329TIP3    H137182   0.980   1.373  18.116 -0.4419 -0.6973  0.9230
 4329TIP3    H237183   0.901   1.467  18.204  0.1749  2.4074 -1.6572
 4330TIP3   OH237184   6.761   6.113  16.389 -0.1913  0.3830  0.1744
 4330TIP3    H137185   6.805   6.191  16.354  1.3553  0.1329  1.4435
 4330TIP3    H237186   6.795   6.041  16.337 -2.3525  0.5612 -1.6605
 4331TIP3   OH237187   1.995   0.865  17.621 -0.1473  0.4028  0.4372
 4331TIP3    H137188   1.980   0.796  17.686 -1.4141  0.2465  0.0049
 4331TIP3    H237189   1.993   0.946  17.672  0.9378  0.1530  0.8881
 4332TIP3   OH237190   5.823   3.657  16.702  0.3823  0.2829 -0.7688
 4332TIP3    H137191   5.748   3.714  16.685 -0.2381 -0.0183  0.7441
 4332TIP3    H237192   5.791   3.569  16.680  1.3652  0.4554 -3.1873
 4333TIP3   OH237193   3.607   0.221  18.094  0.2684  0.0451 -0.0318
 4333TIP3    H137194   3.660   0.186  18.023 -0.8786 -0.3070 -0.7411
 4333TIP3    H237195   3.596   0.314  18.072 -1.3453 -0.3803 -1.1570
 4334TIP3   OH237196   2.863   4.695  19.567 -0.1237 -0.4748  0.0991
 4334TIP3    H137197   2.868   4.778  19.519 -2.0020 -0.1218  0.4334
 4334TIP3    H237198   2.948   4.687  19.610 -0.2052  1.7396  0.7894
 4335TIP3   OH237199   5.827   7.110  17.497 -0.2633 -0.2003 -0.7426
 4335TIP3    H137200   5.848   7.033  17.445  0.7180  0.2628 -1.0659
 4335TIP3    H237201   5.738   7.133  17.472  0.7051  0.9611 -3.4861
 4336TIP3   OH237202   2.731   3.296  17.508  0.5873 -0.0632  0.5683
 4336TIP3    H137203   2.667   3.225  17.515 -2.9744  2.1662 -4.0158
 4336TIP3    H237204   2.745   3.325  17.598 -1.5287 -3.3964  2.1740
 4337TIP3   OH237205   4.125   6.464  17.891 -0.1507 -0.2519  0.0648
 4337TIP3    H137206   4.134   6.412  17.811 -0.5497 -0.1320 -0.0591
 4337TIP3    H237207   4.103   6.401  17.959  1.7660 -0.5878  0.4190
 4338TIP3   OH237208   2.405   4.496  18.235 -0.4699 -0.5254  0.1469
 4338TIP3    H137209   2.474   4.451  18.284 -0.2453  0.3685  0.6591
 4338TIP3    H237210   2.409   4.457  18.148  1.2843  0.1257 -0.1049
 4339TIP3   OH237211   4.030   0.628  18.414 -0.6209  0.0674  0.0571
 4339TIP3    H137212   3.980   0.571  18.356  0.3812 -0.3388 -0.4243
 4339TIP3    H237213   4.006   0.599  18.502  2.1594 -3.3231 -0.0860
 4340TIP3   OH237214   2.244   0.724  19.380  0.3812  0.7484  0.6223
 4340TIP3    H137215   2.153   0.693  19.388  0.9961 -1.1556  0.9151
 4340TIP3    H237216   2.278   0.721  19.469  0.8209  1.1766  0.4727
 4341TIP3   OH237217   4.043   4.930  18.999  0.4128  0.6490  0.0534
 4341TIP3    H137218   4.103   4.939  18.925  0.0822  0.1376 -0.2796
 4341TIP3    H237219   4.037   4.836  19.014 -1.7713  0.5411 -1.1423
 4342TIP3   OH237220   5.837   5.748  17.761  0.1653  0.5288  0.3134
 4342TIP3    H137221   5.901   5.698  17.812 -1.4143 -1.9517  0.0624
 4342TIP3    H237222   5.838   5.836  17.800  1.7778 -0.1933  2.0385
 4343TIP3   OH237223   1.997   4.590  18.701  0.3885  0.4932  0.1453
 4343TIP3    H137224   1.927   4.656  18.697 -1.1315 -1.0950 -2.3825
 4343TIP3    H237225   2.078   4.641  18.697 -0.6781  2.2916  0.1985
 4344TIP3   OH237226   0.177   4.255  18.720 -0.4525 -0.6571 -0.3950
 4344TIP3    H137227   0.088   4.265  18.752 -0.5190 -0.4813 -0.6385
 4344TIP3    H237228   0.223   4.211  18.792 -0.3422  0.7030  0.4023
 4345TIP3   OH237229   5.025   6.219  17.352  0.2038  0.0068  0.3995
 4345TIP3    H137230   5.085   6.260  17.290 -1.9067  1.2367 -0.9434
 4345TIP3    H237231   5.072   6.223  17.436  1.8714  1.1528 -0.5211
 4346TIP3   OH237232   2.899   6.652  16.643  0.0308  0.0031  0.2488
 4346TIP3    H137233   2.819   6.677  16.597 -0.4601 -1.8757  0.0091
 4346TIP3    H237234   2.879   6.567  16.683  1.9478 -0.6222  0.0165
 4347TIP3   OH237235   5.973   3.758  19.382 -0.2569  0.5536 -0.1348
 4347TIP3    H137236   6.003   3.722  19.299  1.4088 -0.3847  0.8056
 4347TIP3    H237237   6.041   3.733  19.445 -2.0094  0.2454  1.7542
 4348TIP3   OH237238   5.767   4.666  17.440  0.7275  0.0662  0.0446
 4348TIP3    H137239   5.700   4.598  17.448  1.8225 -1.3268 -1.9017
 4348TIP3    H237240   5.721   4.747  17.465 -0.9912 -1.1513  1.0735
 4349TIP3   OH237241   2.652   0.116  16.660  0.1751  0.0210 -0.4476
 4349TIP3    H137242   2.739   0.100  16.622  0.3450  1.9682 -0.9706
 4349TIP3    H237243   2.624   0.030  16.692  2.4823 -0.5900  0.1254
 4350TIP3   OH237244   0.945   4.749  18.430 -0.0732 -0.6809 -0.0669
 4350TIP3    H137245   0.859   4.788  18.442  0.3984 -0.0705  1.6010
 4350TIP3    H237246   0.947   4.676  18.493  1.2131  0.3943  1.2319
 4351TIP3   OH237247   2.524   5.267  16.869  0.1132 -0.6848  0.5953
 4351TIP3    H137248   2.565   5.343  16.829 -0.2195 -1.3657 -1.1643
 4351TIP3    H237249   2.592   5.200  16.871 -0.9480 -2.1956 -3.3931
 4352TIP3   OH237250   0.836   0.973  17.927 -0.4984 -0.2585 -0.3694
 4352TIP3    H137251   0.891   0.895  17.930 -0.9369 -0.5799 -0.6043
 4352TIP3    H237252   0.782   0.962  17.849  0.6287  1.1028 -1.3874
 4353TIP3   OH237253   2.428   6.420  18.884 -0.2734 -0.1270  0.1271
 4353TIP3    H137254   2.335   6.438  18.867 -0.6820 -3.3719 -2.0891
 4353TIP3    H237255   2.472   6.450  18.804  0.1775 -0.9738  0.0502
 4354TIP3   OH237256   5.537   4.676  17.912 -0.3887  0.9530  0.2939
 4354TIP3    H137257   5.522   4.588  17.877 -1.6431  1.8719 -1.6951
 4354TIP3    H237258   5.487   4.680  17.993  1.4009 -0.7887  1.5796
 4355TIP3   OH237259   4.931   5.955  18.756  0.2922  0.7139 -0.1470
 4355TIP3    H137260   4.870   6.015  18.713 -0.3967 -0.5405 -0.9741
 4355TIP3    H237261   4.920   5.872  18.710  1.7254  0.1182  0.5157
 4356TIP3   OH237262   6.900   0.080  17.199  0.1308  0.5064  0.4033
 4356TIP3    H137263   6.901   0.043  17.110 -1.0807  1.5395 -0.0733
 4356TIP3    H237264   6.874   0.171  17.186  0.2188  0.7454  1.8153
 4357TIP3   OH237265   6.791   0.244  18.225 -0.0382 -0.1213  0.1231
 4357TIP3    H137266   6.794   0.204  18.312  0.3431 -0.8028 -0.1960
 4357TIP3    H237267   6.879   0.276  18.211 -0.4192  1.1579  0.5109
 4358TIP3   OH237268   2.569   2.262  17.756  0.6394 -0.0383  0.1026
 4358TIP3    H137269   2.582   2.237  17.665 -0.6645  0.4367 -0.2430
 4358TIP3    H237270   2.482   2.302  17.758  0.7912  0.2985  1.4865
 4359TIP3   OH237271   2.949   0.678  17.577  0.0166  0.0823 -0.2492
 4359TIP3    H137272   2.893   0.755  17.582  0.8577  0.6571  0.7712
 4359TIP3    H237273   2.934   0.632  17.660  0.5250 -0.1296 -0.2666
 4360TIP3   OH237274   0.122   5.426  18.325 -0.1158  0.0532  0.0281
 4360TIP3    H137275   0.110   5.404  18.233  0.6625  0.3823 -0.1582
 4360TIP3    H237276   0.109   5.343  18.371 -0.7441 -0.0638 -0.3536
 4361TIP3   OH237277   1.407   5.924  18.537  0.3810  0.5051  0.1049
 4361TIP3    H137278   1.342   5.886  18.477  1.4886 -0.9826 -0.2224
 4361TIP3    H237279   1.404   6.018  18.519 -4.2902  1.1717  2.6949
 4362TIP3   OH237280   7.009   7.368  18.826 -0.5418  0.5007 -0.7674
 4362TIP3    H137281   7.075   7.300  18.837  0.2371  1.3026 -0.3564
 4362TIP3    H237282   6.928   7.329  18.860 -0.0990 -0.1950 -0.4963
 4363TIP3   OH237283   7.105   7.651  19.096 -0.0831  0.0574 -0.3213
 4363TIP3    H137284   7.021   7.637  19.051  0.7365 -2.1035 -1.3508
 4363TIP3    H237285   7.165   7.591  19.051  1.7568  0.7676  1.1033
 4364TIP3   OH237286   0.816   3.305  18.652 -0.1634  0.0836 -0.3236
 4364TIP3    H137287   0.904   3.290  18.685 -0.3229  0.1177  0.1202
 4364TIP3    H237288   0.808   3.401  18.648  0.0282  0.0784 -0.9314
 4365TIP3   OH237289   3.403   1.722  16.951  0.3121  0.4017  0.9481
 4365TIP3    H137290   3.428   1.630  16.967  0.1990 -0.0016 -0.9735
 4365TIP3    H237291   3.362   1.721  16.864 -0.4372  2.1556  1.2428
 4366TIP3   OH237292   5.842   2.836  16.742 -0.1527 -0.5977 -0.2100
 4366TIP3    H137293   5.748   2.820  16.741 -0.2951  0.1662  0.2882
 4366TIP3    H237294   5.873   2.802  16.658 -1.2512  1.3450 -1.4771
 4367TIP3   OH237295   5.684   1.520  17.004 -0.0402 -0.1950  0.1087
 4367TIP3    H137296   5.613   1.467  16.970 -0.4188  0.0430  0.5157
 4367TIP3    H237297   5.759   1.461  17.007 -0.2598 -0.4910 -0.1666
 4368TIP3   OH237298   4.195   3.743  18.683  0.1110  0.2047  0.8799
 4368TIP3    H137299   4.176   3.724  18.775  0.0629 -1.7886  0.5098
 4368TIP3    H237300   4.156   3.670  18.635  0.8384  0.7828 -0.6612
 4369TIP3   OH237301   3.622   6.083  18.174 -0.6733 -0.0835  0.1525
 4369TIP3    H137302   3.575   6.165  18.164 -1.8614 -0.7128  0.4524
 4369TIP3    H237303   3.618   6.065  18.268 -0.8272 -0.7130  0.0307
 4370TIP3   OH237304   5.079   2.553  19.391 -0.4212  0.2723  0.2100
 4370TIP3    H137305   5.082   2.626  19.330 -1.1887  0.4983  0.4284
 4370TIP3    H237306   5.004   2.501  19.362  0.8768 -1.1598 -0.7410
 4371TIP3   OH237307   7.032   7.581  18.664  0.2304 -0.5031  0.3968
 4371TIP3    H137308   7.031   7.509  18.727  0.7814  0.5960  1.7030
 4371TIP3    H237309   6.955   7.633  18.685  0.4158 -0.1319  0.1665
 4372TIP3   OH237310   6.819   2.236  18.003 -0.4674 -0.0082  0.7467
 4372TIP3    H137311   6.806   2.164  17.942 -0.8199  0.8642 -0.2486
 4372TIP3    H237312   6.865   2.303  17.952 -2.6405  1.6110  0.7280
 4373TIP3   OH237313   6.635   5.325  18.587 -0.1593  0.3279 -0.8073
 4373TIP3    H137314   6.720   5.344  18.550  0.1910  0.2924 -0.0422
 4373TIP3    H237315   6.649   5.324  18.682 -0.7935 -0.6932 -0.7056
 4374TIP3   OH237316   6.721   2.061  17.523  0.3703 -0.1312 -0.1077
 4374TIP3    H137317   6.745   1.999  17.454  1.3408 -0.5144  0.5347
 4374TIP3    H237318   6.798   2.119  17.531 -0.4317  1.0213 -0.5412
 4375TIP3   OH237319   0.720   2.423  16.788  0.0925  0.5455 -0.2178
 4375TIP3    H137320   0.710   2.369  16.710 -1.5784 -0.1351  0.4167
 4375TIP3    H237321   0.780   2.374  16.844 -0.0391  0.1970 -0.3803
 4376TIP3   OH237322   3.541   1.103  19.030  0.2679 -0.0695  0.5190
 4376TIP3    H137323   3.508   1.014  19.018 -0.0615 -0.1945  2.1022
 4376TIP3    H237324   3.633   1.098  19.005 -0.2102 -0.3454 -1.3594
 4377TIP3   OH237325   4.164   7.673  18.127  0.0819  0.2639  0.6697
 4377TIP3    H137326   4.101   7.692  18.058  0.0333 -0.3991  0.5265
 4377TIP3    H237327   4.124   7.709  18.206 -0.8833 -0.8839  0.7322
 4378TIP3   OH237328   1.277   7.367  18.259  0.1892 -0.3847  0.0490
 4378TIP3    H137329   1.336   7.416  18.315 -0.4791 -1.3931  1.6991
 4378TIP3    H237330   1.207   7.337  18.317 -0.6196 -1.3654 -1.3494
 4379TIP3   OH237331   4.520   0.125  17.067  0.0088  0.7351 -0.0551
 4379TIP3    H137332   4.445   0.130  17.125 -0.7120 -0.9796 -0.7619
 4379TIP3    H237333   4.528   0.032  17.046  2.1170  0.9023 -0.2907
 4380TIP3   OH237334   1.363   0.290  17.318 -0.5735  0.2397 -0.2202
 4380TIP3    H137335   1.296   0.346  17.279 -1.1428  0.9484  1.6945
 4380TIP3    H237336   1.444   0.318  17.275 -0.8628  2.4744  0.5415
 4381TIP3   OH237337   1.093   5.768  18.513  0.1207  0.0766  0.5488
 4381TIP3    H137338   1.118   5.697  18.572 -2.1096 -2.8080 -1.7282
 4381TIP3    H237339   1.166   5.777  18.453 -0.4892 -2.0610 -0.6000
 4382TIP3   OH237340   1.603   4.632  18.811 -0.1147 -0.1815 -0.0580
 4382TIP3    H137341   1.618   4.706  18.869  0.5148 -0.6846  0.4475
 4382TIP3    H237342   1.630   4.662  18.725  0.4709  0.0638  0.2088
 4383TIP3   OH237343   3.900   4.572  17.710 -0.8774 -0.2174  0.2961
 4383TIP3    H137344   3.876   4.623  17.632 -0.5743 -0.5290 -0.0056
 4383TIP3    H237345   3.976   4.617  17.746 -1.3446  0.2368  0.7231
 4384TIP3   OH237346   1.657   0.570  18.356 -0.1107 -0.3409 -0.0279
 4384TIP3    H137347   1.580   0.552  18.301 -1.5229 -0.4260  1.8730
 4384TIP3    H237348   1.707   0.488  18.355  0.0317 -0.2602 -1.3514
 4385TIP3   OH237349   0.527   5.949  16.446 -0.1633  0.3328 -0.0727
 4385TIP3    H137350   0.554   5.986  16.362  0.7006  2.1208  0.9543
 4385TIP3    H237351   0.609   5.925  16.489 -0.6034 -0.6063  0.2674
 4386TIP3   OH237352   0.367   5.222  16.702  1.0969 -0.2383  0.2694
 4386TIP3    H137353   0.453   5.263  16.703  1.2799 -0.6120  0.0601
 4386TIP3    H237354   0.307   5.291  16.730  1.7464 -0.6225  2.9161
 4387TIP3   OH237355   2.990   3.514  17.551  0.1859 -0.2826  0.2930
 4387TIP3    H137356   3.028   3.509  17.639 -0.1401  2.9378  0.7515
 4387TIP3    H237357   3.065   3.512  17.492  0.6272  0.1454  0.8298
 4388TIP3   OH237358   0.260   1.564  18.327 -0.2518 -0.2856 -0.3237
 4388TIP3    H137359   0.179   1.553  18.377 -0.7048 -0.4249 -1.0663
 4388TIP3    H237360   0.314   1.488  18.350 -1.6314 -1.9368 -2.2087
 4389TIP3   OH237361   1.795   5.226  18.147 -0.2830 -0.4721 -0.2819
 4389TIP3    H137362   1.727   5.230  18.080  0.0674  2.2995 -0.6133
 4389TIP3    H237363   1.748   5.237  18.230 -0.3172  2.2284 -0.5534
 4390TIP3   OH237364   0.174   3.060  19.164  0.4890 -0.2275 -0.2477
 4390TIP3    H137365   0.195   2.983  19.111  0.3603 -0.7056  0.3772
 4390TIP3    H237366   0.100   3.101  19.118  1.1709  0.0671 -1.0992
 4391TIP3   OH237367   7.229   6.468  19.104  0.4786 -0.2407  0.3808
 4391TIP3    H137368   7.323   6.467  19.124  0.7530  0.7085 -0.7199
 4391TIP3    H237369   7.186   6.445  19.186  1.6578 -0.2092  1.0269
 4392TIP3   OH237370   6.340   7.103  17.326  0.3606  0.0486 -0.1212
 4392TIP3    H137371   6.348   7.157  17.248  0.7422  0.3369  0.1122
 4392TIP3    H237372   6.359   7.014  17.296 -0.5483 -0.0063 -0.5603
 4393TIP3   OH237373   6.727   2.554  17.744 -0.2145 -0.0927  0.0752
 4393TIP3    H137374   6.787   2.600  17.803 -1.0665  0.9379  0.1698
 4393TIP3    H237375   6.641   2.559  17.788 -0.4317 -1.3699 -0.1455
 4394TIP3   OH237376   5.219   1.957  18.312 -0.2940 -0.5968 -0.3149
 4394TIP3    H137377   5.297   1.988  18.265 -1.2561 -1.3395 -2.5544
 4394TIP3    H237378   5.154   2.027  18.299 -0.6689 -0.9480 -0.3482
 4395TIP3   OH237379   5.132   4.519  17.252 -0.1987  0.6308 -0.0876
 4395TIP3    H137380   5.111   4.604  17.212 -0.0354  0.8325  0.2514
 4395TIP3    H237381   5.163   4.541  17.340 -0.0209  0.2271 -0.0491
 4396TIP3   OH237382   3.762   6.343  18.231 -0.0063  0.1880 -0.0198
 4396TIP3    H137383   3.746   6.430  18.266 -0.2110 -0.4366  1.5486
 4396TIP3    H237384   3.694   6.330  18.165 -0.4950  0.8942  0.3348
 4397TIP3   OH237385   0.735   0.808  17.371  0.5452  0.7569 -0.4012
 4397TIP3    H137386   0.794   0.745  17.413 -1.2738  0.1832  1.4689
 4397TIP3    H237387   0.750   0.795  17.278  2.2433 -0.4468 -0.0228
 4398TIP3   OH237388   0.236   2.205  16.485 -0.1726 -0.2968  0.0463
 4398TIP3    H137389   0.290   2.258  16.426 -1.9713  0.8177 -0.6809
 4398TIP3    H237390   0.232   2.256  16.566  1.7753 -1.5292  0.9939
 4399TIP3   OH237391   4.418   6.177  19.003  0.3537 -0.1999  0.5753
 4399TIP3    H137392   4.368   6.192  19.083 -0.4945 -2.7925  0.6227
 4399TIP3    H237393   4.360   6.205  18.932 -0.6334 -1.8390  0.7009
 4400TIP3   OH237394   3.632   4.285  18.609 -0.2365  0.3902  0.1973
 4400TIP3    H137395   3.694   4.267  18.539  2.0775  1.5835  1.8132
 4400TIP3    H237396   3.571   4.211  18.606  1.8201 -1.3821 -0.8807
 4401TIP3   OH237397   2.743   4.266  17.964  0.3566  0.1888  0.4487
 4401TIP3    H137398   2.648   4.262  17.980  0.1798  0.7292 -0.3888
 4401TIP3    H237399   2.782   4.234  18.045 -0.5178  1.2857  1.3394
 4402TIP3   OH237400   3.414   5.460  17.296 -0.1374 -0.0429 -0.4920
 4402TIP3    H137401   3.485   5.442  17.358  0.0125  0.4149 -0.5326
 4402TIP3    H237402   3.427   5.396  17.226  0.1478 -0.0519 -0.4317
 4403TIP3   OH237403   0.951   7.019  18.727  0.0682 -0.3041  0.1641
 4403TIP3    H137404   0.946   6.925  18.741  0.0239 -0.5359 -1.2777
 4403TIP3    H237405   0.868   7.041  18.685  0.1246  0.3611  0.3949
 4404TIP3   OH237406   0.877   0.152  17.242  0.3326 -0.2085  0.4491
 4404TIP3    H137407   0.895   0.128  17.152  1.3930  0.6015  0.4285
 4404TIP3    H237408   0.961   0.145  17.287  0.3244  1.5863  0.8394
 4405TIP3   OH237409   3.656   4.847  16.617  0.5445  0.4690  0.4965
 4405TIP3    H137410   3.590   4.807  16.560 -0.5874  0.3188  1.8603
 4405TIP3    H237411   3.739   4.815  16.583 -0.1488 -0.3171 -0.5326
 4406TIP3   OH237412   1.641   0.270  17.174 -0.4995 -0.0667  0.4246
 4406TIP3    H137413   1.636   0.174  17.170 -2.2843 -0.0223  0.9488
 4406TIP3    H237414   1.619   0.299  17.086 -1.4859 -0.1126  0.6469
 4407TIP3   OH237415   0.669   2.481  18.776  0.3533  0.2367  0.0483
 4407TIP3    H137416   0.576   2.463  18.764  0.6712 -2.2937  0.7103
 4407TIP3    H237417   0.675   2.517  18.865 -0.0210  0.6987 -0.1109
 4408TIP3   OH237418   2.422   5.848  18.256  0.2870  0.7594 -0.0589
 4408TIP3    H137419   2.408   5.927  18.308  0.3138  0.6649  0.0918
 4408TIP3    H237420   2.416   5.777  18.319 -1.3127  0.5175 -0.4307
 4409TIP3   OH237421   6.616   6.105  17.078 -0.2937  0.2709 -0.3143
 4409TIP3    H137422   6.605   6.059  17.162  2.0678  0.7579  0.3301
 4409TIP3    H237423   6.590   6.041  17.012 -2.5331 -0.0206  0.7472
 4410TIP3   OH237424   1.675   2.010  17.159  0.6135  0.3211 -0.8957
 4410TIP3    H137425   1.721   2.002  17.243 -0.8376 -0.6424 -0.1340
 4410TIP3    H237426   1.621   2.088  17.169 -1.4599 -1.1221  0.1385
 4411TIP3   OH237427   0.276   2.299  17.739 -0.4130  0.1864 -0.5860
 4411TIP3    H137428   0.335   2.223  17.735 -0.9857 -0.3045 -0.0332
 4411TIP3    H237429   0.269   2.318  17.832 -0.8292  0.4814 -0.6789
 4412TIP3   OH237430   4.228   3.309  17.171  0.0326  0.0842 -0.1196
 4412TIP3    H137431   4.299   3.245  17.168 -1.9172 -2.3015  1.0233
 4412TIP3    H237432   4.174   3.288  17.094 -0.0565  1.1335 -0.3570
 4413TIP3   OH237433   7.138   0.065  17.707  0.0656 -0.6700  0.1902
 4413TIP3    H137434   7.186   0.137  17.665  1.3869 -1.4259  0.3521
 4413TIP3    H237435   7.052   0.102  17.725 -0.3996 -0.0916 -2.6385
 4414TIP3   OH237436   0.361   6.068  18.663  0.1255 -0.0987  0.0294
 4414TIP3    H137437   0.379   6.011  18.589 -0.4993  0.3165 -0.4479
 4414TIP3    H237438   0.437   6.056  18.721  0.4611 -0.6685 -0.5147
 4415TIP3   OH237439   3.328   3.351  17.956  0.6404  0.3831 -0.2385
 4415TIP3    H137440   3.378   3.391  18.028  2.5131 -2.3434  0.1173
 4415TIP3    H237441   3.296   3.268  17.992 -0.4452  0.0530 -1.8465
 4416TIP3   OH237442   2.716   0.093  19.252  0.2732 -0.1008 -0.3302
 4416TIP3    H137443   2.757   0.100  19.338  0.4048  0.1295 -0.4114
 4416TIP3    H237444   2.713  -0.002  19.235 -2.1936 -0.3551  1.0814
 4417TIP3   OH237445   5.725   2.550  17.266  0.1004 -0.4323 -0.2132
 4417TIP3    H137446   5.704   2.477  17.325 -0.2027 -1.1052 -1.1282
 4417TIP3    H237447   5.759   2.508  17.187  0.9175  0.4724 -0.3563
 4418TIP3   OH237448   7.007   6.847  19.541  0.3156 -0.2317 -0.4534
 4418TIP3    H137449   6.981   6.779  19.603  0.2628 -1.2757 -1.5866
 4418TIP3    H237450   6.937   6.912  19.548 -0.2673 -0.8607 -0.2181
 4419TIP3   OH237451   2.987   5.398  18.622 -0.0657 -0.7181  0.3260
 4419TIP3    H137452   3.006   5.340  18.548 -0.2853 -1.5484  0.9114
 4419TIP3    H237453   3.002   5.486  18.587 -0.9643 -1.0382 -0.9604
 4420TIP3   OH237454   0.670   0.791  17.708  0.5966 -0.0157  0.4461
 4420TIP3    H137455   0.610   0.788  17.634  0.4669 -2.8475  0.5636
 4420TIP3    H237456   0.622   0.840  17.775  0.0464  1.1323 -0.7331
 4421TIP3   OH237457   4.785   5.817  17.918 -0.3417  0.2583  0.6687
 4421TIP3    H137458   4.834   5.751  17.967  0.7488 -0.9677 -1.8557
 4421TIP3    H237459   4.736   5.766  17.853 -0.2477  1.8469 -0.7137
 4422TIP3   OH237460   6.263   6.066  17.430  0.1928 -0.1235 -0.5078
 4422TIP3    H137461   6.237   6.158  17.433 -1.2880 -0.4774 -1.2219
 4422TIP3    H237462   6.274   6.041  17.521  0.0367  0.6213 -0.2785
 4423TIP3   OH237463   1.263   3.218  18.022 -0.1990  0.3056  0.1293
 4423TIP3    H137464   1.213   3.194  18.100  0.4740 -1.0207  0.1810
 4423TIP3    H237465   1.213   3.290  17.983 -2.6677 -1.5070 -0.3134
 4424TIP3   OH237466   4.481   7.623  18.794 -0.4495 -0.0681  0.0646
 4424TIP3    H137467   4.477   7.636  18.699 -0.4211 -0.4101  0.0160
 4424TIP3    H237468   4.487   7.528  18.805  1.6390  0.0344  0.3252
 4425TIP3   OH237469   3.448   0.839  19.067  0.1281  0.3096 -0.6283
 4425TIP3    H137470   3.474   0.788  18.990 -0.8452 -1.2871  0.0408
 4425TIP3    H237471   3.490   0.794  19.141 -0.4939  0.6666 -0.0449
 4426TIP3   OH237472   1.062   6.132  17.626 -0.8740 -0.7350 -0.0424
 4426TIP3    H137473   0.988   6.175  17.582 -0.8400 -1.8476 -1.2413
 4426TIP3    H237474   1.042   6.141  17.720 -1.3809  0.9475 -0.2714
 4427TIP3   OH237475   7.287   0.321  19.175  0.1831 -0.3955  0.1883
 4427TIP3    H137476   7.312   0.342  19.085 -0.2645  2.0398  0.5472
 4427TIP3    H237477   7.205   0.272  19.166  0.5307 -0.8315 -0.7380
 4428TIP3   OH237478   5.690   0.075  18.253  0.2935  0.3683  0.3388
 4428TIP3    H137479   5.656   0.133  18.185  0.0316  0.8215  0.8501
 4428TIP3    H237480   5.750   0.017  18.206 -2.2859 -1.4929 -0.8865
 4429TIP3   OH237481   0.751   0.357  18.752 -0.7104  0.3244  0.1274
 4429TIP3    H137482   0.664   0.353  18.792 -0.9832 -0.5396 -0.5160
 4429TIP3    H237483   0.767   0.450  18.740 -0.9121  0.5772  1.5782
 4430TIP3   OH237484   6.425   4.340  19.620  0.0129 -0.1231 -0.1203
 4430TIP3    H137485   6.437   4.313  19.711  1.3294  1.1762  0.1350
 4430TIP3    H237486   6.339   4.305  19.596 -0.5587 -0.1358  1.7565
 4431TIP3   OH237487   1.186   2.018  18.835  0.2164 -0.7798  0.0618
 4431TIP3    H137488   1.235   1.942  18.866 -0.0762 -1.1899 -0.4666
 4431TIP3    H237489   1.211   2.028  18.743 -2.7840 -2.7801 -1.1181
 4432TIP3   OH237490   4.900   2.628  17.614  0.1729  0.3590  0.3312
 4432TIP3    H137491   4.937   2.544  17.586 -1.6399 -0.9189  1.5213
 4432TIP3    H237492   4.908   2.627  17.709 -1.0126  0.9331  0.4504
 4433TIP3   OH237493   4.392   3.749  17.659  0.0881 -0.6314  0.3487
 4433TIP3    H137494   4.473   3.699  17.666  2.1269  2.2524 -0.8294
 4433TIP3    H237495   4.381   3.764  17.565 -1.5079 -0.4238  0.5402
 4434TIP3   OH237496   7.524   3.058  19.210  0.1527 -0.2337  0.1453
 4434TIP3    H137497   7.479   3.030  19.130  1.7175 -1.2537 -0.4160
 4434TIP3    H237498   7.456   3.055  19.277 -1.4368  1.5127 -1.2641
 4435TIP3   OH237499   2.064   5.055  18.562 -0.2280  0.6883 -0.2189
 4435TIP3    H137500   2.007   4.984  18.591 -0.7237  1.6398  1.3197
 4435TIP3    H237501   2.152   5.017  18.561 -0.6782 -0.3653 -1.0465
 4436TIP3   OH237502   2.391   0.732  17.312 -0.1550 -0.0720  0.2144
 4436TIP3    H137503   2.486   0.743  17.307 -0.0179 -1.3966 -0.6818
 4436TIP3    H237504   2.367   0.693  17.228 -1.5957  0.8290  0.1756
 4437TIP3   OH237505   2.796   4.193  18.517 -0.1308  0.1090 -0.0893
 4437TIP3    H137506   2.778   4.124  18.581  0.7673  0.6787  0.8162
 4437TIP3    H237507   2.836   4.264  18.569  1.0886  0.3896 -1.3522
 4438TIP3   OH237508   1.014   6.485  16.555  0.1863 -0.2907 -0.4111
 4438TIP3    H137509   1.087   6.489  16.616 -0.3890  0.3358  0.2449
 4438TIP3    H237510   1.051   6.513  16.471  0.5944  0.4712  0.0147
 4439TIP3   OH237511   5.266   4.005  18.700  0.1763 -0.5081 -0.4532
 4439TIP3    H137512   5.182   3.968  18.673  0.3075  0.9935 -3.3091
 4439TIP3    H237513   5.328   3.933  18.692 -0.1209 -0.5636 -2.7491
 4440TIP3   OH237514   5.522   3.982  19.326 -0.0018 -0.5470 -0.1285
 4440TIP3    H137515   5.617   3.994  19.329 -0.0896 -0.0355  0.7058
 4440TIP3    H237516   5.501   3.931  19.404 -0.5315  0.2088  0.2305
 4441TIP3   OH237517   1.074   4.626  17.105  0.2363 -0.6252 -0.3259
 4441TIP3    H137518   1.121   4.543  17.109  1.1515 -0.0584  1.9716
 4441TIP3    H237519   1.133   4.685  17.056  1.4948 -0.2392  1.5562
 4442TIP3   OH237520   7.505   2.207  17.521  0.0490 -0.4608  0.3905
 4442TIP3    H137521   7.537   2.275  17.580 -2.2257 -0.5191  1.8252
 4442TIP3    H237522   7.564   2.133  17.535  1.6917  0.6946 -0.1304
 4443TIP3   OH237523   0.961   6.982  17.870 -0.4588  0.4443 -0.0523
 4443TIP3    H137524   1.016   7.038  17.924 -0.4906 -0.4160  0.8889
 4443TIP3    H237525   0.986   7.004  17.780  0.3962  1.0861  0.3325
 4444TIP3   OH237526   2.702   4.237  19.296  0.0812  0.1025 -0.5189
 4444TIP3    H137527   2.682   4.315  19.244 -2.8634 -1.2413 -1.6282
 4444TIP3    H237528   2.659   4.165  19.249  0.9933 -1.9042  1.5227
 4445TIP3   OH237529   7.010   4.723  16.280  0.3927  0.3667 -0.0927
 4445TIP3    H137530   7.068   4.788  16.241 -1.5376  1.0927 -1.9892
 4445TIP3    H237531   6.931   4.772  16.302  0.1631 -0.7151  1.7279
 4446TIP3   OH237532   5.606   4.215  19.461 -0.6643 -0.0742 -0.0465
 4446TIP3    H137533   5.560   4.270  19.525 -1.3438 -0.6766  0.0019
 4446TIP3    H237534   5.542   4.148  19.437 -0.3702  0.0510 -1.2535
 4447TIP3   OH237535   6.818   0.016  17.619  0.2916 -0.3378 -0.1353
 4447TIP3    H137536   6.778   0.089  17.667  1.4593  0.0531  0.2855
 4447TIP3    H237537   6.911   0.038  17.615  0.2615 -0.4153 -2.5143
 4448TIP3   OH237538   0.868   5.533  17.145  0.3783  0.3787 -0.3749
 4448TIP3    H137539   0.908   5.455  17.105 -1.7395 -1.2891  0.5532
 4448TIP3    H237540   0.885   5.523  17.239  1.3032  1.8211 -0.3667
 4449TIP3   OH237541   0.996   2.433  19.286  0.0224  0.6527 -0.1333
 4449TIP3    H137542   1.028   2.385  19.363 -0.1049  1.3879  0.3799
 4449TIP3    H237543   0.953   2.366  19.233  0.5633  0.0418  0.1828
 4450TIP3   OH237544   3.191   6.849  17.507  0.6717 -0.2391 -0.0522
 4450TIP3    H137545   3.230   6.770  17.544 -1.7451 -1.9154 -0.8219
 4450TIP3    H237546   3.134   6.817  17.437 -1.0079  2.1076  0.1209
 4451TIP3   OH237547   6.998   7.121  17.203 -0.3855  0.9525  0.4632
 4451TIP3    H137548   6.977   7.209  17.236  2.6429  0.9869  2.7560
 4451TIP3    H237549   7.019   7.071  17.282 -0.2833 -1.3289 -0.9322
 4452TIP3   OH237550   1.245   3.588  17.718 -0.5116  0.8084  0.0541
 4452TIP3    H137551   1.287   3.592  17.632 -0.0879  2.0515  0.2976
 4452TIP3    H237552   1.312   3.621  17.778  0.4531 -2.9922  1.4046
 4453TIP3   OH237553   6.134   6.249  18.407  1.1140 -0.2666 -0.2852
 4453TIP3    H137554   6.182   6.220  18.484  0.4224 -0.8019 -0.0348
 4453TIP3    H237555   6.057   6.293  18.442  1.4335  0.6113 -0.6770
 4454TIP3   OH237556   6.325   4.664  18.071  1.1178  1.1313 -0.4087
 4454TIP3    H137557   6.239   4.707  18.065  1.1684  1.2854 -0.0449
 4454TIP3    H237558   6.305   4.575  18.102  0.9384  0.6203 -1.9043
 4455TIP3   OH237559   0.063   6.261  16.658  0.7068  0.1920 -0.2679
 4455TIP3    H137560   0.095   6.171  16.659 -0.7330 -0.3552  0.4944
 4455TIP3    H237561   0.140   6.314  16.639  1.4307 -1.2453 -1.5692
 4456TIP3   OH237562   3.212   3.577  16.958 -0.1761 -0.9826 -0.0457
 4456TIP3    H137563   3.260   3.564  16.876  2.6181 -1.5432  1.5412
 4456TIP3    H237564   3.215   3.492  17.001 -2.3960 -0.9358  0.3142
 4457TIP3   OH237565   4.888   3.929  17.284  0.6352 -0.2589  0.0486
 4457TIP3    H137566   4.955   3.915  17.217  0.7269 -2.3390  0.5152
 4457TIP3    H237567   4.867   3.842  17.316 -1.9982  0.3634  0.2444
 4458TIP3   OH237568   4.935   0.964  19.060  0.6399 -0.1444  0.2463
 4458TIP3    H137569   4.980   0.934  18.980  1.3232  0.0387  0.5500
 4458TIP3    H237570   4.978   1.047  19.081 -0.0077  0.1507  0.4240
 4459TIP3   OH237571   6.729   5.440  19.061  0.4264 -0.0490 -0.1162
 4459TIP3    H137572   6.706   5.502  19.131  0.8818  0.2175 -0.2007
 4459TIP3    H237573   6.698   5.483  18.981 -0.5562 -0.5799 -0.0429
 4460TIP3   OH237574   4.961   3.581  18.570 -0.2456 -0.5899 -0.0183
 4460TIP3    H137575   4.881   3.628  18.546  1.2129  1.1716 -1.7984
 4460TIP3    H237576   4.936   3.489  18.569 -2.3932 -0.0764  0.2064
 4461TIP3   OH237577   2.647   4.629  19.428 -0.1999 -0.1897  0.3296
 4461TIP3    H137578   2.732   4.639  19.471  0.0300  1.5623 -0.4750
 4461TIP3    H237579   2.583   4.655  19.494 -0.2458 -2.2942  1.2209
 4462TIP3   OH237580   7.026   6.680  17.367 -0.0824 -0.4081  0.1746
 4462TIP3    H137581   7.055   6.689  17.457 -0.7856  1.5992  0.2417
 4462TIP3    H237582   6.940   6.638  17.374 -1.4369  2.2381  0.7316
 4463TIP3   OH237583   2.183   6.361  18.507 -0.1138 -0.1139  0.1260
 4463TIP3    H137584   2.268   6.382  18.468 -0.8728 -1.4894 -2.5015
 4463TIP3    H237585   2.129   6.438  18.490 -0.2516 -0.4535 -1.0859
 4464TIP3   OH237586   3.184   2.365  18.235 -0.3795 -0.2944  0.1475
 4464TIP3    H137587   3.107   2.412  18.205 -1.0232 -0.8767  0.8260
 4464TIP3    H237588   3.256   2.428  18.228 -0.8017  0.0716 -1.0387
 4465TIP3   OH237589   1.986   0.320  16.827  0.1581  0.4460 -0.1793
 4465TIP3    H137590   1.935   0.259  16.774  0.4080  0.1222 -0.0480
 4465TIP3    H237591   1.954   0.406  16.801  0.7375  0.3324 -1.3462
 4466TIP3   OH237592   5.287   5.744  17.036  0.4292 -0.0154  0.1407
 4466TIP3    H137593   5.346   5.774  17.105 -2.2127  1.0240  2.1509
 4466TIP3    H237594   5.330   5.768  16.954  3.3162 -0.5249  1.3980
 4467TIP3   OH237595   4.646   7.562  18.006  0.2325  0.4536 -0.2972
 4467TIP3    H137596   4.629   7.478  17.963 -1.5912  0.2401  0.7232
 4467TIP3    H237597   4.644   7.626  17.935  0.6896 -0.2565 -0.9689
 4468TIP3   OH237598   1.304   4.852  18.160  0.0881  0.2907 -0.2454
 4468TIP3    H137599   1.310   4.811  18.074  0.4663 -0.7111  0.2355
 4468TIP3    H237600   1.394   4.876  18.182 -0.0260  0.6698 -0.1908
 4469TIP3   OH237601   0.639   3.678  18.050  0.1433 -0.4558 -0.4620
 4469TIP3    H137602   0.618   3.710  18.138 -0.0337  1.6910 -1.2465
 4469TIP3    H237603   0.730   3.648  18.057 -0.8222 -3.3682  1.2028
 4470TIP3   OH237604   2.027   2.142  18.597 -0.2985  0.4309  0.3308
 4470TIP3    H137605   2.002   2.050  18.595 -1.9097  0.8150  0.8731
 4470TIP3    H237606   2.037   2.162  18.691  1.8684  0.3927  0.1615
 4471TIP3   OH237607   6.480   0.140  18.539  0.1354  0.2648  0.2924
 4471TIP3    H137608   6.434   0.224  18.546 -0.4117 -0.0093  0.0240
 4471TIP3    H237609   6.469   0.115  18.448 -0.7482 -0.6844  0.6409
 4472TIP3   OH237610   1.443   7.610  19.076 -0.1345  0.1698 -0.0517
 4472TIP3    H137611   1.475   7.619  19.166 -1.4177 -0.5345  0.4932
 4472TIP3    H237612   1.515   7.567  19.029 -0.4579 -1.9480  1.2867
 4473TIP3   OH237613   2.759   7.420  18.726  0.4179 -0.0779  0.3600
 4473TIP3    H137614   2.787   7.504  18.764  0.0346  0.6858 -0.9802
 4473TIP3    H237615   2.840   7.382  18.691  0.4523  0.1479  0.1927
 4474TIP3   OH237616   1.580   6.679  18.228  0.2747 -0.7579 -0.0745
 4474TIP3    H137617   1.596   6.655  18.137  1.5766 -0.5203  0.0725
 4474TIP3    H237618   1.654   6.641  18.276  0.4796  0.5064  0.6582
 4475TIP3   OH237619   0.972   3.482  17.699  0.0527  0.8979 -0.2229
 4475TIP3    H137620   1.064   3.496  17.720 -0.1033  1.0802  0.3462
 4475TIP3    H237621   0.972   3.459  17.606  0.5864  1.8958 -0.4924
 4476TIP3   OH237622   3.008   5.439  17.346  1.2493  0.0048 -0.2632
 4476TIP3    H137623   2.996   5.377  17.418 -0.6584  1.2858  0.5969
 4476TIP3    H237624   3.058   5.510  17.385  1.3155  0.1169 -0.5577
 4477TIP3   OH237625   1.499   3.994  19.008  0.2725 -0.6273 -0.2290
 4477TIP3    H137626   1.502   4.086  18.980 -1.6615 -0.9408 -1.6421
 4477TIP3    H237627   1.407   3.977  19.025  0.5285 -2.4501 -0.4805
 4478TIP3   OH237628   6.682   3.160  16.956 -0.0007 -0.5911  0.5709
 4478TIP3    H137629   6.768   3.201  16.962  0.8304 -2.3713  1.8297
 4478TIP3    H237630   6.700   3.066  16.968 -2.2977 -0.8550  2.6662
 4479TIP3   OH237631   7.211   4.496  18.685  0.0323  0.2447  0.2211
 4479TIP3    H137632   7.123   4.522  18.711  0.2917  1.9210 -0.4414
 4479TIP3    H237633   7.236   4.561  18.619  2.3394  0.6974  1.4616
 4480TIP3   OH237634   3.549   2.313  18.241  0.7537  0.3249 -0.1589
 4480TIP3    H137635   3.555   2.369  18.164  0.3336 -0.6567 -0.9175
 4480TIP3    H237636   3.622   2.251  18.232  1.3066  0.8168  0.7517
 4481TIP3   OH237637   6.879   7.349  18.473 -0.0975  0.2885  0.1087
 4481TIP3    H137638   6.910   7.421  18.419 -1.1160 -0.1379 -1.1010
 4481TIP3    H237639   6.901   7.270  18.423 -1.7874 -0.0835 -0.1152
 4482TIP3   OH237640   7.450   2.689  16.700 -0.0729 -0.5520 -0.3912
 4482TIP3    H137641   7.530   2.638  16.695 -0.3465 -0.9828 -0.4481
 4482TIP3    H237642   7.469   2.758  16.764 -0.3270 -1.8915  1.1928
 4483TIP3   OH237643   7.038   0.262  17.485  0.1192 -0.1827 -0.4829
 4483TIP3    H137644   7.019   0.323  17.556  0.6212  0.0481 -0.5439
 4483TIP3    H237645   6.962   0.270  17.427  0.2216  0.4582 -0.5395
 4484TIP3   OH237646   3.452   7.205  18.331 -0.3589  0.7371  0.3371
 4484TIP3    H137647   3.546   7.213  18.318 -0.3738  1.9679  0.8508
 4484TIP3    H237648   3.425   7.291  18.363 -1.5341  0.1584  0.9524
 4485TIP3   OH237649   0.826   1.191  18.671 -0.4305 -0.4183  0.1800
 4485TIP3    H137650   0.899   1.185  18.733 -0.8431 -1.4272  0.5868
 4485TIP3    H237651   0.861   1.241  18.597  0.5007 -0.4235  0.6058
 4486TIP3   OH237652   7.016   1.703  16.886 -0.2868  0.0728  0.0156
 4486TIP3    H137653   7.009   1.749  16.802  0.6500 -1.3374 -0.8775
 4486TIP3    H237654   7.110   1.687  16.897 -0.5119 -0.8717  0.7059
 4487TIP3   OH237655   0.300   6.233  18.898  0.2173 -0.3602 -0.1262
 4487TIP3    H137656   0.306   6.158  18.838  0.8795  0.0619 -0.6117
 4487TIP3    H237657   0.276   6.195  18.982  1.8954 -1.3104 -0.0237
 4488TIP3   OH237658   4.364   5.181  17.780  0.5099  0.3567  0.2635
 4488TIP3    H137659   4.360   5.271  17.749  0.7239  0.3105  0.0927
 4488TIP3    H237660   4.428   5.138  17.721  1.6183  0.4972  1.3194
 4489TIP3   OH237661   3.522   6.833  17.680 -0.3552 -0.1270  0.0335
 4489TIP3    H137662   3.587   6.812  17.747  0.1740  0.1882 -0.3752
 4489TIP3    H237663   3.566   6.895  17.622 -0.9608 -0.0471 -0.3512
 4490TIP3   OH237664   5.602   2.570  19.539 -0.2953 -0.1326 -0.2589
 4490TIP3    H137665   5.592   2.488  19.587 -1.8160 -0.7717 -1.5575
 4490TIP3    H237666   5.554   2.556  19.457 -1.1806  2.2651 -0.2470
 4491TIP3   OH237667   4.944   5.944  19.041  0.0144  0.0493 -0.1251
 4491TIP3    H137668   4.867   5.888  19.047 -2.0449  2.5700 -1.4404
 4491TIP3    H237669   4.966   5.945  18.948  1.8314 -0.8032  0.2546
 4492TIP3   OH237670   4.433   5.717  17.028 -0.2557 -0.4810  0.4647
 4492TIP3    H137671   4.356   5.667  16.999  0.9027 -2.3965  0.5201
 4492TIP3    H237672   4.477   5.660  17.091  1.2684  0.5123  0.3588
 4493TIP3   OH237673   7.397   2.663  18.346 -0.1965 -0.3430  0.3360
 4493TIP3    H137674   7.324   2.653  18.407  0.2081  0.8196  1.0428
 4493TIP3    H237675   7.444   2.580  18.351 -1.5208 -1.1797 -0.2571
 4494TIP3   OH237676   3.217   4.026  17.666  0.0330  0.0518  0.0140
 4494TIP3    H137677   3.275   4.094  17.632  0.2891 -0.3927 -0.4481
 4494TIP3    H237678   3.227   4.032  17.761 -1.1914  1.7393  0.0771
 4495TIP3   OH237679   7.227   5.465  16.637 -0.1580  0.6863  0.2774
 4495TIP3    H137680   7.139   5.438  16.609 -1.0167  2.1918  1.3820
 4495TIP3    H237681   7.243   5.416  16.718  0.1986  0.1232 -0.1273
 4496TIP3   OH237682   5.978   7.347  17.329  0.0951  0.4533 -0.3277
 4496TIP3    H137683   5.890   7.384  17.341 -0.2301 -0.0335 -1.1169
 4496TIP3    H237684   6.017   7.403  17.261  0.4142  0.6893  0.0451
 4497TIP3   OH237685   3.785   7.661  18.618 -0.2130  0.3296 -0.5395
 4497TIP3    H137686   3.743   7.690  18.699  0.5021  0.7425 -0.3108
 4497TIP3    H237687   3.878   7.674  18.633 -0.0696  0.3989 -1.4343
 4498TIP3   OH237688   3.815   1.878  18.273  0.6124  0.3289  0.6099
 4498TIP3    H137689   3.737   1.823  18.267  0.2109  0.9297  0.2368
 4498TIP3    H237690   3.841   1.874  18.365 -0.5220  1.0083  0.9793
 4499TIP3   OH237691   5.324   6.756  16.595  0.2829 -0.0080  0.4886
 4499TIP3    H137692   5.367   6.677  16.626 -0.2577 -0.2747  0.5728
 4499TIP3    H237693   5.231   6.734  16.595  0.2190  0.2137 -0.6695
 4500TIP3   OH237694   4.189   4.452  18.984 -0.2505 -0.4465 -0.4156
 4500TIP3    H137695   4.269   4.404  19.004 -0.8875 -1.3099  0.1315
 4500TIP3    H237696   4.121   4.384  18.978 -1.4242  0.4561  1.6292
 4501TIP3   OH237697   0.531   0.752  19.438  0.2775  1.0130  0.1717
 4501TIP3    H137698   0.462   0.686  19.450  1.1585  0.1710  0.7919
 4501TIP3    H237699   0.501   0.805  19.364 -0.0865 -0.5918 -0.8932
 4502TIP3   OH237700   5.541   5.875  17.574 -0.7930  0.0920 -0.0227
 4502TIP3    H137701   5.456   5.910  17.548 -0.3871  2.4201  1.4626
 4502TIP3    H237702   5.598   5.892  17.499 -1.5136 -1.1623 -0.8898
 4503TIP3   OH237703   4.438   5.785  17.674  0.2425  1.0810 -0.3283
 4503TIP3    H137704   4.397   5.727  17.609 -1.4076  1.6984  0.1382
 4503TIP3    H237705   4.473   5.725  17.740 -1.5003  0.5727  0.1825
 4504TIP3   OH237706   3.656   3.777  19.083  0.3542 -0.1690 -0.4460
 4504TIP3    H137707   3.565   3.784  19.112  1.4587  2.0605  3.1733
 4504TIP3    H237708   3.672   3.859  19.036  0.9731  0.4075  0.7275
 4505TIP3   OH237709   5.206   7.603  17.040  0.0907 -0.2615 -0.1086
 4505TIP3    H137710   5.262   7.525  17.035 -1.0014 -1.1642  1.1020
 4505TIP3    H237711   5.182   7.620  16.949  1.7285 -0.2751 -0.5843
 4506TIP3   OH237712   4.228   6.394  16.688 -0.5763  0.2417 -0.3337
 4506TIP3    H137713   4.157   6.447  16.724  0.8251  1.8942  0.1554
 4506TIP3    H237714   4.251   6.333  16.759 -1.6509 -0.5224 -0.6079
 4507TIP3   OH237715   1.028   0.611  18.248 -0.2847 -0.5402  0.1017
 4507TIP3    H137716   0.991   0.560  18.320  1.5139 -1.0140  0.7396
 4507TIP3    H237717   1.079   0.680  18.292 -1.5745  1.0168 -0.7416
 4508TIP3   OH237718   1.913   1.604  17.441  0.0816  0.1477 -0.1502
 4508TIP3    H137719   1.963   1.659  17.382  0.3096 -1.2818 -1.3630
 4508TIP3    H237720   1.911   1.652  17.523  1.9348  1.0439 -0.5786
 4509TIP3   OH237721   6.911   5.357  17.014 -0.2210 -0.4456 -0.0332
 4509TIP3    H137722   6.962   5.334  16.937 -0.1866 -1.2104  0.2086
 4509TIP3    H237723   6.976   5.371  17.083 -0.2924 -0.5322  0.0512
 4510TIP3   OH237724   3.706   0.009  17.946 -0.1495  0.2356  0.3309
 4510TIP3    H137725   3.755  -0.065  17.911 -0.3525  0.4151 -0.3295
 4510TIP3    H237726   3.628   0.015  17.892 -1.6644 -0.9327  2.2485
 4511TIP3   OH237727   7.483   6.379  19.114 -0.0720  0.0369  0.3214
 4511TIP3    H137728   7.563   6.356  19.160 -0.0162  2.3693  1.5436
 4511TIP3    H237729   7.512   6.405  19.026  0.1229 -1.8377 -0.2142
 4512TIP3   OH237730   3.986   5.422  16.898  0.0822  0.2215  0.1248
 4512TIP3    H137731   3.908   5.393  16.946 -0.4952 -2.1658 -2.0161
 4512TIP3    H237732   4.053   5.356  16.919 -0.2899 -1.0992 -2.4190
 4513TIP3   OH237733   6.130   3.134  18.465 -0.1473  0.1431  0.1645
 4513TIP3    H137734   6.209   3.160  18.418  0.1878  2.0195  1.6180
 4513TIP3    H237735   6.058   3.160  18.407  0.2597 -1.4480 -1.1019
 4514TIP3   OH237736   5.449   1.610  17.644  0.3738  0.0396 -0.1035
 4514TIP3    H137737   5.375   1.593  17.586  0.0709 -1.2735  0.6289
 4514TIP3    H237738   5.523   1.627  17.586 -0.6107  2.0220 -0.8543
 4515TIP3   OH237739   5.716   6.436  18.011 -0.4468  0.2398  0.3162
 4515TIP3    H137740   5.663   6.414  17.934  1.2126  0.3287 -0.8989
 4515TIP3    H237741   5.806   6.428  17.981  0.2401  0.9203  2.0904
 4516TIP3   OH237742   2.399   7.540  17.510  0.2731 -0.1575  0.2640
 4516TIP3    H137743   2.317   7.579  17.479  0.3514  0.3761  0.6998
 4516TIP3    H237744   2.468   7.589  17.464  0.3715  0.2293  0.8051
 4517TIP3   OH237745   3.218   5.737  18.120 -0.5939 -0.1875  0.6475
 4517TIP3    H137746   3.208   5.643  18.109 -1.3694 -0.1197  0.7152
 4517TIP3    H237747   3.129   5.769  18.137 -0.2683  0.4903  1.1159
 4518TIP3   OH237748   0.664   2.503  19.066 -0.0383  0.0247  0.4580
 4518TIP3    H137749   0.730   2.437  19.084  1.2662  1.1763  0.0406
 4518TIP3    H237750   0.630   2.527  19.152 -0.4628 -1.0863  0.6236
 4519TIP3   OH237751   5.160   0.186  19.340  0.0908  0.0125  0.1465
 4519TIP3    H137752   5.104   0.264  19.338 -0.5800 -0.4747 -0.4349
 4519TIP3    H237753   5.183   0.170  19.249  1.6755  0.5323  0.4236
 4520TIP3   OH237754   6.761   6.934  17.476  0.6160 -0.1621 -0.2387
 4520TIP3    H137755   6.837   6.979  17.513 -0.3933  1.4589 -0.0476
 4520TIP3    H237756   6.691   6.947  17.540 -0.2319 -0.2951 -1.1110
 4521TIP3   OH237757   0.601   4.352  19.385  0.3001 -0.0430 -0.0759
 4521TIP3    H137758   0.630   4.274  19.431  2.6830  0.8054 -0.0359
 4521TIP3    H237759   0.564   4.408  19.455 -2.1979 -1.3543 -0.2123
 4522TIP3   OH237760   7.018   3.108  17.088  0.8074  0.3657  0.0988
 4522TIP3    H137761   6.947   3.114  17.152 -0.3785 -1.7778 -0.8955
 4522TIP3    H237762   7.004   3.183  17.030  0.3644  0.9100  0.8953
 4523TIP3   OH237763   5.095   6.912  17.879 -0.2839  0.2572 -0.3311
 4523TIP3    H137764   5.089   6.888  17.972 -0.0448 -0.0131 -0.3813
 4523TIP3    H237765   5.144   6.994  17.878  0.7447 -0.3410 -0.2935
 4524TIP3   OH237766   3.839   4.039  18.083 -0.3855 -0.1077  0.0258
 4524TIP3    H137767   3.866   3.975  18.018 -2.9653 -0.7184 -0.5398
 4524TIP3    H237768   3.839   4.122  18.035 -0.7309 -0.3048 -0.3267
 4525TIP3   OH237769   4.666   1.242  18.898  0.2766 -0.1870  0.3189
 4525TIP3    H137770   4.753   1.246  18.859 -0.0629 -0.7209 -0.5286
 4525TIP3    H237771   4.674   1.290  18.981  1.5590 -0.9006  0.6299
 4526TIP3   OH237772   6.969   5.785  18.305  0.9633 -0.3501 -0.4729
 4526TIP3    H137773   7.047   5.816  18.258  0.6706 -0.2117 -0.8747
 4526TIP3    H237774   6.950   5.700  18.266 -0.1867  0.4381 -1.7018
 4527TIP3   OH237775   5.823   3.052  18.497 -0.8288 -0.1963  0.3556
 4527TIP3    H137776   5.822   2.957  18.487 -0.5700 -0.1926  0.3041
 4527TIP3    H237777   5.744   3.081  18.451 -0.3800 -0.2981 -0.4940
 4528TIP3   OH237778   5.521   4.893  19.149 -0.1933  0.8248 -0.8057
 4528TIP3    H137779   5.521   4.805  19.111  1.2949  1.2072 -1.7833
 4528TIP3    H237780   5.430   4.907  19.176 -0.6372 -0.6904 -1.3691
 4529TIP3   OH237781   1.586   5.433  19.200 -0.3397  0.2301 -0.2148
 4529TIP3    H137782   1.511   5.412  19.144  0.4751 -0.9945 -0.8937
 4529TIP3    H237783   1.565   5.519  19.237 -2.2974 -0.2912  0.0065
 4530TIP3   OH237784   4.635   1.964  18.906  0.2785  0.3212 -0.2827
 4530TIP3    H137785   4.550   1.961  18.949  0.5157 -0.7850  0.1381
 4530TIP3    H237786   4.657   2.057  18.902 -0.7614  0.5884 -0.0391
 4531TIP3   OH237787   0.015   6.693  19.201  0.4354 -0.1845 -0.0918
 4531TIP3    H137788  -0.055   6.668  19.261 -1.1118 -1.5383 -2.3144
 4531TIP3    H237789   0.070   6.615  19.195  1.3660  0.3958  0.5227
 4532TIP3   OH237790   0.914   3.574  16.782 -0.1828 -0.4305  0.1266
 4532TIP3    H137791   0.819   3.587  16.774 -0.0841  1.5839  1.5567
 4532TIP3    H237792   0.935   3.509  16.714 -2.6627 -1.4651  0.2546
 4533TIP3   OH237793   0.681   5.549  18.928 -0.4761  0.4094 -0.0771
 4533TIP3    H137794   0.636   5.555  19.013  0.1330  1.9645  0.1643
 4533TIP3    H237795   0.700   5.640  18.905  1.8803 -0.1414 -0.5335
 4534TIP3   OH237796   5.004   2.749  18.414 -0.1992  0.2314 -0.1358
 4534TIP3    H137797   4.924   2.795  18.438 -0.0373  0.3193  0.2549
 4534TIP3    H237798   4.977   2.658  18.401 -0.3417  0.2336  0.1306
 4535TIP3   OH237799   0.262   1.999  17.324 -0.2501 -0.3235 -0.1577
 4535TIP3    H137800   0.304   2.079  17.355 -1.1838  0.3987 -0.7042
 4535TIP3    H237801   0.302   1.929  17.376  0.3572  0.5258  0.5465
 4536TIP3   OH237802   6.828   2.237  17.271 -0.7033 -0.9002 -0.1236
 4536TIP3    H137803   6.891   2.187  17.323  1.1130  0.8109 -0.5528
 4536TIP3    H237804   6.808   2.313  17.326  1.1180  0.8541 -1.7441
 4537TIP3   OH237805   2.629   3.525  16.837  0.6756 -0.3004 -0.0689
 4537TIP3    H137806   2.533   3.531  16.842  0.4096 -2.2450 -1.3256
 4537TIP3    H237807   2.657   3.610  16.805 -0.3530  1.1612  2.6465
 4538TIP3   OH237808   0.180   3.891  17.781  0.3639 -0.0994  0.0811
 4538TIP3    H137809   0.251   3.889  17.846 -1.7054 -0.4907  2.4790
 4538TIP3    H237810   0.152   3.983  17.780  0.7711  0.0302 -0.7821
 4539TIP3   OH237811   4.012   5.462  17.756 -0.0843  0.0125  0.1321
 4539TIP3    H137812   3.975   5.550  17.762 -0.0697 -0.0590  1.6874
 4539TIP3    H237813   3.957   5.409  17.814  0.2293 -0.8871 -0.3827
 4540TIP3   OH237814   3.214   5.155  17.314  0.2731  0.8227  0.0765
 4540TIP3    H137815   3.206   5.228  17.376 -0.0557  1.2936 -0.5059
 4540TIP3    H237816   3.213   5.077  17.369  0.2276  1.2412  0.6844
 4541TIP3   OH237817   3.774   5.387  17.895 -0.2436  0.3385 -0.5017
 4541TIP3    H137818   3.710   5.343  17.839  0.9554 -2.7790  0.3090
 4541TIP3    H237819   3.726   5.461  17.932 -2.6133 -0.4294 -1.7660
 4542TIP3   OH237820   5.787   3.908  19.218  0.1700 -0.1418 -0.5913
 4542TIP3    H137821   5.856   3.874  19.274  0.6023  2.3702  0.5562
 4542TIP3    H237822   5.833   3.944  19.142  0.0566  0.4844 -0.3758
 4543TIP3   OH237823   2.417   1.170  18.330  0.1555  0.3657 -0.4114
 4543TIP3    H137824   2.473   1.198  18.258  0.6401  0.7329  0.0992
 4543TIP3    H237825   2.454   1.086  18.357 -0.1527  0.1269 -0.7172
 4544TIP3   OH237826   4.334   2.083  17.693  0.1874  0.2950  0.0873
 4544TIP3    H137827   4.391   2.069  17.617  1.4626  1.5887  0.7546
 4544TIP3    H237828   4.294   2.168  17.677 -2.2639 -0.9299 -0.7539
 4545TIP3   OH237829   5.577   5.511  18.275 -0.5622  0.2031  0.0166
 4545TIP3    H137830   5.552   5.438  18.331 -0.9505 -1.4078 -2.1186
 4545TIP3    H237831   5.665   5.489  18.244  0.1602  1.6861  0.9362
 4546TIP3   OH237832   7.461   0.100  16.934  0.2508  0.4898 -0.3242
 4546TIP3    H137833   7.539   0.102  16.989  0.4293 -0.5601 -0.5160
 4546TIP3    H237834   7.400   0.042  16.981 -0.9382  2.2890  0.4727
 4547TIP3   OH237835   6.325   6.723  18.747 -0.3090 -0.2867 -0.0157
 4547TIP3    H137836   6.388   6.722  18.820 -0.8128 -1.2120  0.4197
 4547TIP3    H237837   6.240   6.726  18.790 -0.6146 -0.8846 -0.5711
 4548TIP3   OH237838   1.572   2.964  17.880 -0.3221 -0.3160  0.1939
 4548TIP3    H137839   1.590   3.051  17.917 -1.4060 -0.2442  0.5891
 4548TIP3    H237840   1.521   2.982  17.800  1.2964 -0.5072 -0.9156
 4549TIP3   OH237841   4.127   5.151  17.347 -0.3048 -0.3791  0.0585
 4549TIP3    H137842   4.121   5.086  17.417 -0.1072  0.7608  1.1640
 4549TIP3    H237843   4.094   5.232  17.386  0.0964  0.3651 -1.0805
 4550TIP3   OH237844   4.081   3.984  17.825  0.3042 -0.4252  0.1669
 4550TIP3    H137845   4.148   3.959  17.762  0.0422 -1.3647  0.2477
 4550TIP3    H237846   4.121   3.967  17.910  0.4255  0.2307  0.2431
 4551TIP3   OH237847   6.768   6.218  18.265 -0.4562  0.1804  0.8012
 4551TIP3    H137848   6.678   6.246  18.284 -0.1393  1.1125  1.0078
 4551TIP3    H237849   6.802   6.287  18.208  0.2352  0.0176  1.0105
 4552TIP3   OH237850   7.514   1.178  19.116 -0.8043  0.1254  0.2679
 4552TIP3    H137851   7.503   1.195  19.022  1.7426  0.5395 -0.0172
 4552TIP3    H237852   7.561   1.095  19.120  0.0299  0.6208  1.1075
 4553TIP3   OH237853   1.259   3.045  17.791 -0.2169 -0.9281  0.5477
 4553TIP3    H137854   1.293   3.081  17.873 -1.1782  0.3141  0.4325
 4553TIP3    H237855   1.215   3.119  17.749 -1.8446 -2.1139  0.0473
 4554TIP3   OH237856   3.763   1.115  18.681  0.6281  0.2558  0.0585
 4554TIP3    H137857   3.764   1.205  18.647  2.3269  0.0253 -0.5741
 4554TIP3    H237858   3.801   1.122  18.768 -0.7338  0.3571  0.6745
 4555TIP3   OH237859   1.580   7.554  17.352  0.1775  0.3968 -0.1340
 4555TIP3    H137860   1.650   7.594  17.403  2.2451  0.7827 -3.0894
 4555TIP3    H237861   1.576   7.604  17.271 -0.7600 -2.1114 -1.7606
 4556TIP3   OH237862   2.663   5.645  17.022 -0.3802 -0.5507  0.0403
 4556TIP3    H137863   2.752   5.642  17.058 -1.3831  0.4432  2.9043
 4556TIP3    H237864   2.671   5.605  16.935  2.9056 -0.1443  0.0203
 4557TIP3   OH237865   7.329   1.781  17.911 -0.4529 -0.1383 -0.2656
 4557TIP3    H137866   7.416   1.821  17.901 -1.1101  1.3775 -0.2392
 4557TIP3    H237867   7.278   1.846  17.960 -2.1422 -0.1233 -1.9179
 4558TIP3   OH237868   6.674   4.952  17.883 -0.0862 -0.2746 -0.1726
 4558TIP3    H137869   6.646   4.908  17.963  3.5255 -1.1970  0.7480
 4558TIP3    H237870   6.686   4.881  17.820  0.9579 -0.0466 -0.2438
 4559TIP3   OH237871   1.368   1.532  19.133 -0.0542 -0.4781  0.1189
 4559TIP3    H137872   1.403   1.513  19.221  2.2297 -0.6627 -0.7644
 4559TIP3    H237873   1.442   1.570  19.086 -0.8948 -1.4131 -2.0691
 4560TIP3   OH237874   6.116   2.595  19.218 -0.3417 -0.4928  0.1156
 4560TIP3    H137875   6.095   2.596  19.125 -3.5789  0.9785  0.7334
 4560TIP3    H237876   6.135   2.503  19.238 -0.7055 -1.0055 -1.7511
 4561TIP3   OH237877   5.822   2.762  18.342 -0.3185  0.0472 -0.1653
 4561TIP3    H137878   5.914   2.763  18.370 -0.2827 -0.3734 -0.2607
 4561TIP3    H237879   5.825   2.782  18.248 -0.5396  2.8768  0.3423
 4562TIP3   OH237880   3.497   3.416  18.647  0.4505 -0.0481  0.2428
 4562TIP3    H137881   3.460   3.332  18.675 -1.1818  0.7640  0.6266
 4562TIP3    H237882   3.444   3.441  18.572  1.6358  0.1516 -0.5582
 4563TIP3   OH237883   1.748   3.138  18.507 -0.3638 -0.0762 -0.1817
 4563TIP3    H137884   1.810   3.065  18.496  1.8655  1.5580  0.7701
 4563TIP3    H237885   1.671   3.098  18.546  0.1171 -2.1852 -1.2332
 4564TIP3   OH237886   3.442   4.270  17.243  0.0622 -0.0785  0.1512
 4564TIP3    H137887   3.522   4.243  17.199  1.4818  1.8267  1.3755
 4564TIP3    H237888   3.424   4.358  17.209 -2.5185 -1.0479 -1.3121
 4565TIP3   OH237889   7.190   6.237  18.778  0.2127  0.2616  0.0590
 4565TIP3    H137890   7.103   6.250  18.817  1.2945  0.2992  2.6979
 4565TIP3    H237891   7.175   6.176  18.706 -2.1647  1.3119 -0.4317
 4566TIP3   OH237892   1.257   1.465  16.863 -0.3224 -0.3733  0.3645
 4566TIP3    H137893   1.239   1.433  16.775 -1.6001 -0.7260  0.7458
 4566TIP3    H237894   1.326   1.407  16.896  0.4041 -0.0340 -0.4983
 4567TIP3   OH237895   6.388   6.504  18.319 -0.0652 -0.1498 -0.2154
 4567TIP3    H137896   6.330   6.452  18.376 -1.8216  0.5011 -1.3277
 4567TIP3    H237897   6.355   6.593  18.327  0.6843  0.2153 -1.0393
 4568TIP3   OH237898   1.154   2.846  19.228 -0.5498 -0.7796  0.6786
 4568TIP3    H137899   1.148   2.766  19.176  3.3338 -1.3848  0.8846
 4568TIP3    H237900   1.227   2.894  19.190  1.1524 -0.2583  4.1719
 4569TIP3   OH237901   4.194   6.333  17.636 -0.4714 -0.5388 -0.0987
 4569TIP3    H137902   4.253   6.402  17.606  0.4234 -1.6747 -1.0754
 4569TIP3    H237903   4.244   6.286  17.702 -0.9401 -0.4700  0.3102
 4570TIP3   OH237904   7.450   6.237  18.318 -0.2015 -0.2534  0.2752
 4570TIP3    H137905   7.386   6.275  18.378 -0.0596 -0.7328  0.7328
 4570TIP3    H237906   7.399   6.184  18.258 -0.2432 -0.6395  0.6432
 4571TIP3   OH237907   2.274   6.951  16.748 -0.0085  0.1240 -0.4882
 4571TIP3    H137908   2.343   6.886  16.732 -0.9037 -0.7045 -1.0401
 4571TIP3    H237909   2.194   6.900  16.757 -0.5905  1.0921 -0.0251
 4572TIP3   OH237910   2.258   1.733  18.563 -0.5275 -0.1388 -0.2874
 4572TIP3    H137911   2.280   1.643  18.585 -0.8050  0.3657  2.4427
 4572TIP3    H237912   2.342   1.776  18.549 -0.1303 -0.0808  1.9165
 4573TIP3   OH237913   1.691   2.755  18.758 -0.1808  0.1627  0.0360
 4573TIP3    H137914   1.680   2.740  18.665 -0.6531 -0.1484  0.1362
 4573TIP3    H237915   1.663   2.673  18.799 -0.3581  0.4360  0.4671
 4574TIP3   OH237916   1.580   3.185  18.026 -0.2458  0.6455 -0.1971
 4574TIP3    H137917   1.577   3.189  18.122 -2.3973 -3.2574  0.1038
 4574TIP3    H237918   1.491   3.206  17.999 -0.2595 -0.5169 -1.1228
 4575TIP3   OH237919   7.664   5.480  18.058 -0.3397 -0.0236  0.1046
 4575TIP3    H137920   7.645   5.398  18.103 -0.3121  1.5153  3.1859
 4575TIP3    H237921   7.581   5.504  18.017 -0.9247 -0.6179  0.8984
 4576TIP3   OH237922   2.001   1.727  18.491 -0.1235 -0.3898  0.0175
 4576TIP3    H137923   2.097   1.733  18.494 -0.0727 -1.4737  2.2691
 4576TIP3    H237924   1.982   1.636  18.511 -1.6594  0.0395  0.6501
 4577TIP3   OH237925   6.714   2.466  18.163  0.3996  0.1727 -1.1974
 4577TIP3    H137926   6.624   2.483  18.190  0.9126 -0.1683  0.9680
 4577TIP3    H237927   6.706   2.409  18.086 -1.2818 -1.6294  0.1816
 4578TIP3   OH237928   3.788   1.540  19.366  0.0472 -0.3569 -0.3350
 4578TIP3    H137929   3.790   1.463  19.310 -0.9923 -0.6174 -0.0248
 4578TIP3    H237930   3.784   1.614  19.305  0.3266 -0.5744 -0.6185
 4579TIP3   OH237931   4.551   6.246  18.104 -0.3507 -0.0986 -0.1200
 4579TIP3    H137932   4.459   6.262  18.127 -0.4476 -2.0285  1.0266
 4579TIP3    H237933   4.558   6.151  18.097  1.7768 -0.0674  0.7980
 4580TIP3   OH237934   7.470   0.472  17.598 -0.2315 -0.3323  0.6324
 4580TIP3    H137935   7.424   0.419  17.534 -2.2591 -1.7382  3.0604
 4580TIP3    H237936   7.519   0.408  17.651  1.9241  0.8349  0.1768
 4581TIP3   OH237937   1.395   2.006  19.116 -0.0474  0.1896 -0.2172
 4581TIP3    H137938   1.479   1.972  19.086 -0.6983  1.2780 -3.7078
 4581TIP3    H237939   1.417   2.059  19.193  2.0738 -1.3783  0.3425
 4582TIP3   OH237940   4.582   6.301  17.737 -0.8711  0.2935 -0.0629
 4582TIP3    H137941   4.645   6.246  17.784  0.3189  1.1674 -0.6072
 4582TIP3    H237942   4.635   6.352  17.676 -2.0167  1.6175  0.0074
 4583TIP3   OH237943   5.375   3.899  17.908 -0.5365 -0.1623  0.0495
 4583TIP3    H137944   5.441   3.831  17.899 -2.2436 -1.8198 -0.6171
 4583TIP3    H237945   5.413   3.975  17.865  0.6693 -1.2660 -0.9296
 4584TIP3   OH237946   0.102   4.568  17.770 -0.2388 -0.2322  0.3078
 4584TIP3    H137947   0.014   4.606  17.781 -1.3975 -2.7501  0.3187
 4584TIP3    H237948   0.127   4.593  17.681 -1.7007 -0.8603 -0.3122
 4585TIP3   OH237949   2.757   0.661  17.853 -0.3014  0.1635 -0.4075
 4585TIP3    H137950   2.784   0.588  17.909  0.6853 -0.6719 -1.8882
 4585TIP3    H237951   2.666   0.679  17.878 -0.4903 -1.4288  0.1529
 4586TIP3   OH237952   7.658   6.431  19.595  0.1628  0.3411  0.4129
 4586TIP3    H137953   7.651   6.388  19.680  0.3816 -0.2837  0.1274
 4586TIP3    H237954   7.751   6.425  19.573 -0.1289 -0.9229 -0.5820
 4587TIP3   OH237955   1.348   6.592  18.134  0.4737 -0.0695 -0.4273
 4587TIP3    H137956   1.415   6.645  18.177  0.5732 -1.3366  1.0762
 4587TIP3    H237957   1.268   6.645  18.139  0.5164 -0.0976  1.2644
 4588TIP3   OH237958   0.964   2.424  18.756 -0.2962  0.2089 -0.1737
 4588TIP3    H137959   0.876   2.460  18.768 -0.9311  0.0770 -3.6179
 4588TIP3    H237960   1.009   2.487  18.700  2.1772  0.6345  2.0505
 4589TIP3   OH237961   4.547   6.804  17.093  0.1028 -0.4314  0.1176
 4589TIP3    H137962   4.466   6.776  17.050 -0.0242  0.5667 -0.3200
 4589TIP3    H237963   4.615   6.751  17.052 -0.1922 -0.4893 -0.3065
 4590TIP3   OH237964   2.572   3.937  18.910 -0.4570 -0.4397 -0.8813
 4590TIP3    H137965   2.574   3.981  18.824 -1.5414 -0.2830 -0.8498
 4590TIP3    H237966   2.546   3.847  18.890  0.1966 -0.6550 -0.7910
 4591TIP3   OH237967   6.995   3.763  18.225  0.1772 -0.1616  0.5739
 4591TIP3    H137968   6.973   3.737  18.315 -0.0630 -1.1690  0.2375
 4591TIP3    H237969   7.088   3.785  18.229  0.0103  0.4803  1.2115
 4592TIP3   OH237970   0.578   0.091  16.508 -0.3307  0.0485 -0.3755
 4592TIP3    H137971   0.514   0.022  16.526 -1.5991  1.3892  0.3958
 4592TIP3    H237972   0.530   0.158  16.460  0.9583  0.2991 -1.3724
 4593TIP3   OH237973   1.171   0.707  17.484  0.4130 -0.4517  0.2774
 4593TIP3    H137974   1.147   0.769  17.416 -0.5034 -1.4567 -0.3430
 4593TIP3    H237975   1.087   0.680  17.522  0.8374 -0.8762  0.9270
 4594TIP3   OH237976   4.151   3.166  16.933 -0.2122 -0.0484  0.7968
 4594TIP3    H137977   4.244   3.179  16.916  0.4019 -2.6783  1.5867
 4594TIP3    H237978   4.116   3.133  16.850 -0.5158  1.1705  0.4284
 4595TIP3   OH237979   1.523   2.411  17.932 -0.2432  0.0243  0.1854
 4595TIP3    H137980   1.521   2.463  18.013 -0.1525  0.7482 -0.2701
 4595TIP3    H237981   1.574   2.333  17.955 -2.2506 -0.9984  1.5380
 4596TIP3   OH237982   1.543   5.783  18.735 -0.7212  0.0082 -0.1079
 4596TIP3    H137983   1.477   5.837  18.691 -0.0203 -0.4935 -1.8863
 4596TIP3    H237984   1.518   5.693  18.715  1.3765 -0.1911 -2.3741
 4597TIP3   OH237985   4.803   3.228  19.039 -0.0210  0.4420  0.3868
 4597TIP3    H137986   4.889   3.268  19.029 -0.1236  0.2527 -1.5808
 4597TIP3    H237987   4.820   3.134  19.032 -0.2965  0.3572  0.8150
 4598TIP3   OH237988   4.380   4.368  18.754  0.4363 -0.9413 -0.7120
 4598TIP3    H137989   4.307   4.328  18.802  0.0137  2.7468  2.2262
 4598TIP3    H237990   4.338   4.416  18.683  0.1681 -0.4827 -0.2562
 4599TIP3   OH237991   5.919   7.038  17.770 -0.2517  0.2104  0.2852
 4599TIP3    H137992   5.897   7.055  17.678 -0.5694  1.2210  0.5418
 4599TIP3    H237993   5.841   7.063  17.819 -0.1388 -0.4665  0.8284
 4600TIP3   OH237994   1.076   2.262  18.064 -0.6406  0.2612  0.6560
 4600TIP3    H137995   1.130   2.339  18.081  0.2526  0.2077 -1.6082
 4600TIP3    H237996   0.992   2.281  18.106 -0.5059  2.5690  0.0147
 4601TIP3   OH237997   0.852   5.138  18.094  0.0722 -0.2867  0.0533
 4601TIP3    H137998   0.766   5.129  18.054 -0.3076  0.5046  0.6487
 4601TIP3    H237999   0.844   5.216  18.150  1.9229  1.4106 -1.8615
 4602TIP3   OH238000   1.738   1.881  18.581 -0.3227  0.2147  0.0804
 4602TIP3    H138001   1.646   1.893  18.559 -0.3092 -0.2802 -0.2778
 4602TIP3    H238002   1.764   1.802  18.532 -0.0980 -0.5076  1.3271
 4603TIP3   OH238003   0.525   5.985  18.379  0.1195  0.4623 -0.1287
 4603TIP3    H138004   0.499   5.908  18.430  0.4640  0.0669 -0.5432
 4603TIP3    H238005   0.605   5.959  18.334  1.3536  1.7217  1.2441
 4604TIP3   OH238006   4.747   7.444  17.641 -0.1433 -0.1757  0.3119
 4604TIP3    H138007   4.738   7.404  17.555  0.1555 -0.6676  0.5057
 4604TIP3    H238008   4.682   7.514  17.642  0.3919  0.3572 -0.6122
 4605TIP3   OH238009   0.138   1.153  17.292  0.2808 -0.0975 -0.4968
 4605TIP3    H138010   0.122   1.242  17.259 -2.5122  0.2983  1.4876
 4605TIP3    H238011   0.233   1.145  17.294  0.6190  1.8854 -3.0642
 4606TIP3   OH238012   5.129   4.855  18.046  0.0401 -0.5618  0.5883
 4606TIP3    H138013   5.198   4.872  18.110 -0.0639 -1.0850  0.8525
 4606TIP3    H238014   5.085   4.939  18.035 -0.4325 -0.6299  1.8044
 4607TIP3   OH238015   2.884   2.666  19.320  0.3637 -0.4282  0.1442
 4607TIP3    H138016   2.870   2.754  19.353 -0.8370 -0.0485 -1.2679
 4607TIP3    H238017   2.862   2.609  19.393  0.1936  0.4224  0.7681
 4608TIP3   OH238018   5.732   1.663  19.609 -0.1488  0.0613  0.1150
 4608TIP3    H138019   5.643   1.692  19.632 -0.7570 -0.7865 -1.0414
 4608TIP3    H238020   5.718   1.589  19.551  1.3186  0.5750 -0.9502
 4609TIP3   OH238021   4.352   2.122  18.762  0.0861 -0.1141  0.0818
 4609TIP3    H138022   4.335   2.133  18.856 -0.8801 -2.3032  0.2423
 4609TIP3    H238023   4.354   2.211  18.727 -0.6057  0.7158  1.9999
 4610TIP3   OH238024   5.923   5.763  17.476 -0.2772 -0.1361 -0.4802
 4610TIP3    H138025   5.862   5.813  17.422  0.0858 -0.6679 -1.4214
 4610TIP3    H238026   5.884   5.762  17.563 -1.7070 -0.6218 -1.0957
 4611TIP3   OH238027   1.437   1.256  18.354  0.1340  0.5027  0.1491
 4611TIP3    H138028   1.456   1.345  18.384  0.6445  0.9052 -1.2537
 4611TIP3    H238029   1.468   1.255  18.263 -2.1296 -0.3225 -0.6867
 4612TIP3   OH238030   0.453   1.148  18.843 -0.0126  0.0164  0.3760
 4612TIP3    H138031   0.359   1.144  18.826 -0.1196  0.9937  0.6687
 4612TIP3    H238032   0.463   1.216  18.909  1.1356  2.0083 -1.6974
 4613TIP3   OH238033   7.405   3.806  17.107  0.2529  0.1461 -0.6747
 4613TIP3    H138034   7.485   3.853  17.130  0.7900 -1.2845  0.5406
 4613TIP3    H238035   7.343   3.829  17.176  1.2145 -2.5322  1.2485
 4614TIP3   OH238036   2.121   0.469  18.093 -0.0574  0.2536 -0.4786
 4614TIP3    H138037   2.136   0.499  18.004 -2.0835  1.0146 -0.6106
 4614TIP3    H238038   2.120   0.548  18.146  0.9691 -0.1766  0.2243
 4615TIP3   OH238039   1.528   3.722  18.319 -0.2088  0.2688  0.2711
 4615TIP3    H138040   1.496   3.754  18.404 -0.5372  0.4873  0.0670
 4615TIP3    H238041   1.468   3.759  18.255 -1.0298 -1.2879  0.0748
 4616TIP3   OH238042   1.624   5.788  18.350 -0.1703 -0.6015  0.1441
 4616TIP3    H138043   1.646   5.698  18.375  0.2576 -0.0969  1.7265
 4616TIP3    H238044   1.543   5.807  18.397  0.0470  0.0206  0.2742
 4617TIP3   OH238045   1.675   2.203  16.725 -0.2797  0.1856 -0.2998
 4617TIP3    H138046   1.735   2.130  16.742  0.2977  1.1033  1.7727
 4617TIP3    H238047   1.674   2.210  16.629  2.8783  0.0980 -0.4515
 4618TIP3   OH238048   4.333   3.816  19.036  0.5584  0.2004 -0.0735
 4618TIP3    H138049   4.379   3.887  19.079  3.6732 -2.9537  2.4093
 4618TIP3    H238050   4.291   3.767  19.107 -1.0138 -0.8000 -1.5950
 4619TIP3   OH238051   6.725   2.776  18.222  0.4882  0.2597  0.1446
 4619TIP3    H138052   6.662   2.714  18.184  0.5242  0.5904 -0.4533
 4619TIP3    H238053   6.760   2.824  18.147 -0.5050  1.9245  0.7042
 4620TIP3   OH238054   4.614   1.037  18.397 -0.2030  0.2275  0.2036
 4620TIP3    H138055   4.535   0.992  18.366 -1.1504 -0.1526  2.9207
 4620TIP3    H238056   4.664   0.970  18.443  1.1824  0.7403 -0.5101
 4621TIP3   OH238057   1.639   2.108  18.258 -0.1228 -0.1655  0.1691
 4621TIP3    H138058   1.647   2.116  18.353  1.5565 -2.1131  0.2846
 4621TIP3    H238059   1.545   2.100  18.241 -0.3731 -0.9487  1.8025
 4622TIP3   OH238060   7.584   1.789  18.943  0.3054  0.2998  0.3326
 4622TIP3    H138061   7.591   1.805  18.849 -0.5839  0.6009  0.3102
 4622TIP3    H238062   7.649   1.721  18.960  0.0528 -0.2117 -0.6177
 4623TIP3   OH238063   1.426   4.571  18.393 -0.2415 -0.0301  0.5428
 4623TIP3    H138064   1.480   4.516  18.450  0.1435 -1.4245 -1.0873
 4623TIP3    H238065   1.457   4.551  18.305 -1.4070  1.4074 -0.2217
 4624TIP3   OH238066   1.774   4.436  18.921  0.6614  0.0072  0.6114
 4624TIP3    H138067   1.845   4.475  18.972  0.8519  0.6217 -0.0941
 4624TIP3    H238068   1.719   4.511  18.896  0.3321 -0.3357  0.2924
 4625TIP3   OH238069   2.842   3.654  17.801 -0.0465 -0.2665  0.1481
 4625TIP3    H138070   2.836   3.577  17.744 -0.4952  0.1265 -0.3470
 4625TIP3    H238071   2.817   3.622  17.888 -0.1065 -0.7026 -0.0285
 4626TIP3   OH238072   1.869   2.286  17.543 -0.6493 -0.5200  0.1968
 4626TIP3    H138073   1.782   2.318  17.520 -1.2340 -0.9545  1.6292
 4626TIP3    H238074   1.923   2.364  17.551 -1.7097  0.0852  2.3116
 4627TIP3   OH238075   4.703   1.726  19.432  0.3136  0.1890 -0.1935
 4627TIP3    H138076   4.629   1.787  19.432 -1.8249 -2.0920 -3.0170
 4627TIP3    H238077   4.683   1.663  19.501  0.0105  0.0124 -0.4395
 4628TIP3   OH238078   1.273   4.755  17.891 -0.1949  0.6112  0.5594
 4628TIP3    H138079   1.292   4.666  17.860  0.7242 -0.3028  3.4077
 4628TIP3    H238080   1.338   4.810  17.848 -0.1448 -0.2598 -0.5074
 4629TIP3   OH238081   3.481   2.429  17.526  0.1152 -0.4455 -0.1496
 4629TIP3    H138082   3.433   2.346  17.518 -0.1499 -0.3069 -0.0196
 4629TIP3    H238083   3.467   2.473  17.442 -1.0352  0.1466  0.3335
 4630TIP3   OH238084   5.719   7.171  17.885 -0.0579 -0.4504 -0.3589
 4630TIP3    H138085   5.659   7.156  17.958  2.7586  0.8376  2.4985
 4630TIP3    H238086   5.713   7.265  17.868  0.5504 -0.4317 -0.5237
 4631TIP3   OH238087   6.189   0.194  17.475  0.2764 -0.1085  0.6850
 4631TIP3    H138088   6.128   0.242  17.531  1.2690 -0.1914  1.8800
 4631TIP3    H238089   6.138   0.119  17.444 -0.8259  0.8822  0.0088
 4632TIP3   OH238090   1.935   2.242  18.823 -0.0580  0.4957 -1.4819
 4632TIP3    H138091   1.852   2.218  18.865  1.8416 -1.5515  1.4753
 4632TIP3    H238092   1.933   2.338  18.820 -2.4700  0.5107 -1.5179
 4633TIP3   OH238093   2.344   5.016  17.912  0.3036  0.2004 -0.5645
 4633TIP3    H138094   2.353   4.952  17.982 -0.4535  1.6054  0.8701
 4633TIP3    H238095   2.292   4.971  17.845  2.2333 -1.6534 -0.9395
 4634TIP3   OH238096   5.118   7.661  18.357 -0.0662  0.1523  0.1232
 4634TIP3    H138097   5.139   7.618  18.439 -4.6997 -1.8351  0.5948
 4634TIP3    H238098   5.129   7.754  18.375  2.5476 -0.3702  1.6972
 4635TIP3   OH238099   0.351   0.711  17.985  0.4169  0.3451 -0.6494
 4635TIP3    H138100   0.378   0.634  17.935 -2.7835 -0.9539 -0.6621
 4635TIP3    H238101   0.333   0.778  17.919  0.1286  0.0125 -0.9107
 4636TIP3   OH238102   5.480   6.471  17.040 -0.6039  0.3657  0.1495
 4636TIP3    H138103   5.439   6.558  17.044  1.6281  1.5089 -0.3180
 4636TIP3    H238104   5.458   6.438  16.954 -0.6308  0.9175 -0.0629
 4637TIP3   OH238105   3.541   0.727  18.829  0.0875 -0.4821 -0.2646
 4637TIP3    H138106   3.633   0.706  18.842 -0.4919 -2.9548  0.3595
 4637TIP3    H238107   3.528   0.723  18.735  0.6897  0.3023 -0.3883
 4638TIP3   OH238108   2.821   3.648  17.396  0.1373  0.1958  0.4788
 4638TIP3    H138109   2.871   3.610  17.468 -0.7991 -3.1069 -0.4476
 4638TIP3    H238110   2.852   3.601  17.318 -0.0806  2.4590 -1.0644
 4639TIP3   OH238111   5.844   5.479  18.198  0.3938  0.3843 -0.4176
 4639TIP3    H138112   5.875   5.420  18.130  0.3909 -1.6681  1.2786
 4639TIP3    H238113   5.910   5.549  18.200  1.9223 -0.9878 -0.6492
 4640TIP3   OH238114   6.490   3.712  16.590 -0.1279 -0.0303  0.2438
 4640TIP3    H138115   6.439   3.780  16.547 -1.9124 -0.7308  1.1723
 4640TIP3    H238116   6.578   3.749  16.597 -0.7470  1.6490 -0.4160
 4641TIP3   OH238117   2.493   7.512  18.807 -0.5321 -0.2518  0.1151
 4641TIP3    H138118   2.561   7.494  18.742 -0.5137 -2.0913  0.6005
 4641TIP3    H238119   2.504   7.605  18.828  0.1134  0.1334 -1.7470
 4642TIP3   OH238120   2.469   0.692  17.893  0.1775 -0.1214 -0.0282
 4642TIP3    H138121   2.396   0.732  17.844 -0.6440 -1.7034 -0.1571
 4642TIP3    H238122   2.440   0.696  17.984  0.9742  1.3098  0.1959
 4643TIP3   OH238123   1.087   0.596  19.222  0.8350  0.0489  0.3794
 4643TIP3    H138124   1.003   0.630  19.193  0.2735 -0.3625  1.4783
 4643TIP3    H238125   1.148   0.669  19.214  0.5344  0.1788 -1.0162
 4644TIP3   OH238126   0.675   6.399  17.142  0.2647 -0.0700 -0.7310
 4644TIP3    H138127   0.762   6.363  17.124  0.9215  0.9272  0.3071
 4644TIP3    H238128   0.647   6.437  17.059  1.5155  0.9851 -0.7000
 4645TIP3   OH238129   2.751   2.641  17.812 -0.2786  0.1953 -0.4879
 4645TIP3    H138130   2.692   2.576  17.850 -0.9484  1.5296  0.8697
 4645TIP3    H238131   2.826   2.643  17.872 -0.5068  1.0272 -0.2127
 4646TIP3   OH238132   0.647   0.306  18.170 -0.4255  0.5569 -0.1540
 4646TIP3    H138133   0.692   0.367  18.112 -0.5627  2.5351  1.7193
 4646TIP3    H238134   0.659   0.342  18.258 -4.1146  0.2418  0.6418
 4647TIP3   OH238135   6.621   5.019  17.035  1.3892  0.2629  0.2683
 4647TIP3    H138136   6.572   4.996  16.956  1.8861 -0.5077  0.1666
 4647TIP3    H238137   6.632   5.113  17.030 -0.9553  0.6370  0.8108
 4648TIP3   OH238138   2.218   2.029  18.859  0.4507  0.6409  0.1551
 4648TIP3    H138139   2.222   2.046  18.953 -1.0590 -0.1002  0.3843
 4648TIP3    H238140   2.160   1.954  18.851 -1.4145  2.1725 -1.5262
 4649TIP3   OH238141   2.710   4.307  18.782 -0.3910 -0.5104  0.0806
 4649TIP3    H138142   2.742   4.397  18.783  0.6334 -0.8535 -0.5221
 4649TIP3    H238143   2.616   4.315  18.766  0.0125  0.3874 -2.1225
 4650TIP3   OH238144   6.144   2.110  18.270 -0.7560 -0.3100  1.0573
 4650TIP3    H138145   6.065   2.148  18.308 -0.2216  3.0637 -0.8116
 4650TIP3    H238146   6.120   2.088  18.180  0.2842  0.4352  0.5748
 4651TIP3   OH238147   5.984   5.510  17.813  0.0782 -0.2021 -0.1867
 4651TIP3    H138148   5.988   5.452  17.736  1.7665  1.2113 -1.2488
 4651TIP3    H238149   6.064   5.563  17.806 -0.6317  1.1767  1.5987
 4652TIP3   OH238150   4.834   5.913  18.372 -0.5099  0.1122  0.8159
 4652TIP3    H138151   4.918   5.933  18.414  0.7667 -0.7721 -1.1820
 4652TIP3    H238152   4.814   5.991  18.320  0.4666 -0.6346 -0.7656
 4653TIP3   OH238153   0.072   1.646  18.556 -0.5316  0.1632 -0.0009
 4653TIP3    H138154   0.132   1.719  18.570 -1.7715  1.2243 -0.0760
 4653TIP3    H238155   0.053   1.613  18.644  0.6884 -0.6415 -0.0186
 4654TIP3   OH238156   7.582   7.508  17.927  0.2013 -0.2744 -0.2468
 4654TIP3    H138157   7.584   7.455  17.847  1.1407 -0.2642 -0.2424
 4654TIP3    H238158   7.497   7.551  17.924 -0.4361 -1.4898 -0.4363
 4655TIP3   OH238159   7.504   0.612  16.921 -0.0331  0.5242 -0.2092
 4655TIP3    H138160   7.534   0.623  16.831 -0.8868 -0.9676 -0.7218
 4655TIP3    H238161   7.541   0.528  16.949  0.6889  1.2314  1.0508
 4656TIP3   OH238162   6.791   6.549  18.152  0.0143  0.0514 -0.3363
 4656TIP3    H138163   6.883   6.553  18.180 -0.0283  4.5086 -0.0586
 4656TIP3    H238164   6.742   6.534  18.233  0.3508 -3.1868 -0.5892
 4657TIP3   OH238165   4.240   4.142  18.868 -0.3282  0.4130  0.2583
 4657TIP3    H138166   4.151   4.109  18.853  0.2023 -0.5046 -1.0582
 4657TIP3    H238167   4.296   4.085  18.815  0.8395  2.2529 -0.5885
 4658TIP3   OH238168   3.546   0.571  17.200  0.6583  0.0121 -0.4016
 4658TIP3    H138169   3.521   0.494  17.150  1.7730 -0.5143 -0.1714
 4658TIP3    H238170   3.463   0.611  17.226  0.0508 -1.5968  0.2339
 4659TIP3   OH238171   1.090   0.397  18.097  0.3596 -0.0074 -0.1246
 4659TIP3    H138172   1.088   0.465  18.164  0.4008  1.3039 -1.3968
 4659TIP3    H238173   1.042   0.435  18.024  1.1234 -1.0071 -1.1775
 4660TIP3   OH238174   7.254   1.443  16.697 -0.1833  0.7012  0.5562
 4660TIP3    H138175   7.272   1.527  16.739 -0.3151  2.2523 -2.2203
 4660TIP3    H238176   7.339   1.417  16.661 -0.0497 -0.6320  1.7591
 4661TIP3   OH238177   7.680   6.847  17.021 -0.0299  0.0652  0.3720
 4661TIP3    H138178   7.594   6.852  17.064 -0.1378  0.6390  0.0969
 4661TIP3    H238179   7.660   6.848  16.928  0.2599 -0.1702  0.3076
 4662TIP3   OH238180   5.146   0.087  18.785  0.0931  0.3226 -0.1941
 4662TIP3    H138181   5.069   0.094  18.729  0.1918 -0.6074 -0.4652
 4662TIP3    H238182   5.204   0.158  18.756 -0.6625  1.0571  0.0432
 4663TIP3   OH238183   7.146   6.295  18.395 -0.1749  0.1621 -0.5495
 4663TIP3    H138184   7.188   6.267  18.313  1.1897  0.8453 -0.1308
 4663TIP3    H238185   7.096   6.372  18.370  2.4857  2.1205 -0.3442
 4664TIP3   OH238186   2.914   7.148  18.006 -0.0984  0.2872  0.5022
 4664TIP3    H138187   2.852   7.166  17.935 -0.9205  1.5906  1.4892
 4664TIP3    H238188   2.994   7.118  17.961 -0.0292  2.5923 -1.1210
 4665TIP3   OH238189   7.504   0.504  19.202 -0.0822 -0.5573  0.7790
 4665TIP3    H138190   7.462   0.586  19.175  0.6249 -0.7528 -1.1036
 4665TIP3    H238191   7.431   0.441  19.207 -0.4866 -0.0664  1.2066
 4666TIP3   OH238192   3.383   6.402  17.106  0.1972 -0.2313  0.2226
 4666TIP3    H138193   3.298   6.421  17.066 -0.3327 -0.1179  1.3423
 4666TIP3    H238194   3.386   6.307  17.112 -0.3934 -0.2029  1.2478
 4667TIP3   OH238195   0.357   2.984  16.687  0.3182 -0.2087 -0.2591
 4667TIP3    H138196   0.334   3.077  16.681 -0.0747 -0.2768  0.1788
 4667TIP3    H238197   0.431   2.974  16.627 -0.0318  0.2571 -0.7697
 4668TIP3   OH238198   2.810   1.382  17.586  0.0471 -0.2126  0.2510
 4668TIP3    H138199   2.858   1.378  17.503 -0.4528 -0.2307 -0.0372
 4668TIP3    H238200   2.875   1.413  17.649  0.8158 -1.5226  0.1392
 4669TIP3   OH238201   6.484   1.273  19.054  0.3062  0.3403  0.0473
 4669TIP3    H138202   6.510   1.362  19.076 -1.2358  0.7422  0.3742
 4669TIP3    H238203   6.408   1.256  19.111  0.6761 -1.2428  0.1212
 4670TIP3   OH238204   1.038   5.201  18.519  0.9071 -0.3846  0.2301
 4670TIP3    H138205   1.054   5.139  18.590  0.1988 -0.9104 -0.0583
 4670TIP3    H238206   0.945   5.223  18.527  0.8184 -0.4565 -0.5291
 4671TIP3   OH238207   6.734   3.000  18.421 -0.9516 -0.5312  0.4311
 4671TIP3    H138208   6.692   2.951  18.351 -1.4078  0.1389  0.2270
 4671TIP3    H238209   6.695   2.967  18.502 -0.9832 -0.7685  0.3176
 4672TIP3   OH238210   5.446   5.683  19.144 -0.1482 -0.1655 -0.7415
 4672TIP3    H138211   5.356   5.713  19.134 -0.2534 -0.4077 -0.5162
 4672TIP3    H238212   5.499   5.762  19.130 -0.3928 -0.0258 -0.8852
 4673TIP3   OH238213   2.984   1.997  17.889  0.5209  0.0833 -0.3304
 4673TIP3    H138214   3.034   2.012  17.970 -0.6385  0.1996  0.3806
 4673TIP3    H238215   2.922   2.070  17.886  1.8054  1.1865 -2.3504
 4674TIP3   OH238216   3.469   4.544  17.170  0.3655 -0.3842 -0.0587
 4674TIP3    H138217   3.556   4.573  17.144 -0.1395 -0.7255 -2.3879
 4674TIP3    H238218   3.410   4.590  17.110 -1.2433  1.0102  2.4197
 4675TIP3   OH238219   4.400   4.911  19.105 -0.4685 -0.0531  0.6507
 4675TIP3    H138220   4.494   4.904  19.091 -0.4345  0.0155  0.8474
 4675TIP3    H238221   4.374   4.824  19.135 -0.2323  0.3172  1.9784
 4676TIP3   OH238222   2.930   0.411  18.544  0.6523 -0.1581 -0.5616
 4676TIP3    H138223   2.908   0.421  18.452 -1.5473  1.7398  0.0733
 4676TIP3    H238224   2.999   0.476  18.559  0.4611  0.0878 -0.7285
 4677TIP3   OH238225   4.816   0.428  16.947  0.3079 -0.3314 -0.1595
 4677TIP3    H138226   4.799   0.503  16.890 -1.0011 -0.9605 -0.6293
 4677TIP3    H238227   4.734   0.414  16.993  1.2245 -0.0965  1.6050
 4678TIP3   OH238228   4.352   6.242  17.863 -0.2067 -0.0913 -0.3996
 4678TIP3    H138229   4.424   6.272  17.807 -0.8265  0.4313 -0.9210
 4678TIP3    H238230   4.380   6.266  17.952  0.7697 -0.9102 -0.4513
 4679TIP3   OH238231   7.191   2.550  17.783  0.5533  0.7603  0.3008
 4679TIP3    H138232   7.236   2.634  17.785  0.2728  0.9512  2.8931
 4679TIP3    H238233   7.243   2.494  17.841 -0.6205 -0.0608  0.6028
 4680TIP3   OH238234   2.775   7.670  18.441 -0.6286 -0.4252  0.0749
 4680TIP3    H138235   2.740   7.595  18.489  0.2971 -0.5131  0.6325
 4680TIP3    H238236   2.819   7.632  18.365 -2.9402 -0.2339 -1.4644
 4681TIP3   OH238237   6.904   1.569  17.458 -0.2306  0.7883  0.4781
 4681TIP3    H138238   6.896   1.642  17.397 -0.2441 -0.0313 -0.5458
 4681TIP3    H238239   6.842   1.587  17.528 -0.4874  1.5718  0.0511
 4682TIP3   OH238240   4.533   5.920  18.407  1.1666 -0.2684 -0.0994
 4682TIP3    H138241   4.531   5.991  18.343  0.3220  0.7178  0.9678
 4682TIP3    H238242   4.595   5.950  18.474  0.9434 -0.6233  0.2686
 4683TIP3   OH238243   1.604   2.701  17.591 -0.3551  0.1060 -0.2024
 4683TIP3    H138244   1.553   2.765  17.641  1.7143  0.0637  2.1547
 4683TIP3    H238245   1.640   2.642  17.658  2.3205 -0.1674 -1.7493
 4684TIP3   OH238246   0.211   0.871  18.713  0.0828  0.1441  0.3558
 4684TIP3    H138247   0.195   0.848  18.622 -0.5853  1.2684  0.1670
 4684TIP3    H238248   0.190   0.964  18.718 -1.2052 -0.1780  1.9412
 4685TIP3   OH238249   4.964   4.202  17.818  0.3721 -0.5037 -0.4036
 4685TIP3    H138250   4.879   4.194  17.863  0.5306  0.2842  0.0534
 4685TIP3    H238251   4.946   4.174  17.728 -0.5564  0.3591 -0.5041
 4686TIP3   OH238252   0.589   1.683  16.668  0.2354  0.5196  0.1526
 4686TIP3    H138253   0.577   1.609  16.728  1.8052 -0.5078 -0.7346
 4686TIP3    H238254   0.535   1.753  16.705  0.7916 -0.2090  2.5332
 4687TIP3   OH238255   5.489   3.176  17.199 -0.1975  0.4254  0.2504
 4687TIP3    H138256   5.515   3.268  17.188  3.1397 -0.3546  0.5072
 4687TIP3    H238257   5.568   3.126  17.178 -2.1478 -2.4872 -0.7332
 4688TIP3   OH238258   6.746   4.221  18.852 -0.5681 -0.2604 -0.2651
 4688TIP3    H138259   6.763   4.234  18.759 -0.7958 -1.5506 -0.4931
 4688TIP3    H238260   6.650   4.217  18.859 -0.5197 -1.9778 -0.2508
 4689TIP3   OH238261   5.931   0.524  16.892 -0.4673 -0.3703 -0.3611
 4689TIP3    H138262   5.874   0.447  16.887 -1.5441  0.4818 -2.2967
 4689TIP3    H238263   5.870   0.597  16.897  0.5051  0.4666 -0.5643
 4690TIP3   OH238264   7.154   5.147  19.181 -0.0036 -0.3696 -0.2590
 4690TIP3    H138265   7.176   5.138  19.274  0.7731  0.6777 -0.3213
 4690TIP3    H238266   7.098   5.225  19.177 -1.5661 -1.4762 -0.4483
 4691TIP3   OH238267   0.792   1.495  19.235 -0.9904  0.2901  0.4626
 4691TIP3    H138268   0.849   1.562  19.198 -2.2946  0.3973 -1.5150
 4691TIP3    H238269   0.834   1.412  19.213  0.5376  0.3847  2.7608
 4692TIP3   OH238270   1.040   6.577  17.517  0.1572  0.2523  0.2880
 4692TIP3    H138271   1.096   6.564  17.441 -0.8668 -1.8483 -0.1838
 4692TIP3    H238272   1.010   6.667  17.510 -0.5200 -0.1060 -2.2677
 4693TIP3   OH238273   3.837   5.167  19.333 -0.0153 -0.0740 -0.2092
 4693TIP3    H138274   3.927   5.162  19.366 -0.2839 -0.0965  0.5254
 4693TIP3    H238275   3.782   5.153  19.410 -0.6553  0.3506 -0.5818
 4694TIP3   OH238276   3.156   4.669  17.674  0.0489  0.5275 -0.3118
 4694TIP3    H138277   3.214   4.742  17.693 -0.8910  0.4098  3.9928
 4694TIP3    H238278   3.216   4.596  17.654  1.2213  1.3036  0.2522
 4695TIP3   OH238279   5.083   2.074  17.109  0.2676 -0.4845  0.5350
 4695TIP3    H138280   5.109   1.989  17.074  1.5914 -0.2549  0.8916
 4695TIP3    H238281   5.081   2.062  17.203  3.1214  0.4765  0.8373
 4696TIP3   OH238282   0.517   7.461  18.425 -0.2203 -0.6935 -0.5049
 4696TIP3    H138283   0.473   7.545  18.411 -2.6125 -1.8200 -0.3465
 4696TIP3    H238284   0.481   7.404  18.356  0.2077 -1.9667  0.3024
 4697TIP3   OH238285   5.274   0.121  19.032 -0.3730 -0.4397  0.5142
 4697TIP3    H138286   5.290   0.201  18.982  1.0104 -1.0030 -0.0087
 4697TIP3    H238287   5.201   0.078  18.987 -0.6646  0.1856  0.3827
 4698TIP3   OH238288   4.828   0.910  17.909 -0.6651  0.2688 -0.0755
 4698TIP3    H138289   4.733   0.908  17.894 -0.2902  0.2383 -3.1443
 4698TIP3    H238290   4.842   0.988  17.961 -2.4226 -0.1281  1.0839
 4699TIP3   OH238291   4.525   2.187  16.806 -0.3289 -0.9508 -0.4870
 4699TIP3    H138292   4.457   2.147  16.861 -0.4757 -2.3777 -1.6449
 4699TIP3    H238293   4.481   2.261  16.765  0.1128  0.9212  2.1527
 4700TIP3   OH238294   0.762   2.268  17.190 -0.0687 -0.3185 -1.0244
 4700TIP3    H138295   0.792   2.343  17.242 -1.4285 -0.0518 -0.6027
 4700TIP3    H238296   0.791   2.288  17.101  0.0259  0.4624 -0.8272
 4701TIP3   OH238297   5.477   3.037  17.732  0.4408 -0.4840 -0.4181
 4701TIP3    H138298   5.542   3.006  17.670 -0.0970 -1.2211 -0.6227
 4701TIP3    H238299   5.503   3.127  17.752  1.9070 -0.9791  0.0194
 4702TIP3   OH238300   1.025   5.973  18.118  0.3257 -0.7521  0.6152
 4702TIP3    H138301   1.117   5.985  18.142  0.1414 -0.5874  1.2535
 4702TIP3    H238302   0.976   5.989  18.199 -0.4459  1.6321 -0.2016
 4703TIP3   OH238303   5.584   5.719  18.549 -0.1062  0.2459  0.5206
 4703TIP3    H138304   5.662   5.664  18.542 -0.0421  0.5464 -2.5125
 4703TIP3    H238305   5.516   5.671  18.502 -1.7264  0.1886  2.7549
 4704TIP3   OH238306   1.557   5.283  18.044  0.2233 -0.4559 -0.0964
 4704TIP3    H138307   1.542   5.378  18.050 -1.1548 -0.7426  1.9915
 4704TIP3    H238308   1.477   5.244  18.077  1.0791 -2.3647 -0.1480
 4705TIP3   OH238309   5.420   1.674  18.861 -0.2676 -0.3216 -0.5223
 4705TIP3    H138310   5.384   1.716  18.784  0.9538  0.0777 -0.8932
 4705TIP3    H238311   5.389   1.727  18.934  0.1173  0.4188 -0.8864
 4706TIP3   OH238312   2.919   6.035  17.683  0.6420  0.3823 -0.0680
 4706TIP3    H138313   2.937   6.087  17.605  0.2126 -0.6235 -0.8597
 4706TIP3    H238314   2.907   5.946  17.650 -1.0031  0.1812  0.9781
 4707TIP3   OH238315   6.564   5.029  19.346 -0.6312  0.0830  0.0684
 4707TIP3    H138316   6.647   5.069  19.319  0.0851 -0.1712  1.7240
 4707TIP3    H238317   6.587   4.939  19.367 -1.0270  0.3521  1.8028
 4708TIP3   OH238318   7.325   4.887  18.838  0.4643 -0.5369 -0.0721
 4708TIP3    H138319   7.403   4.933  18.808  0.2946 -1.2156 -1.6093
 4708TIP3    H238320   7.304   4.825  18.768 -0.0050 -2.1417  1.4071
 4709TIP3   OH238321   5.694   4.381  18.924 -0.2561 -0.6552  0.0137
 4709TIP3    H138322   5.630   4.313  18.946 -1.0576  0.4134  1.1685
 4709TIP3    H238323   5.735   4.403  19.008 -0.9051  1.1438 -0.0962
 4710TIP3   OH238324   3.940   1.905  18.029  0.2190 -0.4160  0.1275
 4710TIP3    H138325   3.880   1.935  17.961 -0.7087 -1.5297  0.4195
 4710TIP3    H238326   3.886   1.900  18.108  1.0507 -0.0529  0.7409
 4711TIP3   OH238327   4.326   2.985  18.267  0.0751  0.0511  0.0990
 4711TIP3    H138328   4.267   3.052  18.302  1.1381  1.2824 -0.3771
 4711TIP3    H238329   4.268   2.919  18.229 -1.0064  0.7453  0.4980
 4712TIP3   OH238330   3.044   6.666  17.304  0.0591  0.3562  0.2936
 4712TIP3    H138331   3.072   6.678  17.214  0.5768  0.5354  0.4783
 4712TIP3    H238332   3.118   6.623  17.347 -1.4455 -3.0469 -0.1935
 4713TIP3   OH238333   0.406   0.376  17.504 -0.1449  0.2939  0.3079
 4713TIP3    H138334   0.362   0.419  17.431 -1.4331 -2.1259 -0.4705
 4713TIP3    H238335   0.498   0.399  17.494 -0.6922  2.5233 -0.2039
 4714TIP3   OH238336   0.425   0.540  17.798  0.1789 -0.2059  0.2944
 4714TIP3    H138337   0.341   0.569  17.762  0.5138 -0.2684 -0.5590
 4714TIP3    H238338   0.438   0.452  17.761  1.0791  0.1965 -0.3781
 4715TIP3   OH238339   6.976   2.556  18.122 -0.5239 -0.3647  0.7403
 4715TIP3    H138340   6.887   2.525  18.141 -0.1295 -2.4653 -0.6410
 4715TIP3    H238341   7.033   2.495  18.168  0.2501 -0.9863 -0.9778
 4716TIP3   OH238342   7.538   0.578  17.953 -0.2821  0.1161 -0.1867
 4716TIP3    H138343   7.445   0.600  17.944 -0.5793 -1.3899 -1.1897
 4716TIP3    H238344   7.543   0.486  17.928  1.0118 -0.8014  2.9877
 4717TIP3   OH238345   1.111   4.809  17.527  0.1660  0.0911 -0.2060
 4717TIP3    H138346   1.193   4.815  17.479 -0.1841  1.3951 -0.6625
 4717TIP3    H238347   1.051   4.764  17.467  1.2166 -3.5283  1.1315
 4718TIP3   OH238348   1.323   7.400  17.702  0.0773 -0.2945 -0.1464
 4718TIP3    H138349   1.282   7.409  17.615 -1.2957 -0.8599  0.4152
 4718TIP3    H238350   1.265   7.449  17.760  0.6555 -0.4379  0.5545
 4719TIP3   OH238351   5.219   6.730  17.742 -0.3226  0.3918  0.3874
 4719TIP3    H138352   5.177   6.806  17.782 -2.0564 -0.6581  0.6641
 4719TIP3    H238353   5.194   6.733  17.650 -1.6574 -0.6195  0.6924
 4720TIP3   OH238354   1.711   4.637  18.521  0.1036 -0.1605  0.2574
 4720TIP3    H138355   1.748   4.550  18.534  0.9526  0.1708  0.1202
 4720TIP3    H238356   1.659   4.628  18.441 -0.2115 -0.6596  0.5115
 4721TIP3   OH238357   1.977   1.464  18.237 -0.2092 -0.3563  0.5957
 4721TIP3    H138358   2.014   1.453  18.149  1.4130  0.7876  1.0890
 4721TIP3    H238359   2.036   1.415  18.294  0.1021  0.8065  1.3102
 4722TIP3   OH238360   3.328   6.631  18.610 -0.0405  0.1572 -0.4609
 4722TIP3    H138361   3.260   6.698  18.614 -0.9621 -0.7756 -0.2067
 4722TIP3    H238362   3.377   6.652  18.530  0.7626  2.1272  0.4908
 4723TIP3   OH238363   5.594   7.367  19.275 -0.0723 -0.1118 -0.9247
 4723TIP3    H138364   5.562   7.300  19.335  1.0025  0.3723  0.2339
 4723TIP3    H238365   5.672   7.328  19.235  0.7870  0.5438  0.0451
 4724TIP3   OH238366   5.839   6.104  17.591  0.0168  0.1706  0.2581
 4724TIP3    H138367   5.797   6.042  17.532  0.2809 -0.4404  0.7045
 4724TIP3    H238368   5.809   6.079  17.678  0.1243  0.6761  0.4482
 4725TIP3   OH238369   6.324   2.754  18.817 -0.0208  0.3221  0.2278
 4725TIP3    H138370   6.282   2.827  18.862  0.2274  0.3913  0.3467
 4725TIP3    H238371   6.381   2.714  18.882  0.8763  0.8481 -0.2082
 4726TIP3   OH238372   6.803   5.127  17.664  0.0872 -0.4096 -0.5083
 4726TIP3    H138373   6.885   5.077  17.659 -0.0028 -0.5371 -0.7294
 4726TIP3    H238374   6.751   5.082  17.731  0.9802  0.8333  1.0792
 4727TIP3   OH238375   1.962   1.455  18.535 -0.0609 -0.1132 -0.1699
 4727TIP3    H138376   1.893   1.390  18.547  0.1500 -0.3681 -0.3404
 4727TIP3    H238377   2.040   1.415  18.573 -0.1609  0.4593  0.6547
 4728TIP3   OH238378   0.729   0.475  17.680 -0.4879 -0.0182 -0.1035
 4728TIP3    H138379   0.643   0.472  17.721 -0.7299 -2.6934 -0.6213
 4728TIP3    H238380   0.717   0.532  17.604 -1.4517  0.6836  0.5551
 4729TIP3   OH238381   5.534   6.799  18.933  0.8367 -0.1210  0.0030
 4729TIP3    H138382   5.451   6.802  18.982  0.1666 -1.6943 -0.9604
 4729TIP3    H238383   5.563   6.890  18.929 -0.5577  0.3937  0.8484
 4730TIP3   OH238384   0.233   2.128  19.101 -0.0705 -0.2914  0.4631
 4730TIP3    H138385   0.229   2.064  19.172 -1.3026  0.4705  1.1018
 4730TIP3    H238386   0.158   2.185  19.115  0.7862  1.0877 -0.3092
 4731TIP3   OH238387   3.819   5.361  18.473  0.4554 -0.0166 -0.0628
 4731TIP3    H138388   3.879   5.297  18.512  0.2876 -0.0656  0.1172
 4731TIP3    H238389   3.876   5.423  18.427  0.9312  1.8091  2.7163
 4732TIP3   OH238390   2.191   4.929  17.712 -0.1543 -0.1318  0.0104
 4732TIP3    H138391   2.103   4.954  17.738  0.2122  0.8442  0.3342
 4732TIP3    H238392   2.181   4.896  17.622 -0.5141  2.0628 -0.7993
 4733TIP3   OH238393   1.775   2.468  19.321 -0.1932 -0.2024  0.9378
 4733TIP3    H138394   1.812   2.542  19.368  0.3874 -0.1495  0.4067
 4733TIP3    H238395   1.785   2.490  19.228 -2.0087  0.0405  0.7538
 4734TIP3   OH238396   2.375   5.260  18.917  0.0561 -0.1236 -0.4916
 4734TIP3    H138397   2.372   5.335  18.977 -0.3835 -0.5499  0.0363
 4734TIP3    H238398   2.468   5.240  18.908  0.1594  0.3028 -0.3986
 4735TIP3   OH238399   5.624   2.538  18.608  0.2757 -0.1333  0.2455
 4735TIP3    H138400   5.607   2.446  18.588  1.2102 -0.5056  1.0487
 4735TIP3    H238401   5.720   2.545  18.605  0.1864  1.0400 -0.7229
 4736TIP3   OH238402   2.986   0.450  17.830  0.3448  0.0241  0.4710
 4736TIP3    H138403   3.029   0.408  17.905  1.5257  1.6021  0.7476
 4736TIP3    H238404   2.964   0.378  17.772  0.6325 -1.1261  1.7219
 4737TIP3   OH238405   0.236   7.518  18.268  0.6610  0.3649 -0.1733
 4737TIP3    H138406   0.276   7.471  18.195  0.9798 -0.8631  0.7602
 4737TIP3    H238407   0.145   7.486  18.269  0.6277  0.4623 -0.1055
 4738TIP3   OH238408   7.368   4.548  16.990  0.3469  0.1720 -0.1757
 4738TIP3    H138409   7.445   4.492  16.999  0.0818 -0.4799 -1.5670
 4738TIP3    H238410   7.333   4.557  17.078  1.4474 -0.3462  0.3268
 4739TIP3   OH238411   7.496   4.287  19.571  0.0003  0.1640  0.5599
 4739TIP3    H138412   7.440   4.279  19.494 -0.3474  0.5367  0.7694
 4739TIP3    H238413   7.499   4.381  19.589  0.3021  0.1044  0.8367
 4740TIP3   OH238414   4.260   6.969  19.480  0.1293 -0.2198 -0.6821
 4740TIP3    H138415   4.253   7.002  19.570 -2.2517 -0.9195 -0.5400
 4740TIP3    H238416   4.305   7.039  19.433 -1.7961  1.8465  0.3122
 4741TIP3   OH238417   3.497   6.732  17.970 -0.0486 -1.1165 -0.4009
 4741TIP3    H138418   3.453   6.653  17.938  1.0419 -0.9370 -2.4876
 4741TIP3    H238419   3.584   6.730  17.930  0.8636 -0.0280  1.3727
 4742TIP3   OH238420   6.841   2.683  19.187  0.1002 -0.1098 -0.6080
 4742TIP3    H138421   6.789   2.662  19.265  0.1222 -1.3778 -0.9021
 4742TIP3    H238422   6.904   2.749  19.216 -2.1860  2.1529 -0.4336
 4743TIP3   OH238423   4.911   2.444  17.266  0.4100  0.1756  0.0119
 4743TIP3    H138424   4.927   2.538  17.263 -1.4513  0.5184 -0.8955
 4743TIP3    H238425   4.856   2.427  17.189  0.5152 -1.6149  0.2917
 4744TIP3   OH238426   0.265   4.614  17.557 -0.5223 -0.7240  0.2361
 4744TIP3    H138427   0.313   4.583  17.480 -1.2251 -0.6863 -0.2288
 4744TIP3    H238428   0.323   4.680  17.596 -0.1254 -0.7971 -0.2135
 4745TIP3   OH238429   6.895   6.258  18.890 -0.0137 -0.3302  0.4414
 4745TIP3    H138430   6.820   6.314  18.910  0.6594  0.0293  2.1576
 4745TIP3    H238431   6.858   6.185  18.841 -1.7099 -0.7750  2.2619
 4746TIP3   OH238432   5.407   6.733  18.343 -0.6315  0.8256 -0.1821
 4746TIP3    H138433   5.482   6.673  18.349 -0.9873  0.0624 -2.4844
 4746TIP3    H238434   5.382   6.749  18.434  0.9141 -0.6947  0.5710
 4747TIP3   OH238435   7.515   0.935  19.329 -1.3966  0.0799 -0.4911
 4747TIP3    H138436   7.577   0.890  19.386 -0.0564 -0.3589 -2.2282
 4747TIP3    H238437   7.551   1.023  19.318 -1.0531 -0.1687 -1.4887
 4748TIP3   OH238438   1.351   0.341  18.470  0.3594  0.2047  0.0311
 4748TIP3    H138439   1.429   0.293  18.443  0.7525  0.6943  0.2708
 4748TIP3    H238440   1.278   0.281  18.453  0.8071 -0.3337 -0.0009
 4749TIP3   OH238441   6.102   1.311  19.042 -0.0341  0.3290 -0.3525
 4749TIP3    H138442   6.103   1.284  18.950  0.2581  0.4056 -0.3753
 4749TIP3    H238443   6.064   1.399  19.041 -1.6583 -0.3401 -0.2004
 4750TIP3   OH238444   2.789   4.582  18.728 -0.3079  0.6424  0.5064
 4750TIP3    H138445   2.879   4.553  18.720 -0.1032  1.0654  1.2143
 4750TIP3    H238446   2.763   4.605  18.639  0.4793  1.1016  0.3890
 4751TIP3   OH238447   2.702   2.860  18.974 -0.1812  0.5123  0.6333
 4751TIP3    H138448   2.793   2.867  19.004 -0.1155  2.3263  0.0898
 4751TIP3    H238449   2.709   2.847  18.880 -0.4634 -2.6994  0.9162
 4752TIP3   OH238450   6.920   7.396  16.566  0.1548 -0.1481  0.1504
 4752TIP3    H138451   6.909   7.344  16.486 -1.9624 -1.5678  1.2913
 4752TIP3    H238452   6.955   7.334  16.630 -0.3851  0.3764  0.9657
 4753TIP3   OH238453   6.490   4.654  18.615  0.1554  0.0638  0.0861
 4753TIP3    H138454   6.438   4.733  18.627 -1.5885 -1.1765  1.0544
 4753TIP3    H238455   6.579   4.680  18.636 -0.5417  1.5476  1.3122
 4754TIP3   OH238456   3.976   2.932  19.128 -0.6331 -0.0131  0.4445
 4754TIP3    H138457   3.887   2.927  19.165 -0.4225 -2.5284  0.7870
 4754TIP3    H238458   3.962   2.934  19.033 -1.0559 -1.5047  0.4608
 4755TIP3   OH238459   5.287   5.953  17.451 -0.0768  0.3969 -0.4296
 4755TIP3    H138460   5.303   6.011  17.376 -0.9118  1.7176  0.3792
 4755TIP3    H238461   5.231   6.004  17.510  0.7770 -0.4906  1.2336
 4756TIP3   OH238462   3.718   6.584  17.550 -0.0775  0.0325  0.0852
 4756TIP3    H138463   3.740   6.674  17.575 -1.9200  1.0133 -1.4544
 4756TIP3    H238464   3.776   6.564  17.476  1.2007 -0.5670  1.2139
 4757TIP3   OH238465   6.855   4.623  18.306 -0.0520  0.1052  0.8051
 4757TIP3    H138466   6.760   4.633  18.300 -0.0795 -0.4230  0.2795
 4757TIP3    H238467   6.891   4.704  18.270 -0.2854 -0.6539 -1.2334
 4758TIP3   OH238468   4.077   6.061  17.047  0.0576 -0.2892 -0.3651
 4758TIP3    H138469   4.082   6.016  16.963 -0.7115 -0.8799 -0.1121
 4758TIP3    H238470   4.120   6.145  17.033  0.7549 -0.7580 -1.0904
 4759TIP3   OH238471   6.018   1.873  16.511  0.0880  0.1047  0.2593
 4759TIP3    H138472   6.098   1.834  16.478 -0.5858 -0.3081 -0.9634
 4759TIP3    H238473   6.047   1.936  16.577  1.3538 -0.5833  0.3904
 4760TIP3   OH238474   0.666   1.764  18.161  0.2155 -0.1749  0.3651
 4760TIP3    H138475   0.713   1.841  18.193 -0.9696  0.9778 -0.5427
 4760TIP3    H238476   0.593   1.754  18.221 -1.1454  1.0683 -1.0052
 4761TIP3   OH238477   4.402   3.139  16.795  0.2719 -0.5383  0.1706
 4761TIP3    H138478   4.431   3.145  16.704  0.3799 -3.9299 -0.1571
 4761TIP3    H238479   4.482   3.143  16.847  0.6332 -2.0329 -0.2044
 4762TIP3   OH238480   2.611   0.257  17.560  0.1293 -0.5445  0.0616
 4762TIP3    H138481   2.672   0.319  17.519 -1.1409 -0.1200 -1.2527
 4762TIP3    H238482   2.659   0.225  17.637  1.0068  1.7300  0.5554
 4763TIP3   OH238483   5.114   7.020  18.401  0.2295 -0.3581  0.4459
 4763TIP3    H138484   5.105   7.055  18.312  0.5762  2.1293  1.3224
 4763TIP3    H238485   5.104   7.096  18.458 -1.0812 -2.0443  2.6288
 4764TIP3   OH238486   0.703   7.272  18.494  0.6157  0.5465  0.0446
 4764TIP3    H138487   0.645   7.340  18.461  0.1571 -0.2634 -0.8226
 4764TIP3    H238488   0.650   7.224  18.558 -0.1167 -0.9594 -1.6227
 4765TIP3   OH238489   2.812   0.213  17.765 -0.1082 -0.2009 -0.4247
 4765TIP3    H138490   2.812   0.146  17.833  0.4673 -0.3005 -0.5172
 4765TIP3    H238491   2.901   0.210  17.729 -0.0947  0.5693 -0.4673
 4766TIP3   OH238492   3.391   6.050  17.909 -0.0814  0.3128  0.0252
 4766TIP3    H138493   3.439   6.124  17.872  1.4313 -0.2455  0.7992
 4766TIP3    H238494   3.303   6.084  17.925  0.2933  1.6352 -0.5620
 4767TIP3   OH238495   5.115   6.773  18.150 -0.0115  0.6763 -0.2387
 4767TIP3    H138496   5.127   6.697  18.207 -2.5938  0.3843  0.0503
 4767TIP3    H238497   5.131   6.848  18.208  2.1283  0.4131 -0.4208
 4768TIP3   OH238498   5.761   5.136  19.239 -0.0243 -0.0325  0.1298
 4768TIP3    H138499   5.681   5.160  19.284 -1.0207 -2.5803 -0.1019
 4768TIP3    H238500   5.774   5.205  19.173 -1.3677  1.0094  0.9138
 4769TIP3   OH238501   0.121   0.300  18.412 -0.3485  0.2258 -0.8198
 4769TIP3    H138502   0.034   0.338  18.399 -1.2196 -1.7331 -1.0640
 4769TIP3    H238503   0.173   0.334  18.339 -0.1881  3.1710  0.5153
 4770TIP3   OH238504   2.926   4.534  18.124 -0.0499  0.4448 -0.2443
 4770TIP3    H138505   2.900   4.442  18.134 -0.4317  0.4863 -0.8116
 4770TIP3    H238506   3.018   4.535  18.152 -0.2774  0.0534  0.5456
 4771TIP3   OH238507   3.809   2.628  17.845 -0.1346  0.3887  0.7536
 4771TIP3    H138508   3.864   2.602  17.772  1.3066 -2.3050  2.6271
 4771TIP3    H238509   3.768   2.710  17.817  1.9399  0.5509 -2.1787
 4772TIP3   OH238510   5.225   5.745  17.633  0.4937  0.0539  0.1780
 4772TIP3    H138511   5.206   5.660  17.593 -0.1046 -0.4988  1.5709
 4772TIP3    H238512   5.259   5.798  17.562  1.9960 -1.7105 -0.4782
 4773TIP3   OH238513   1.331   2.429  17.230  0.2457 -0.3699 -0.7027
 4773TIP3    H138514   1.323   2.335  17.247 -1.0023  0.2625  3.1802
 4773TIP3    H238515   1.423   2.443  17.207  0.6657 -2.3953 -0.3668
 4774TIP3   OH238516   5.044   2.724  17.370 -0.1657  0.3250  0.4981
 4774TIP3    H138517   5.005   2.696  17.453  1.3295 -0.5840  0.9517
 4774TIP3    H238518   5.117   2.780  17.396 -1.0787  1.9329 -0.3120
 4775TIP3   OH238519   5.808   4.458  19.181  0.3762  0.3199  0.5441
 4775TIP3    H138520   5.875   4.527  19.174 -1.1444  1.9536  1.2781
 4775TIP3    H238521   5.842   4.399  19.249  1.8411  0.1456 -0.2943
 4776TIP3   OH238522   6.566   3.296  17.167  0.2330  0.6779 -0.9498
 4776TIP3    H138523   6.604   3.254  17.090  2.0073 -1.3326  0.8911
 4776TIP3    H238524   6.507   3.230  17.203  0.5326  1.0215  0.1926
 4777TIP3   OH238525   3.998   0.549  17.119  0.3297  0.2153  0.4840
 4777TIP3    H138526   4.004   0.510  17.206 -1.9354 -0.5435  0.3682
 4777TIP3    H238527   3.944   0.627  17.131 -0.8233 -0.4147 -0.3490
 4778TIP3   OH238528   6.212   2.755  19.423 -0.3326 -0.9793  0.2029
 4778TIP3    H138529   6.185   2.680  19.371  0.7840 -0.5124 -1.0956
 4778TIP3    H238530   6.131   2.786  19.465 -1.0955 -1.8720 -0.5718
 4779TIP3   OH238531   2.726   6.537  17.726 -0.9849 -0.2884 -0.0335
 4779TIP3    H138532   2.647   6.572  17.770 -0.3699 -0.2949  1.1250
 4779TIP3    H238533   2.799   6.576  17.774 -0.2694 -1.8147  0.1834
 4780TIP3   OH238534   5.532   4.467  18.526 -0.3973 -0.3569 -0.5694
 4780TIP3    H138535   5.573   4.552  18.547  0.8525 -1.2237  0.7374
 4780TIP3    H238536   5.589   4.403  18.569 -1.3136 -1.8675 -1.5442
 4781TIP3   OH238537   4.186   3.340  18.644 -0.1574  0.0633 -0.0139
 4781TIP3    H138538   4.214   3.307  18.730 -0.4808 -0.0690  0.0391
 4781TIP3    H238539   4.268   3.367  18.602  0.2211 -1.5339 -0.3791
 4782TIP3   OH238540   4.129   1.032  19.188  0.3811 -0.3497 -0.0613
 4782TIP3    H138541   4.210   1.080  19.172 -0.3793  0.6146 -1.2747
 4782TIP3    H238542   4.151   0.969  19.256  2.2063 -0.2963 -0.5465
 4783TIP3   OH238543   5.001   2.383  17.551  0.6103 -0.5081 -0.2828
 4783TIP3    H138544   5.019   2.397  17.458 -1.5529  0.5519 -0.6089
 4783TIP3    H238545   4.942   2.308  17.553  0.2194 -0.1990  0.1688
 4784TIP3   OH238546   7.639   1.015  16.937  0.0200  0.1709  0.1112
 4784TIP3    H138547   7.718   1.050  16.977 -0.4350 -0.7449  1.9161
 4784TIP3    H238548   7.595   1.091  16.898  0.7831  1.0069  0.8587
 4785TIP3   OH238549   1.146   2.906  18.181  0.0707 -0.1812 -0.5566
 4785TIP3    H138550   1.117   2.990  18.217 -0.1555 -0.5161  0.0606
 4785TIP3    H238551   1.158   2.923  18.088  1.7114  0.9930 -0.1815
 4786TIP3   OH238552   1.354   7.523  18.668  0.3577  0.6705 -0.3257
 4786TIP3    H138553   1.297   7.600  18.661 -3.1928 -1.8583 -3.0363
 4786TIP3    H238554   1.309   7.464  18.728  1.5203 -0.4012 -0.4555
 4787TIP3   OH238555   3.725   5.235  18.221  0.4330 -0.9043 -0.1177
 4787TIP3    H138556   3.723   5.270  18.132 -0.1478 -0.3526  0.1110
 4787TIP3    H238557   3.646   5.268  18.262  0.3795 -1.6675  0.4170
 4788TIP3   OH238558   5.609   0.506  17.382  0.2934 -0.3400  0.8202
 4788TIP3    H138559   5.614   0.591  17.339 -2.1707 -0.1014  0.8294
 4788TIP3    H238560   5.573   0.525  17.469 -0.0593 -1.3592  0.9127
 4789TIP3   OH238561   5.393   0.901  19.082  0.2806 -0.2970  0.5872
 4789TIP3    H138562   5.477   0.894  19.127  0.1524 -0.2498  0.8377
 4789TIP3    H238563   5.384   0.994  19.062 -0.5365  0.0112  2.1823
 4790TIP3   OH238564   0.724   6.072  17.091 -0.3387  0.2155  0.3148
 4790TIP3    H138565   0.747   6.032  17.007 -0.3352 -0.5879  0.6892
 4790TIP3    H238566   0.743   6.004  17.156 -1.1297  0.5315  0.8887
 4791TIP3   OH238567   2.032   2.017  18.344 -0.3129 -0.4563  0.0822
 4791TIP3    H138568   2.017   2.068  18.424  1.4961 -0.5365  0.5140
 4791TIP3    H238569   2.013   1.927  18.369 -0.9306 -0.3350  0.0687
 4792TIP3   OH238570   2.228   2.981  17.373 -0.8336  0.0157  0.4929
 4792TIP3    H138571   2.207   2.894  17.340 -0.4946  0.6916 -1.6980
 4792TIP3    H238572   2.163   3.039  17.331  0.2699  1.0637  0.1768
 4793TIP3   OH238573   0.162   2.474  17.568 -0.0597  0.0695 -0.0898
 4793TIP3    H138574   0.202   2.413  17.631  0.6983 -0.0622 -0.6805
 4793TIP3    H238575   0.140   2.419  17.493  2.0324  0.7111 -1.2661
 4794TIP3   OH238576   2.935   1.461  17.801 -0.5723 -0.1272 -0.1546
 4794TIP3    H138577   3.020   1.491  17.770 -0.9123  0.5278 -0.4707
 4794TIP3    H238578   2.892   1.540  17.833 -0.2223 -0.7818  2.0757
 4795TIP3   OH238579   6.491   2.890  19.512  0.2928 -0.0075  0.1586
 4795TIP3    H138580   6.412   2.891  19.459  0.3140  1.6493  0.0897
 4795TIP3    H238581   6.562   2.902  19.449  0.5676 -1.0071  0.2679
 4796TIP3   OH238582   2.766   3.533  18.901 -0.4255  0.3275 -0.6537
 4796TIP3    H138583   2.805   3.571  18.980 -1.1661  1.1350 -0.6758
 4796TIP3    H238584   2.792   3.441  18.905  0.5673  0.6073 -0.1028
 4797TIP3   OH238585   1.452   5.264  18.670  0.2329 -0.0151 -0.0825
 4797TIP3    H138586   1.429   5.196  18.607  0.8848 -0.5901  0.2805
 4797TIP3    H238587   1.510   5.220  18.733  0.3728  0.7844  0.3660
 4798TIP3   OH238588   4.563   3.347  18.815  0.2530  0.5267  0.0866
 4798TIP3    H138589   4.511   3.301  18.881 -0.1819  0.3914 -0.3494
 4798TIP3    H238590   4.566   3.288  18.741 -0.4152  1.2367 -0.5240
 4799TIP3   OH238591   3.225   4.723  19.499 -0.0412 -0.3874  0.1824
 4799TIP3    H138592   3.232   4.799  19.441  0.2770  0.0939  0.8415
 4799TIP3    H238593   3.279   4.746  19.575 -0.0190 -1.2345  0.4281
 4800TIP3   OH238594   3.315   1.567  17.421  0.1744 -0.4548 -0.1951
 4800TIP3    H138595   3.269   1.611  17.349 -1.1507  2.3215  2.1423
 4800TIP3    H238596   3.406   1.592  17.409 -0.1017  0.4004 -0.6352
 4801TIP3   OH238597   5.129   0.725  17.302  0.1074  0.1735  0.5233
 4801TIP3    H138598   5.072   0.699  17.230  0.2070 -0.8521  0.7949
 4801TIP3    H238599   5.145   0.818  17.288  1.3674 -0.3000 -1.6555
 4802TIP3   OH238600   6.754   0.817  19.438  0.7292  0.1193 -0.0974
 4802TIP3    H138601   6.662   0.815  19.414  0.8971  0.4237 -0.7716
 4802TIP3    H238602   6.757   0.870  19.518  0.1641 -0.9575  0.6646
 4803TIP3   OH238603   6.143   0.059  18.477  0.4867 -0.4662 -0.1260
 4803TIP3    H138604   6.229   0.099  18.465 -0.5334  1.5591 -1.2268
 4803TIP3    H238605   6.129   0.009  18.397  0.2084  0.0896 -0.4288
 4804TIP3   OH238606   1.193   2.736  17.598  0.7202  0.5867 -0.3709
 4804TIP3    H138607   1.110   2.711  17.639  2.2968 -0.6450  2.3392
 4804TIP3    H238608   1.201   2.676  17.524  0.6100 -1.5299  1.2221
 4805TIP3   OH238609   4.568   4.173  17.594 -0.3524  0.3779  0.3783
 4805TIP3    H138610   4.612   4.155  17.511 -0.9947  0.6714 -0.0421
 4805TIP3    H238611   4.577   4.092  17.645 -1.6812 -0.5441 -0.7742
 4806TIP3   OH238612   6.749   0.390  17.480 -0.3516 -0.3631  0.0478
 4806TIP3    H138613   6.803   0.431  17.547  0.9293 -1.4978 -0.2576
 4806TIP3    H238614   6.679   0.454  17.464  1.4603  1.6608 -0.3238
 4807TIP3   OH238615   1.767   6.916  17.915  0.1155 -0.2952 -0.3045
 4807TIP3    H138616   1.853   6.923  17.957  0.4244  0.1526 -1.0039
 4807TIP3    H238617   1.738   6.827  17.937  1.2469 -0.8593 -0.9626
 4808TIP3   OH238618   6.489   5.897  18.983  0.0983  0.4675 -0.2221
 4808TIP3    H138619   6.425   5.839  18.941 -2.0557  2.7015 -0.2790
 4808TIP3    H238620   6.553   5.917  18.914 -0.3950 -0.0608 -0.8477
 4809TIP3   OH238621   6.535   1.468  19.810  0.1513  0.4027  0.3698
 4809TIP3    H138622   6.549   1.388  19.861 -0.5635  0.8102  1.2290
 4809TIP3    H238623   6.442   1.466  19.788  0.3483  0.4879 -0.5098
 4810TIP3   OH238624   4.629   2.287  17.327 -0.4054 -0.3757 -0.0448
 4810TIP3    H138625   4.693   2.352  17.298 -0.7261 -0.1548 -0.2630
 4810TIP3    H238626   4.544   2.330  17.315 -0.6157 -0.8061 -0.1128
 4811TIP3   OH238627   7.326   4.966  17.750 -0.1197  0.1887  0.0407
 4811TIP3    H138628   7.306   5.024  17.676 -3.3701 -1.9591 -0.9975
 4811TIP3    H238629   7.334   4.879  17.710  2.3403 -0.4981  1.8082
 4812TIP3   OH238630   1.616   2.152  17.885  0.2395  0.5193  0.0322
 4812TIP3    H138631   1.569   2.084  17.933 -1.0978  1.9697  0.8412
 4812TIP3    H238632   1.567   2.163  17.804 -0.8676  2.0137  0.8643
 4813TIP3   OH238633   7.053   3.351  17.717  0.0696  0.7428  0.1333
 4813TIP3    H138634   7.079   3.306  17.636  3.7973  0.3398  1.3252
 4813TIP3    H238635   7.040   3.442  17.691  4.1152  1.2815 -0.6796
 4814TIP3   OH238636   5.174   6.358  19.245 -0.0405  0.4769 -0.3212
 4814TIP3    H138637   5.254   6.331  19.289 -0.7560  0.0566  0.7578
 4814TIP3    H238638   5.115   6.283  19.253 -0.5198  0.7386 -1.1926
 4815TIP3   OH238639   6.084   7.599  18.239  0.3721 -0.3040 -0.0371
 4815TIP3    H138640   6.145   7.527  18.221 -0.2522 -0.5703 -1.2482
 4815TIP3    H238641   6.113   7.670  18.181  0.8518  0.3594  0.9950
 4816TIP3   OH238642   3.660   2.011  19.180  0.2840  0.1819  0.3652
 4816TIP3    H138643   3.683   2.027  19.089  0.2349 -1.6082  0.0032
 4816TIP3    H238644   3.567   1.989  19.178  0.3132 -0.0052  0.8124
 4817TIP3   OH238645   6.274   3.442  18.591 -0.2629 -0.0719  0.0998
 4817TIP3    H138646   6.205   3.495  18.551  0.1424  2.1246  2.0441
 4817TIP3    H238647   6.228   3.377  18.644 -0.8634  0.7263  0.5779
 4818TIP3   OH238648   0.324   4.636  17.900  0.1111 -0.0098  0.3263
 4818TIP3    H138649   0.256   4.606  17.840 -0.2418 -0.2750  0.8557
 4818TIP3    H238650   0.284   4.633  17.987  0.9456 -0.6271  0.7089
 4819TIP3   OH238651   0.889   7.452  18.708 -0.0527 -0.3706  0.3118
 4819TIP3    H138652   0.822   7.389  18.736 -1.3607 -0.4658 -2.6066
 4819TIP3    H238653   0.864   7.534  18.750 -1.1985 -0.7417  0.3858
 4820TIP3   OH238654   7.286   7.189  17.117 -0.0958 -0.0314  0.5288
 4820TIP3    H138655   7.202   7.144  17.118 -0.0839 -0.1324 -0.7897
 4820TIP3    H238656   7.264   7.282  17.126 -0.2600 -0.1394  1.2791
 4821TIP3   OH238657   0.443   5.784  18.556 -0.1821  0.0111 -0.6443
 4821TIP3    H138658   0.529   5.784  18.598 -0.0926  1.6930 -0.7428
 4821TIP3    H238659   0.443   5.707  18.501  0.7862 -0.6921  0.2973
 4822TIP3   OH238660   1.938   2.973  18.102 -0.3521 -0.0488  0.2330
 4822TIP3    H138661   1.991   2.940  18.174  0.6308  1.7184  0.3973
 4822TIP3    H238662   1.851   2.938  18.118  0.3643 -1.6128  0.9362
 4823TIP3   OH238663   2.781   7.103  19.424 -0.0898  0.6594  0.4159
 4823TIP3    H138664   2.828   7.100  19.507 -0.4446  0.7422  0.6252
 4823TIP3    H238665   2.847   7.088  19.358  0.3877  1.6092  0.6502
 4824TIP3   OH238666   2.059   4.772  18.424  0.7820 -0.0750 -0.5679
 4824TIP3    H138667   2.018   4.780  18.339  0.7528 -0.1249 -0.5593
 4824TIP3    H238668   1.995   4.809  18.486  0.9944  0.3830 -0.6196
 4825TIP3   OH238669   1.864   4.870  17.453 -0.1783  0.3676  0.0678
 4825TIP3    H138670   1.840   4.857  17.361  1.2015 -3.2532  0.0539
 4825TIP3    H238671   1.960   4.875  17.452  0.0782 -2.3007  1.3939
 4826TIP3   OH238672   2.810   1.900  17.368  0.1589 -0.0604  0.1807
 4826TIP3    H138673   2.808   1.805  17.355  1.6736 -0.6549  3.2285
 4826TIP3    H238674   2.886   1.929  17.317 -0.8037 -0.2647 -1.4563
 4827TIP3   OH238675   3.047   4.133  18.779  0.2656 -0.2195  0.2116
 4827TIP3    H138676   3.108   4.129  18.852  0.0227  0.0807  0.4387
 4827TIP3    H238677   2.961   4.119  18.819 -0.1177  2.1595  0.3521
 4828TIP3   OH238678   2.500   1.863  18.576  0.0192 -0.4904 -0.1734
 4828TIP3    H138679   2.478   1.931  18.640 -1.2595  0.5210 -1.5886
 4828TIP3    H238680   2.573   1.815  18.615  1.7696  2.3969  0.4694
 4829TIP3   OH238681   2.288   3.779  18.087  0.3624  0.3765  0.2554
 4829TIP3    H138682   2.324   3.700  18.046 -4.5914 -2.6834  0.9148
 4829TIP3    H238683   2.247   3.827  18.015 -1.3297 -0.6871  0.4560
 4830TIP3   OH238684   1.235   3.255  19.144 -0.2252 -0.2654  0.1138
 4830TIP3    H138685   1.260   3.330  19.199 -0.7833  0.8210 -1.0454
 4830TIP3    H238686   1.318   3.222  19.109 -0.0081  0.1743  0.2046
 4831TIP3   OH238687   1.476   6.751  17.776 -0.0785 -0.0198  0.4290
 4831TIP3    H138688   1.528   6.702  17.840  0.1228  0.4633  0.6433
 4831TIP3    H238689   1.415   6.802  17.829  0.6856  1.0677  0.2943
 4832TIP3   OH238690   3.673   4.375  17.738  0.3669 -0.1192  0.2782
 4832TIP3    H138691   3.743   4.431  17.706 -0.8984  0.9212 -0.8000
 4832TIP3    H238692   3.707   4.286  17.729  1.2741  0.3180 -0.9364
 4833TIP3   OH238693   6.607   1.174  19.353  0.0729  0.2597 -0.6764
 4833TIP3    H138694   6.624   1.255  19.401  1.9244 -0.1727 -0.5266
 4833TIP3    H238695   6.694   1.143  19.328 -0.6996 -0.8475 -2.1339
 4834TIP3   OH238696   5.303   5.104  18.843 -0.3566 -0.2527 -0.0212
 4834TIP3    H138697   5.275   5.099  18.752  1.2955 -1.3141 -0.4960
 4834TIP3    H238698   5.261   5.028  18.885  0.2175 -0.7367 -0.3004
 4835TIP3   OH238699   4.417   7.191  18.151 -0.1141 -0.5023 -0.2322
 4835TIP3    H138700   4.356   7.119  18.135 -0.5878  0.3593 -2.6988
 4835TIP3    H238701   4.372   7.269  18.118  0.9213  0.7561  1.1581
 4836TIP3   OH238702   0.880   5.282  17.064  0.4604 -0.7465 -0.1381
 4836TIP3    H138703   0.834   5.258  17.144  1.7599  0.5004  1.0328
 4836TIP3    H238704   0.838   5.230  16.996 -1.2285 -1.2347  1.2048
 4837TIP3   OH238705   5.083   6.043  17.029 -0.0165  0.7837  0.1751
 4837TIP3    H138706   5.029   6.042  16.951 -0.7392 -0.1376  0.6683
 4837TIP3    H238707   5.167   6.080  17.000  0.0759 -0.4564 -1.2676
 4838TIP3   OH238708   2.057   2.412  19.395 -0.0044 -0.0847 -0.1742
 4838TIP3    H138709   1.997   2.445  19.328 -0.3880 -0.5832 -0.0855
 4838TIP3    H238710   2.013   2.334  19.430 -2.0073  2.4244  3.7448
 4839TIP3   OH238711   7.246   3.906  17.306 -0.3677  0.6427 -0.2494
 4839TIP3    H138712   7.201   3.989  17.318 -0.7913  0.4447 -0.4461
 4839TIP3    H238713   7.229   3.858  17.387  0.0400  0.8227 -0.0559
 4840TIP3   OH238714   5.075   3.230  19.281  0.4798 -0.7713  0.5238
 4840TIP3    H138715   5.072   3.319  19.246 -1.0356 -0.1283  2.1367
 4840TIP3    H238716   5.127   3.181  19.218 -1.9638  0.2853 -2.5407
 4841TIP3   OH238717   3.456   0.314  17.321 -0.3838 -0.0141 -0.2386
 4841TIP3    H138718   3.488   0.254  17.253  0.5663  1.3823 -1.0853
 4841TIP3    H238719   3.536   0.346  17.364 -0.9492 -0.5021  1.2471
 4842TIP3   OH238720   5.123   3.562  19.653  0.2415 -0.7898 -0.3860
 4842TIP3    H138721   5.157   3.479  19.617  2.8096 -0.1790  0.4221
 4842TIP3    H238722   5.106   3.616  19.576  3.2073 -0.4117 -0.8882
 4843TIP3   OH238723   6.771   4.645  19.014  0.3114 -0.1354 -0.1422
 4843TIP3    H138724   6.696   4.699  18.990  3.0904  3.0322 -2.5145
 4843TIP3    H238725   6.768   4.641  19.110 -3.2090 -0.8280 -0.1678
 4844TIP3   OH238726   3.090   6.915  19.362 -0.1467  0.5788 -0.0395
 4844TIP3    H138727   3.078   6.821  19.376 -1.2052  0.8352  0.9485
 4844TIP3    H238728   3.183   6.930  19.379 -0.3255 -0.0210  1.6703
 4845TIP3   OH238729   1.143   3.455  18.000 -0.2482  0.8211  0.7692
 4845TIP3    H138730   1.091   3.491  18.072  0.0432  0.8361  0.9745
 4845TIP3    H238731   1.178   3.532  17.955  1.7184  0.8300  2.1800
 4846TIP3   OH238732   0.131   2.603  18.934 -0.4655 -0.4814 -0.5612
 4846TIP3    H138733   0.210   2.562  18.900 -1.6175 -2.6047 -0.8327
 4846TIP3    H238734   0.161   2.653  19.010  1.1317 -1.2742 -0.6279
 4847TIP3   OH238735   7.631   2.474  19.094  0.0610  1.0044 -0.3162
 4847TIP3    H138736   7.698   2.509  19.036 -0.8502 -0.2729 -2.2408
 4847TIP3    H238737   7.668   2.392  19.127 -0.0701  0.9000 -0.4260
 4848TIP3   OH238738   4.206   1.935  18.123 -0.5004  0.1208 -0.1082
 4848TIP3    H138739   4.220   2.024  18.155  0.5381  0.5009 -1.5286
 4848TIP3    H238740   4.114   1.934  18.094 -0.0375  1.3305 -1.7737
 4849TIP3   OH238741   5.604   5.183  18.026  0.0918 -0.5646  0.3637
 4849TIP3    H138742   5.693   5.161  17.998 -0.0928 -2.1218  0.9133
 4849TIP3    H238743   5.550   5.169  17.948  0.3982  1.1174 -0.1871
 4850TIP3   OH238744   5.695   2.801  18.778  0.2359  0.5422  0.0028
 4850TIP3    H138745   5.691   2.721  18.726 -1.8181  2.3205 -2.8906
 4850TIP3    H238746   5.785   2.804  18.810  1.4676 -1.1599 -2.8599
 4851TIP3   OH238747   6.277   7.270  19.307  0.6308  0.0546  0.0481
 4851TIP3    H138748   6.301   7.178  19.304  1.9140  0.1786  2.9660
 4851TIP3    H238749   6.188   7.271  19.341  1.3641 -0.1564  2.1439
 4852TIP3   OH238750   4.277   0.668  19.218 -0.4340 -0.1880  0.5083
 4852TIP3    H138751   4.310   0.581  19.243 -1.4414 -0.4683  0.9112
 4852TIP3    H238752   4.187   0.652  19.192 -0.1676  0.5073 -0.9346
 4853TIP3   OH238753   6.298   5.329  17.574  0.1671 -0.6860  0.0698
 4853TIP3    H138754   6.270   5.276  17.648  1.4406 -1.2070  0.2023
 4853TIP3    H238755   6.373   5.282  17.537  0.3227  0.1995 -0.7928
 4854TIP3   OH238756   7.219   1.189  18.339 -0.0672 -0.2077 -0.0474
 4854TIP3    H138757   7.220   1.284  18.331 -0.7306 -0.2757 -1.0838
 4854TIP3    H238758   7.271   1.157  18.265  1.8473 -0.6192  1.3995
 4855TIP3   OH238759   4.634   1.130  17.865  0.1565 -0.2211  0.2557
 4855TIP3    H138760   4.600   1.094  17.946 -1.0124  1.2051  0.4572
 4855TIP3    H238761   4.561   1.182  17.830  1.6405  1.8024 -0.0565
 4856TIP3   OH238762   3.027   2.115  18.229 -0.0930 -0.0441 -0.1746
 4856TIP3    H138763   3.037   2.136  18.322 -2.1693  0.0850  0.0811
 4856TIP3    H238764   3.075   2.184  18.183  0.5596  0.1549  0.7939
 4857TIP3   OH238765   3.247   1.568  18.011  0.3145  0.0862 -0.5629
 4857TIP3    H138766   3.218   1.569  17.919 -1.7062  1.2565  0.0205
 4857TIP3    H238767   3.334   1.608  18.008  0.0073  0.7444 -1.9231
 4858TIP3   OH238768   5.599   0.521  18.514 -0.4903 -0.1458 -0.6968
 4858TIP3    H138769   5.589   0.616  18.515 -0.6361 -0.1502  0.7492
 4858TIP3    H238770   5.693   0.507  18.504 -0.2657  0.2003  0.7508
 4859TIP3   OH238771   5.461   1.048  18.701  0.1362  0.6514  1.0170
 4859TIP3    H138772   5.405   1.113  18.743 -0.4755  1.5547 -1.0671
 4859TIP3    H238773   5.548   1.088  18.701 -0.1973  1.4164 -0.0683
 4860TIP3   OH238774   2.938   0.135  18.656 -0.1954  0.0316  0.4669
 4860TIP3    H138775   2.941   0.078  18.579 -0.0628  1.5222 -0.6694
 4860TIP3    H238776   2.925   0.223  18.621 -1.9311  0.5664  2.2506
 4861TIP3   OH238777   0.187   5.278  17.116  0.4949 -0.7041 -0.7210
 4861TIP3    H138778   0.173   5.285  17.022  0.1365  0.9374 -0.5737
 4861TIP3    H238779   0.272   5.320  17.130  0.4653 -0.7850 -0.3016
 4862TIP3   OH238780   3.724   6.605  18.252  0.4125 -0.2753 -0.5641
 4862TIP3    H138781   3.733   6.646  18.338 -0.0763  0.7687 -0.9983
 4862TIP3    H238782   3.763   6.667  18.191 -0.1992 -0.5187 -1.2203
 4863TIP3   OH238783   7.076   5.488  17.190  0.2735 -0.4401  0.0465
 4863TIP3    H138784   7.037   5.571  17.164  1.3806  1.0333  2.6265
 4863TIP3    H238785   7.031   5.465  17.272  2.0350 -0.7043  1.0049
 4864TIP3   OH238786   6.984   0.224  19.236 -0.3262 -0.0523 -0.5496
 4864TIP3    H138787   6.890   0.214  19.252 -0.7361 -0.5047 -2.8560
 4864TIP3    H238788   7.025   0.161  19.296 -1.7138 -1.8577 -1.3742
 4865TIP3   OH238789   0.356   2.498  18.781 -0.3638  1.1161 -0.0675
 4865TIP3    H138790   0.311   2.430  18.730 -0.9067  0.1904  1.5594
 4865TIP3    H238791   0.365   2.459  18.869 -1.4246  3.4453  1.1571
 4866TIP3   OH238792   5.276   1.172  17.248 -0.2939  0.0396 -0.1393
 4866TIP3    H138793   5.325   1.244  17.288  0.6930 -0.7234  0.0566
 4866TIP3    H238794   5.211   1.216  17.192 -0.2651  1.0889  0.6085
 4867TIP3   OH238795   1.528   3.851  18.599  0.2271 -0.5131 -0.2627
 4867TIP3    H138796   1.610   3.802  18.594 -0.1531 -1.4307  1.7344
 4867TIP3    H238797   1.523   3.881  18.689 -1.4199 -0.0453 -0.4698
 4868TIP3   OH238798   5.809   2.161  19.151  0.2073  0.0442  0.0157
 4868TIP3    H138799   5.775   2.102  19.083  0.3258  0.5578 -0.4993
 4868TIP3    H238800   5.752   2.147  19.226 -0.2624 -0.1464 -0.3683
 4869TIP3   OH238801   6.327   0.591  16.778  0.8794  0.4768 -0.1673
 4869TIP3    H138802   6.405   0.606  16.724 -0.2446  1.2605 -1.6244
 4869TIP3    H238803   6.323   0.668  16.836  0.2811  1.3022 -1.2621
 4870TIP3   OH238804   3.170   6.385  27.809 -0.6270  0.0254  0.1405
 4870TIP3    H138805   3.183   6.430  27.725 -1.0673  0.5362  0.3397
 4870TIP3    H238806   3.239   6.421  27.866 -1.7937  1.4910  0.7012
 4871TIP3   OH238807   7.519   3.448  18.212  0.1464  0.3506 -0.3772
 4871TIP3    H138808   7.540   3.355  18.216  1.9492  0.6290 -1.9669
 4871TIP3    H238809   7.502   3.465  18.119  0.3743  1.7000 -0.1973
 4872TIP3   OH238810   3.333   5.239  18.840 -0.1832 -0.1240  0.1001
 4872TIP3    H138811   3.363   5.328  18.861  1.6093 -0.8184  0.7209
 4872TIP3    H238812   3.359   5.226  18.749 -0.3074 -0.0680  0.0572
 4873TIP3   OH238813   0.655   7.363  18.798 -0.0639  0.6169 -0.3224
 4873TIP3    H138814   0.610   7.416  18.864  0.1650  0.5276 -0.0956
 4873TIP3    H238815   0.584   7.318  18.751 -0.1649 -1.1600  1.3977
 4874TIP3   OH238816   2.388   7.613  17.781  0.2496 -0.3230 -0.3353
 4874TIP3    H138817   2.319   7.557  17.816  0.4119  0.7472  1.8681
 4874TIP3    H238818   2.405   7.578  17.693 -1.6680 -1.8531 -0.1746
 4875TIP3   OH238819   3.898   5.168  18.913 -0.2318 -0.2332 -0.0055
 4875TIP3    H138820   3.968   5.102  18.911 -1.6140 -1.7587 -0.8466
 4875TIP3    H238821   3.840   5.138  18.984 -1.0700 -0.1374 -0.6397
 4876TIP3   OH238822   1.192   6.354  19.076 -0.8181  0.3770  0.0918
 4876TIP3    H138823   1.265   6.368  19.135 -1.5986  1.8517  0.7726
 4876TIP3    H238824   1.176   6.440  19.036 -0.8186 -0.4037 -1.6878
 4877TIP3   OH238825   7.043   6.570  16.501  0.1249  0.4287  0.0958
 4877TIP3    H138826   6.989   6.590  16.424 -0.4485 -0.3751  0.2752
 4877TIP3    H238827   7.061   6.655  16.540  0.4734  0.8563 -0.9527
 4878TIP3   OH238828   4.647   3.519  19.262  0.2812 -0.1813  0.0161
 4878TIP3    H138829   4.709   3.530  19.334  0.5630 -0.3400 -0.2004
 4878TIP3    H238830   4.634   3.608  19.228  1.3154 -0.2980 -0.7059
 4879TIP3   OH238831   6.389   3.315  17.862 -0.0629 -0.2762  0.2575
 4879TIP3    H138832   6.329   3.381  17.828  0.4576  0.0261 -0.0884
 4879TIP3    H238833   6.385   3.243  17.798  0.4164  0.0133 -0.1050
 4880TIP3   OH238834   3.659   2.635  17.420 -0.5168  0.5378  0.6510
 4880TIP3    H138835   3.595   2.583  17.372 -0.4905 -0.7166  1.9084
 4880TIP3    H238836   3.609   2.676  17.491  0.1977 -1.5114  2.4580
 4881TIP3   OH238837   2.216   0.540  17.845  0.0284 -0.5140  0.1496
 4881TIP3    H138838   2.277   0.493  17.789  1.0454 -0.5848  1.2949
 4881TIP3    H238839   2.248   0.630  17.846 -1.1402 -0.0472 -0.9482
 4882TIP3   OH238840   0.620   3.343  19.038  0.1039 -0.0583  0.3433
 4882TIP3    H138841   0.709   3.334  19.071 -0.4729  0.5994  2.1994
 4882TIP3    H238842   0.577   3.261  19.060 -0.0085 -0.0178  0.2808
 4883TIP3   OH238843   5.505   5.790  17.207 -0.0976  0.4709  0.2397
 4883TIP3    H138844   5.584   5.757  17.250  0.5663  2.9915  1.1512
 4883TIP3    H238845   5.496   5.879  17.240 -0.4600  2.0862 -3.6511
 4884TIP3   OH238846   1.223   0.850  19.425  0.3188 -0.1289 -0.0041
 4884TIP3    H138847   1.178   0.933  19.442 -0.8938 -0.4138 -1.6336
 4884TIP3    H238848   1.176   0.786  19.478 -0.0391 -0.1121 -0.2981
 4885TIP3   OH238849   0.802   0.721  19.440 -0.0586 -0.2539  0.4171
 4885TIP3    H138850   0.824   0.630  19.460  3.3247 -0.0435 -1.5817
 4885TIP3    H238851   0.707   0.721  19.432 -0.3438 -3.1980  2.1469
 4886TIP3   OH238852   2.796   0.464  17.445 -0.2871  0.2896 -0.7451
 4886TIP3    H138853   2.781   0.550  17.484 -1.3862  0.0860 -0.6966
 4886TIP3    H238854   2.890   0.449  17.455 -0.4997  0.2892  1.7349
 4887TIP3   OH238855   6.806   3.210  19.569 -0.6917 -0.1747  0.5894
 4887TIP3    H138856   6.722   3.227  19.612 -0.4134  0.2015  0.9966
 4887TIP3    H238857   6.793   3.240  19.479 -0.1877  2.4460  1.2946
 4888TIP3   OH238858   1.827   3.169  17.925  0.0966  0.1555  0.4429
 4888TIP3    H138859   1.739   3.203  17.942  0.7247  0.7173  3.0849
 4888TIP3    H238860   1.828   3.083  17.966  0.8410  0.2559  0.6542
 4889TIP3   OH238861   7.263   6.090  18.134  0.1664  0.6090 -0.1267
 4889TIP3    H138862   7.260   6.102  18.040  0.9287 -0.0293 -0.2408
 4889TIP3    H238863   7.282   5.997  18.146 -0.4754  0.5625  0.6639
 4890TIP3   OH238864   2.696   1.682  18.636  0.0614 -0.1493 -0.2675
 4890TIP3    H138865   2.752   1.663  18.710  1.0793  1.5711 -0.5341
 4890TIP3    H238866   2.733   1.632  18.563  1.1291  0.7573 -0.3757
 4891TIP3   OH238867   2.494   0.420  18.028 -0.1514  0.1246 -0.0148
 4891TIP3    H138868   2.468   0.506  18.061  1.6521  0.8656 -0.3888
 4891TIP3    H238869   2.441   0.358  18.078 -1.2016  1.4278  0.5479
 4892TIP3   OH238870   3.315   4.195  18.200 -0.6238 -0.3977  0.1447
 4892TIP3    H138871   3.292   4.179  18.291  0.5023 -0.0775  0.4949
 4892TIP3    H238872   3.410   4.185  18.197 -0.4558  1.2145 -0.6600
 4893TIP3   OH238873   5.332   7.140  17.677 -0.0746 -0.0577 -0.1482
 4893TIP3    H138874   5.367   7.077  17.740 -1.8619 -0.8851  0.0873
 4893TIP3    H238875   5.289   7.086  17.611 -0.0830  0.8648 -0.9110
 4894TIP3   OH238876   5.287   0.131  19.625 -0.2713  0.2517  0.0668
 4894TIP3    H138877   5.247   0.159  19.544 -0.4480 -0.5034 -0.1177
 4894TIP3    H238878   5.252   0.043  19.641 -0.1482  0.3371  0.8923
 4895TIP3   OH238879   5.772   6.519  17.623  0.2548  0.5863 -0.7768
 4895TIP3    H138880   5.716   6.453  17.663 -0.9764  0.4574 -2.6084
 4895TIP3    H238881   5.791   6.580  17.694  0.9052 -1.3488  0.8135
 4896TIP3   OH238882   0.043   3.122  18.933  0.1931 -0.2537  0.3338
 4896TIP3    H138883  -0.048   3.110  18.905  0.1822  0.2783  0.1436
 4896TIP3    H238884   0.075   3.194  18.881  1.3956 -1.7864 -1.1458
 4897TIP3   OH238885   4.282   6.971  18.098  0.0635 -0.1167 -0.3206
 4897TIP3    H138886   4.289   6.876  18.092  0.3526 -0.1631  0.5582
 4897TIP3    H238887   4.207   6.986  18.155  1.8069  0.0959  2.0520
 4898TIP3   OH238888   4.371   6.037  17.071 -0.0882  0.2139 -0.0226
 4898TIP3    H138889   4.349   5.955  17.026  0.7325  0.0388 -0.1085
 4898TIP3    H238890   4.466   6.044  17.065 -0.1169  1.0102  0.2752
 4899TIP3   OH238891   7.294   3.926  19.272  0.2386 -0.3519 -0.1154
 4899TIP3    H138892   7.236   3.924  19.196 -0.9559 -0.0669  0.7543
 4899TIP3    H238893   7.275   3.844  19.318  1.7369 -1.0371 -0.6648
 4900TIP3   OH238894   0.040   0.206  17.267  0.3865  0.1572 -0.2624
 4900TIP3    H138895  -0.054   0.189  17.261  0.2940  0.4875  0.1454
 4900TIP3    H238896   0.081   0.120  17.256 -0.0538 -0.3554  1.6195
 4901TIP3   OH238897   3.023   3.983  17.332 -0.4236 -0.3306 -0.0506
 4901TIP3    H138898   3.059   3.928  17.262  0.4976 -1.0085  0.9359
 4901TIP3    H238899   3.073   4.065  17.327  2.2013 -1.6669  2.0315
 4902TIP3   OH238900   2.061   5.342  17.863 -0.0752  0.3680  0.7805
 4902TIP3    H138901   2.128   5.322  17.929  1.2207 -0.1780 -0.6339
 4902TIP3    H238902   2.081   5.431  17.834 -0.4577  0.4959  0.9042
 4903TIP3   OH238903   3.323   7.005  18.460 -0.7782  0.3699 -0.2922
 4903TIP3    H138904   3.261   7.057  18.511 -1.8640 -0.9482 -0.2036
 4903TIP3    H238905   3.369   7.069  18.406 -0.5799  1.6361  1.3176
 4904TIP3   OH238906   1.252   5.192  18.876 -0.4595  0.2035  0.1569
 4904TIP3    H138907   1.183   5.236  18.926 -0.5898 -1.7113  1.7482
 4904TIP3    H238908   1.206   5.151  18.803 -0.4568  1.8293 -0.8255
 4905TIP3   OH238909   4.775   6.675  19.270  0.2181  0.0749  0.2590
 4905TIP3    H138910   4.699   6.727  19.297  0.1661 -0.4299  1.1023
 4905TIP3    H238911   4.841   6.740  19.245 -0.4669  0.5191 -0.4553
 4906TIP3   OH238912   7.300   2.751  16.046 -0.0895 -0.0983  0.6723
 4906TIP3    H138913   7.225   2.707  16.087  0.0980 -1.8190 -0.7023
 4906TIP3    H238914   7.374   2.695  16.069  0.1532 -0.5692 -1.1480
 4907TIP3   OH238915   4.924   1.297  18.786 -0.0199  0.6009 -0.4707
 4907TIP3    H138916   4.994   1.232  18.790  1.0238  1.7216  0.0559
 4907TIP3    H238917   4.969   1.379  18.767 -1.5525  0.7591 -4.5473
 4908TIP3   OH238918   4.683   3.890  18.293  0.1494  0.0255  0.3118
 4908TIP3    H138919   4.752   3.932  18.242  0.0243  1.5960  1.3428
 4908TIP3    H238920   4.603   3.938  18.271  0.2245  1.3076  2.4695
 4909TIP3   OH238921   1.016   4.602  19.014 -0.0236  0.0393 -0.2261
 4909TIP3    H138922   1.064   4.537  19.065 -0.0857 -2.0867 -2.6549
 4909TIP3    H238923   0.926   4.569  19.012 -0.3275  0.8525 -0.5378
 4910TIP3   OH238924   6.630   3.772  17.382 -0.1045 -0.1924 -0.5666
 4910TIP3    H138925   6.578   3.734  17.453 -1.1194 -0.5943 -1.5004
 4910TIP3    H238926   6.712   3.721  17.383 -0.3391 -0.5645 -0.0452
 4911TIP3   OH238927   2.316   7.615  18.205  0.0588 -0.4171  0.4958
 4911TIP3    H138928   2.305   7.520  18.194  0.8230 -0.3834 -0.7363
 4911TIP3    H238929   2.233   7.653  18.178  0.4113 -0.6308 -0.9615
 4912TIP3   OH238930   6.503   1.165  17.337  0.2173  0.0868  0.2871
 4912TIP3    H138931   6.491   1.155  17.431 -1.5030 -2.1111 -0.0973
 4912TIP3    H238932   6.436   1.110  17.297  1.3324  0.3879 -2.2476
 4913TIP3   OH238933   3.252   4.944  19.337 -0.0789  0.2429  0.4830
 4913TIP3    H138934   3.327   4.922  19.282  0.1802  1.2547  0.4074
 4913TIP3    H238935   3.269   5.033  19.366 -1.5588  0.7397 -0.0612
 4914TIP3   OH238936   4.809   0.706  16.863 -0.0655 -0.0122 -0.2384
 4914TIP3    H138937   4.772   0.787  16.899  1.1167  0.6101 -0.3902
 4914TIP3    H238938   4.808   0.718  16.768  2.2510  0.8477 -0.2176
 4915TIP3   OH238939   1.188   6.502  17.310  0.2449 -0.0835  0.2378
 4915TIP3    H138940   1.257   6.530  17.250 -0.2493 -1.3317 -0.9831
 4915TIP3    H238941   1.217   6.415  17.339 -0.6566 -0.4787 -0.0360
 4916TIP3   OH238942   7.316   4.793  18.575 -0.7300  0.1391 -0.1265
 4916TIP3    H138943   7.301   4.883  18.546 -1.2916  0.4524  1.0834
 4916TIP3    H238944   7.283   4.739  18.503  0.6025  0.8751 -1.3448
 4917TIP3   OH238945   7.113   6.591  17.714  0.1261  0.4345  0.2195
 4917TIP3    H138946   7.019   6.604  17.700 -0.2476 -0.1413  2.0038
 4917TIP3    H238947   7.130   6.627  17.801  0.8202 -2.6873  1.4962
 4918TIP3   OH238948   6.600   6.502  17.103  0.1125  0.7964 -0.0736
 4918TIP3    H138949   6.527   6.460  17.149 -1.0594  0.8339 -1.7697
 4918TIP3    H238950   6.558   6.569  17.049  1.2671  0.2029 -1.8004
 4919TIP3   OH238951   2.137   2.776  18.738 -0.2946  0.3162 -0.3677
 4919TIP3    H138952   2.173   2.749  18.823  0.4756  0.9063 -0.4917
 4919TIP3    H238953   2.066   2.836  18.760 -0.8171 -0.3716 -0.1294
 4920TIP3   OH238954   5.866   1.776  17.427 -0.4960  0.3316 -0.2936
 4920TIP3    H138955   5.811   1.698  17.418 -0.0985  0.2216 -2.4846
 4920TIP3    H238956   5.805   1.847  17.444 -0.9066 -0.3468  1.2750
 4921TIP3   OH238957   1.151   7.402  18.814  0.1077  0.4972 -0.3309
 4921TIP3    H138958   1.072   7.420  18.762  0.0906  0.2319 -0.3960
 4921TIP3    H238959   1.123   7.338  18.879  0.3010  0.2976 -0.4424
 4922TIP3   OH238960   0.804   6.471  18.361 -0.0236  0.0953  0.5118
 4922TIP3    H138961   0.749   6.441  18.433 -1.3497 -0.2799 -0.6161
 4922TIP3    H238962   0.812   6.566  18.375 -1.0847  0.1800  0.6294
 4923TIP3   OH238963   3.917   5.907  19.140  0.0565  0.1156  0.5412
 4923TIP3    H138964   3.866   5.872  19.067  2.2653  2.0986 -2.1692
 4923TIP3    H238965   3.962   5.830  19.176 -2.2076 -1.1410  0.9484
 4924TIP3   OH238966   4.841   3.330  18.464  1.0882 -0.4411  0.4438
 4924TIP3    H138967   4.747   3.323  18.477  0.6744  0.5431 -1.6177
 4924TIP3    H238968   4.865   3.249  18.418  1.0689 -0.2620  0.1161
 4925TIP3   OH238969   2.085   2.238  18.166  0.0965  0.4174 -0.3566
 4925TIP3    H138970   2.042   2.216  18.083  1.3808 -1.2284 -0.6450
 4925TIP3    H238971   2.056   2.170  18.227  0.0406  0.9706  0.2466
 4926TIP3   OH238972   5.428   2.680  18.500 -0.2035 -0.7470 -0.5017
 4926TIP3    H138973   5.496   2.655  18.563 -1.4036  0.3127  1.3028
 4926TIP3    H238974   5.466   2.753  18.452  0.1037 -0.4597  0.1641
 4927TIP3   OH238975   1.399   5.524  18.695 -0.8683 -0.2428 -0.3689
 4927TIP3    H138976   1.306   5.546  18.697 -0.7995  0.1377 -1.1005
 4927TIP3    H238977   1.402   5.430  18.709 -1.4021 -0.3477 -0.9577
 4928TIP3   OH238978   1.048   6.590  19.226  0.1482 -0.1885 -0.5326
 4928TIP3    H138979   1.140   6.573  19.205  0.9891  0.9951  1.7480
 4928TIP3    H238980   1.046   6.683  19.248 -1.0325 -0.6794  1.8051
 4929TIP3   OH238981   1.124   0.005  18.643  0.2388  0.0202  0.0977
 4929TIP3    H138982   1.127  -0.025  18.553  0.4266  1.4634 -0.4056
 4929TIP3    H238983   1.031   0.005  18.665  0.2866 -1.7931  0.4541
 4930TIP3   OH238984   2.170   3.513  17.714  0.3651 -0.7588 -0.2380
 4930TIP3    H138985   2.240   3.578  17.708  1.8919 -2.4320 -2.1883
 4930TIP3    H238986   2.113   3.532  17.640  0.6744 -1.4449 -0.6644
 4931TIP3   OH238987   0.675   3.991  18.151 -0.5137 -0.1023  0.0060
 4931TIP3    H138988   0.602   4.030  18.199 -1.0244 -0.6436 -0.3039
 4931TIP3    H238989   0.663   3.896  18.161 -0.2550 -0.2130 -0.6255
 4932TIP3   OH238990   4.860   7.505  17.328  0.3056  0.7203 -0.4208
 4932TIP3    H138991   4.858   7.599  17.307 -0.6368  0.6220 -0.7894
 4932TIP3    H238992   4.774   7.487  17.365 -0.0378 -0.2999 -1.6493
 4933TIP3   OH238993   3.181   5.477  17.031  0.3412 -0.0410  0.0426
 4933TIP3    H138994   3.121   5.528  16.976 -1.5965 -0.8676  1.2753
 4933TIP3    H238995   3.210   5.538  17.098  0.1617  0.1203 -0.0251
 4934TIP3   OH238996   0.461   3.414  16.921  0.5986  0.1492 -0.4785
 4934TIP3    H138997   0.530   3.347  16.918  0.4036 -0.1005  0.1950
 4934TIP3    H238998   0.491   3.475  16.989  0.0537 -0.0938 -0.0085
 4935TIP3   OH238999   4.240   5.055  18.509 -0.0861 -0.1234 -0.5918
 4935TIP3    H139000   4.281   5.113  18.573  1.8746 -0.9164 -1.0509
 4935TIP3    H239001   4.262   5.093  18.424  0.3044 -0.9272 -0.8609
 4936TIP3   OH239002   3.424   3.124  18.351  0.2488 -0.0010 -0.4038
 4936TIP3    H139003   3.369   3.195  18.385  0.3262 -0.1148 -0.0367
 4936TIP3    H239004   3.361   3.060  18.317  0.2002  1.1418 -2.6224
 4937TIP3   OH239005   3.822   3.221  17.927 -0.5306  0.4321  0.2559
 4937TIP3    H139006   3.737   3.183  17.948 -1.0832  1.5466  0.0908
 4937TIP3    H239007   3.819   3.309  17.962  0.6544  0.4147  0.4508
 4938TIP3   OH239008   6.272   2.359  18.416  0.0397  0.4777 -0.0545
 4938TIP3    H139009   6.310   2.310  18.489  1.6515  0.2941 -0.9489
 4938TIP3    H239010   6.233   2.292  18.360  4.0693 -0.3193 -2.3708
 4939TIP3   OH239011   4.642   3.165  16.892 -0.0247 -0.5482 -0.1592
 4939TIP3    H139012   4.670   3.210  16.971 -0.0653 -0.1905 -0.3460
 4939TIP3    H239013   4.712   3.103  16.873 -0.7795 -1.8491  1.1024
 4940TIP3   OH239014   7.058   0.764  18.252  0.4907  0.2199  0.1256
 4940TIP3    H139015   7.101   0.818  18.186  2.5139 -0.2064  1.0134
 4940TIP3    H239016   7.007   0.826  18.304  0.9533  0.9528 -0.2741
 4941TIP3   OH239017   4.182   1.855  17.091  0.2269  0.0323  0.3629
 4941TIP3    H139018   4.137   1.896  17.016  1.1523  1.8622  0.7518
 4941TIP3    H239019   4.128   1.780  17.113 -1.0101  0.4546 -1.0644
 4942TIP3   OH239020   3.762   5.011  19.107 -0.5668  0.2851  0.2802
 4942TIP3    H139021   3.782   5.037  19.197 -0.4233 -0.0959  0.3592
 4942TIP3    H239022   3.838   4.960  19.079 -0.5693  0.4835 -0.0912
 4943TIP3   OH239023   5.374   5.430  18.779 -0.0614 -0.4421  0.1436
 4943TIP3    H139024   5.456   5.467  18.747  0.4940 -1.9485 -0.2568
 4943TIP3    H239025   5.385   5.335  18.769 -1.2941 -0.7487  1.4410
 4944TIP3   OH239026   2.750   7.129  17.769  0.0500 -0.0071  0.1854
 4944TIP3    H139027   2.811   7.073  17.722 -0.9688  0.4952 -1.8734
 4944TIP3    H239028   2.673   7.074  17.783  0.9235 -0.6862  2.8963
 4945TIP3   OH239029   6.734   6.830  17.911 -0.1232 -0.3612 -0.6614
 4945TIP3    H139030   6.827   6.807  17.903  0.3577  1.3483 -0.4304
 4945TIP3    H239031   6.726   6.914  17.864 -1.3016  0.1029  0.3180
 4946TIP3   OH239032   1.777   5.543  18.374 -0.1529  0.2532  0.1834
 4946TIP3    H139033   1.740   5.456  18.384 -0.3431  0.2345 -0.6221
 4946TIP3    H239034   1.838   5.536  18.300 -0.7545  0.9718 -0.4069
 4947TIP3   OH239035   3.210   0.162  19.108 -0.8133  0.2427 -0.8167
 4947TIP3    H139036   3.135   0.105  19.094  0.2504 -0.9025 -2.0749
 4947TIP3    H239037   3.268   0.144  19.035  0.5344  1.3773 -0.0729
 4948TIP3   OH239038   7.016   1.312  16.644 -0.3673 -0.3943  0.4439
 4948TIP3    H139039   7.003   1.269  16.728  0.4199  0.5162  1.0574
 4948TIP3    H239040   7.108   1.341  16.646 -1.0895  2.1496  0.4905
 4949TIP3   OH239041   2.305   2.503  19.401 -0.8010 -0.0863 -0.7917
 4949TIP3    H139042   2.310   2.523  19.494  0.2425 -3.3875  0.0010
 4949TIP3    H239043   2.212   2.485  19.385 -0.7478 -1.4015  0.1587
 4950TIP3   OH239044   0.813   6.894  17.137  0.4916  0.0964  0.0403
 4950TIP3    H139045   0.881   6.954  17.167 -0.3775  1.7049 -1.0076
 4950TIP3    H239046   0.735   6.920  17.185  0.2042 -0.5405 -0.0676
 4951TIP3   OH239047   7.569   5.548  18.910  0.3515 -0.6438  0.3361
 4951TIP3    H139048   7.534   5.594  18.986  0.3817  1.8980 -1.0685
 4951TIP3    H239049   7.492   5.514  18.865  0.0157  0.8211 -0.2496
 4952TIP3   OH239050   3.118   3.009  19.326 -0.2878 -0.8971 -0.2850
 4952TIP3    H139051   3.040   3.037  19.374  0.8690  0.1588  1.0769
 4952TIP3    H239052   3.151   3.089  19.285  1.3936 -0.7891  1.1635
 4953TIP3   OH239053   1.314   5.058  19.221  0.2862  0.4577  0.1432
 4953TIP3    H139054   1.388   5.111  19.249  0.4935  1.5115 -2.1435
 4953TIP3    H239055   1.327   5.046  19.127 -2.3865  0.6214 -0.3373
 4954TIP3   OH239056   6.985   5.290  16.737  0.2219 -0.4749  0.3236
 4954TIP3    H139057   7.052   5.223  16.746  0.9486 -0.0174 -1.3362
 4954TIP3    H239058   6.906   5.242  16.712  0.3804 -0.8428  0.5321
 4955TIP3   OH239059   5.704   6.252  18.236  0.7256 -0.7868 -0.1311
 4955TIP3    H139060   5.608   6.251  18.243  0.7466 -0.7939  0.2065
 4955TIP3    H239061   5.722   6.320  18.171  0.4974 -0.6469 -0.0521
 4956TIP3   OH239062   4.302   2.513  17.010 -0.5616 -0.6365 -0.1114
 4956TIP3    H139063   4.273   2.603  16.995  1.6881  0.3333  0.8759
 4956TIP3    H239064   4.224   2.459  16.992 -1.9568  1.4714 -0.7706
 4957TIP3   OH239065   2.036   6.862  17.749 -0.2407  0.1026 -0.8210
 4957TIP3    H139066   2.043   6.826  17.837  2.5539 -0.8570 -1.3379
 4957TIP3    H239067   1.986   6.797  17.700 -0.5304 -0.0765 -0.2951
 4958TIP3   OH239068   5.697   4.394  17.295 -0.3959 -0.5701  0.0132
 4958TIP3    H139069   5.783   4.411  17.257 -0.5696 -0.2582 -0.2442
 4958TIP3    H239070   5.650   4.477  17.285 -1.0454 -1.0091 -0.7005
 4959TIP3   OH239071   3.728   6.169  17.536 -0.3925  0.2525 -0.2725
 4959TIP3    H139072   3.692   6.151  17.449  1.2499 -0.8825 -0.7570
 4959TIP3    H239073   3.775   6.252  17.525 -0.0853  0.0493 -0.5008
 4960TIP3   OH239074   3.493   6.690  18.816 -0.0568 -0.2760 -0.4654
 4960TIP3    H139075   3.408   6.666  18.777  0.6861 -1.6535 -1.3052
 4960TIP3    H239076   3.553   6.623  18.786  1.4800  0.9819 -0.3149
 4961TIP3   OH239077   1.601   2.538  17.221  0.1362 -0.2672 -0.0921
 4961TIP3    H139078   1.548   2.616  17.238  0.6760  0.3420 -1.1174
 4961TIP3    H239079   1.683   2.572  17.185 -1.1495 -1.3751 -4.7352
 4962TIP3   OH239080   0.006   4.545  18.639  0.1593 -0.2065  0.8571
 4962TIP3    H139081  -0.031   4.508  18.559  0.7051 -0.6588  0.8069
 4962TIP3    H239082   0.006   4.472  18.701  1.2079 -0.2933  0.7722
 4963TIP3   OH239083   6.936   1.009  17.700 -0.3223 -0.6112  0.1722
 4963TIP3    H139084   7.022   1.043  17.723 -1.4074  1.0542  2.1676
 4963TIP3    H239085   6.926   0.929  17.752 -0.9487  0.6462  2.1010
 4964TIP3   OH239086   4.272   5.195  18.268  0.6336 -0.2856 -0.0374
 4964TIP3    H139087   4.202   5.260  18.265  1.3777  0.5448  0.2267
 4964TIP3    H239088   4.296   5.181  18.176  1.5763  1.0616 -0.0301
 4965TIP3   OH239089   0.989   4.039  18.209  0.3441  0.4824 -0.3173
 4965TIP3    H139090   1.005   4.130  18.233 -0.6136  0.7084 -0.4897
 4965TIP3    H239091   0.895   4.036  18.189  0.4960 -0.3971 -0.9472
 4966TIP3   OH239092   5.838   6.284  17.312 -0.4789 -0.0308  0.1223
 4966TIP3    H139093   5.813   6.197  17.343  0.6979  0.6085  3.2845
 4966TIP3    H239094   5.924   6.271  17.272 -0.0486 -0.3099  1.0850
 4967TIP3   OH239095   6.589   1.046  18.042 -0.2287  0.0064  0.1278
 4967TIP3    H139096   6.540   1.083  18.116 -0.0661 -0.1897  0.3325
 4967TIP3    H239097   6.555   0.957  18.033 -0.8363  0.2953 -0.5578
 4968TIP3   OH239098   2.931   0.815  17.999  0.1291  0.1892  0.0541
 4968TIP3    H139099   2.874   0.755  17.950  0.3867  0.1203 -0.1683
 4968TIP3    H239100   3.009   0.824  17.944 -0.0027  0.9145 -0.0266
 4969TIP3   OH239101   4.145   1.237  17.714  0.4692 -0.8834  0.6435
 4969TIP3    H139102   4.089   1.287  17.774 -0.2006 -0.8642  0.0168
 4969TIP3    H239103   4.225   1.222  17.764 -0.3299 -1.4696  1.8083
 4970TIP3   OH239104   6.369   2.671  17.040  0.3107 -0.9067 -0.3515
 4970TIP3    H139105   6.293   2.664  17.098  1.2148 -0.3329  0.9586
 4970TIP3    H239106   6.444   2.655  17.097  1.2808  0.3837 -1.2150
 4971TIP3   OH239107   4.063   2.964  17.122  0.2060  0.0484  0.1630
 4971TIP3    H139108   4.089   3.009  17.042 -0.9063 -1.5960 -1.2032
 4971TIP3    H239109   4.139   2.912  17.146  0.4434  0.3259  0.0240
 4972TIP3   OH239110   0.919   5.014  17.216 -0.4642 -0.5487  0.2188
 4972TIP3    H139111   0.887   4.976  17.297 -2.5188  2.8265  1.1758
 4972TIP3    H239112   0.860   4.980  17.148 -0.2201 -1.4985  0.4565
 4973TIP3   OH239113   0.778   1.614  17.951  0.5138 -0.1059 -0.4216
 4973TIP3    H139114   0.721   1.651  18.019 -1.8866 -1.5865 -1.4758
 4973TIP3    H239115   0.807   1.530  17.987  1.1130  0.1307 -0.3476
 4974TIP3   OH239116   1.435   3.918  17.316  0.9178 -0.1373  0.4953
 4974TIP3    H139117   1.523   3.951  17.298  0.3140  1.3566  0.1228
 4974TIP3    H239118   1.393   3.988  17.367  0.4588 -1.5281  2.1227
 4975TIP3   OH239119   2.055   0.212  16.550  0.2330 -0.1038  0.1968
 4975TIP3    H139120   2.035   0.254  16.467 -0.7881  1.5091  1.1925
 4975TIP3    H239121   2.138   0.252  16.577 -0.1957  0.5314  0.6298
 4976TIP3   OH239122   7.516   6.391  17.891 -0.0462  0.4385  0.1227
 4976TIP3    H139123   7.577   6.362  17.959  1.8460  1.3369 -1.1272
 4976TIP3    H239124   7.558   6.367  17.809 -1.1451  1.5508 -0.8003
 4977TIP3   OH239125   7.248   1.079  18.578 -0.0581 -0.2566 -0.4684
 4977TIP3    H139126   7.244   1.106  18.486 -0.6804  0.5858 -0.2086
 4977TIP3    H239127   7.174   1.020  18.589 -0.3129  0.0767 -0.3786
 4978TIP3   OH239128   5.917   5.881  19.106 -0.4958 -0.1901  0.3441
 4978TIP3    H139129   5.848   5.925  19.055 -0.6387  0.6725  1.2551
 4978TIP3    H239130   5.869   5.827  19.168 -0.3556  0.2289  0.8220
 4979TIP3   OH239131   4.415   2.931  17.380  0.4650  0.1714 -0.5834
 4979TIP3    H139132   4.447   2.969  17.462 -0.3571  1.4486 -0.8278
 4979TIP3    H239133   4.340   2.878  17.406  0.9708 -0.4553 -0.3697
 4980TIP3   OH239134   5.980   5.301  17.261  0.3122 -0.1124 -0.2718
 4980TIP3    H139135   5.887   5.301  17.282  0.3486  2.3679  0.2992
 4980TIP3    H239136   5.984   5.330  17.170  0.5026  2.6045  0.4923
 4981TIP3   OH239137   1.001   2.206  18.945 -0.1503  0.5972 -0.2202
 4981TIP3    H139138   1.003   2.268  18.872  1.4653  1.7530  0.7440
 4981TIP3    H239139   1.054   2.132  18.914 -0.5370  0.5077 -0.6815
 4982TIP3   OH239140   6.649   3.392  18.811 -0.6852  0.0354  0.1045
 4982TIP3    H139141   6.683   3.345  18.735  1.4852 -0.1545  1.1115
 4982TIP3    H239142   6.657   3.330  18.883  1.9327  1.7002  1.4041
 4983TIP3   OH239143   3.263   5.086  18.300  0.2275 -0.3841 -0.8026
 4983TIP3    H139144   3.215   5.168  18.308  0.3185 -0.4665  1.2547
 4983TIP3    H239145   3.196   5.018  18.310  0.4554 -0.5222 -0.1765
 4984TIP3   OH239146   4.665   6.385  17.491  0.2004  0.1622  0.4112
 4984TIP3    H139147   4.621   6.345  17.416 -1.4145 -1.9207  2.3117
 4984TIP3    H239148   4.751   6.343  17.493  0.0702 -0.1321 -0.0288
 4985TIP3   OH239149   0.951   7.569  17.879 -0.2423 -0.1012  0.3249
 4985TIP3    H139150   0.936   7.609  17.965 -0.9295 -0.7612  0.5212
 4985TIP3    H239151   1.032   7.519  17.889 -0.5888 -0.5825  0.7398
 4986TIP3   OH239152   1.941   0.638  17.783 -0.0029  0.3658  0.8632
 4986TIP3    H139153   1.887   0.595  17.849 -0.4016  0.4378  0.5817
 4986TIP3    H239154   2.015   0.578  17.770 -1.6730 -1.4355 -1.2025
 4987TIP3   OH239155   0.040   0.404  17.451 -0.5391 -0.4754  0.0292
 4987TIP3    H139156   0.029   0.470  17.382  0.4272 -0.6859 -0.3407
 4987TIP3    H239157   0.032   0.320  17.406 -0.7314 -0.6110  0.3174
 4988TIP3   OH239158   4.000   5.212  18.597 -0.5484 -0.8170 -0.3704
 4988TIP3    H139159   3.989   5.229  18.691  0.9192 -0.7188 -0.1899
 4988TIP3    H239160   4.071   5.148  18.593  1.3860  1.2796 -1.5019
 4989TIP3   OH239161   4.823   5.092  17.446 -0.5500 -0.3975  0.1398
 4989TIP3    H139162   4.858   5.003  17.455 -2.4246 -0.9977  2.7597
 4989TIP3    H239163   4.753   5.084  17.381 -0.0481 -0.5800 -0.3890
 4990TIP3   OH239164   2.274   0.672  17.067  0.0248  0.5635  0.3543
 4990TIP3    H139165   2.198   0.730  17.077  0.0213  0.6738 -0.2539
 4990TIP3    H239166   2.262   0.632  16.981  0.5526  0.4285  0.3414
 4991TIP3   OH239167   0.495   3.000  17.413 -0.3333 -0.3709 -0.3269
 4991TIP3    H139168   0.576   3.031  17.371 -0.5718 -0.1377 -0.6123
 4991TIP3    H239169   0.425   3.032  17.357 -0.5567 -2.8077 -1.5427
 4992TIP3   OH239170   5.520   1.641  17.189  0.6458  0.2277  0.0713
 4992TIP3    H139171   5.567   1.587  17.126 -0.5357 -1.1368  0.3017
 4992TIP3    H239172   5.497   1.720  17.141  2.5469  0.6260 -0.2334
 4993TIP3   OH239173   6.563   5.637  17.696 -0.0870 -0.9023  0.6594
 4993TIP3    H139174   6.529   5.603  17.779 -0.2647 -0.0899  0.9300
 4993TIP3    H239175   6.485   5.661  17.646  0.0146  1.5031  1.5112
 4994TIP3   OH239176   0.842   6.458  19.380  0.1866  0.0410  0.5398
 4994TIP3    H139177   0.812   6.532  19.433 -1.2376  0.7292 -1.0934
 4994TIP3    H239178   0.905   6.497  19.319 -1.0201  0.0996 -0.7306
 4995TIP3   OH239179   1.822   5.430  17.966 -0.1320  0.3482 -0.1335
 4995TIP3    H139180   1.860   5.377  18.036  0.2399  0.2736 -0.3904
 4995TIP3    H239181   1.871   5.405  17.887 -1.1939 -0.2938 -0.6156
 4996TIP3   OH239182   0.448   3.473  17.270  0.4525 -0.5340  0.4264
 4996TIP3    H139183   0.483   3.545  17.218 -0.6904  0.9258  1.5853
 4996TIP3    H239184   0.499   3.397  17.243  0.7397  0.3962 -1.8847
 4997TIP3   OH239185   7.481   4.016  18.914 -0.0775  0.1724 -0.7842
 4997TIP3    H139186   7.413   4.073  18.950  0.3638  1.0935 -1.3391
 4997TIP3    H239187   7.436   3.961  18.850 -0.1022  1.8045 -2.2541
 4998TIP3   OH239188   1.621   6.622  19.183 -0.2629  0.3680  0.2114
 4998TIP3    H139189   1.579   6.652  19.263 -0.4167 -0.7923  0.5912
 4998TIP3    H239190   1.616   6.526  19.188 -0.9597  0.2811 -1.5541
 4999TIP3   OH239191   6.244   7.535  17.409  0.2372 -0.3156  0.0224
 4999TIP3    H139192   6.225   7.449  17.447 -0.6218 -0.6406 -1.1118
 4999TIP3    H239193   6.336   7.530  17.385  0.3453 -0.7105  0.4867
 5000TIP3   OH239194   2.478   3.251  18.349 -0.1403  0.4189  0.1055
 5000TIP3    H139195   2.468   3.164  18.309  1.4344  0.7538 -1.1216
 5000TIP3    H239196   2.467   3.236  18.442  0.6502 -1.2282 -0.0310
 5001TIP3   OH239197   5.460   2.578  17.276 -0.5427 -0.1527  0.2681
 5001TIP3    H139198   5.547   2.615  17.263 -0.7158 -0.1332 -0.9919
 5001TIP3    H239199   5.410   2.607  17.200 -1.5219 -0.5590  0.7336
 5002TIP3   OH239200   4.123   2.775  19.288 -0.6255  0.1391 -0.0836
 5002TIP3    H139201   4.082   2.839  19.229 -0.0333 -0.8137 -1.5790
 5002TIP3    H239202   4.210   2.811  19.305 -0.2375 -0.3108 -1.0449
 5003TIP3   OH239203   6.501   1.644  16.461 -0.1357 -0.0252  0.1391
 5003TIP3    H139204   6.408   1.650  16.442 -0.1737  0.4744  0.4588
 5003TIP3    H239205   6.517   1.552  16.479 -0.4793 -0.1841 -0.3460
 5004TIP3   OH239206   3.164   7.601  18.885 -0.2272 -0.3142 -0.2958
 5004TIP3    H139207   3.103   7.630  18.954 -0.4467 -0.6242 -0.3559
 5004TIP3    H239208   3.221   7.676  18.870  1.0747 -0.8359  1.5789
 5005TIP3   OH239209   2.944   1.237  19.330 -0.4561 -0.1211  0.2308
 5005TIP3    H139210   2.952   1.188  19.248  0.4249  0.3413  0.0299
 5005TIP3    H239211   2.982   1.179  19.396  1.0546  0.4672 -0.0882
 5006TIP3   OH239212   6.742   2.574  19.416  0.5817 -0.0395  0.1431
 5006TIP3    H139213   6.678   2.546  19.481  1.0368 -1.0350  0.1778
 5006TIP3    H239214   6.826   2.547  19.451  1.0070  0.9192 -0.0794
 5007TIP3   OH239215   7.291   3.265  18.997  0.5046 -0.2858 -0.4264
 5007TIP3    H139216   7.308   3.172  18.976 -0.6526 -0.7195  0.4631
 5007TIP3    H239217   7.225   3.262  19.066 -1.6521  1.2267 -2.2644
 5008TIP3   OH239218   2.226   7.070  17.630 -0.1910 -0.7644 -0.1432
 5008TIP3    H139219   2.204   7.146  17.576 -1.6554 -1.8385 -1.1112
 5008TIP3    H239220   2.145   7.051  17.678  0.9611 -0.0387  2.2884
 5009TIP3   OH239221   3.500   4.062  18.594 -0.1783 -0.1574  0.4287
 5009TIP3    H139222   3.423   4.078  18.539  0.4832 -0.9391 -0.7536
 5009TIP3    H239223   3.516   3.968  18.587  0.1759 -0.2003  1.6373
 5010TIP3   OH239224   0.335   6.936  18.816  0.0217  0.0006 -0.2172
 5010TIP3    H139225   0.417   6.898  18.845  0.1498  1.4383  1.4392
 5010TIP3    H239226   0.282   6.861  18.789  1.2956 -1.0770  0.1974
 5011TIP3   OH239227   6.784   3.015  17.225  0.8026 -0.1040  0.9527
 5011TIP3    H139228   6.695   2.983  17.236  0.5595 -0.2341 -0.9982
 5011TIP3    H239229   6.828   2.945  17.175  1.2721  1.0197 -0.2721
 5012TIP3   OH239230   5.978   6.141  16.620 -0.0938  0.2385 -0.0534
 5012TIP3    H139231   6.025   6.198  16.681 -1.0303  1.9301 -0.8515
 5012TIP3    H239232   6.022   6.154  16.536 -0.1612 -0.4489 -0.2068
 5013TIP3   OH239233   3.177   5.838  16.583  0.0994 -0.1156  0.4026
 5013TIP3    H139234   3.218   5.920  16.610 -1.4059  0.2628  1.6736
 5013TIP3    H239235   3.118   5.863  16.511  0.7205 -0.3435 -0.1914
 5014TIP3   OH239236   5.211   3.051  19.069  0.0729  0.0124 -0.2729
 5014TIP3    H139237   5.186   3.019  18.983  0.1207 -0.6494 -0.0468
 5014TIP3    H239238   5.285   3.110  19.053  1.8264 -2.1101 -0.4668
 5015TIP3   OH239239   7.284   5.081  18.581 -1.0048 -0.2055 -0.2425
 5015TIP3    H139240   7.251   5.140  18.513 -1.2483  1.3548  1.1880
 5015TIP3    H239241   7.379   5.095  18.581 -0.8699 -0.9976 -0.9417
 5016TIP3   OH239242   1.735   3.390  17.022  0.4335  0.2820  0.3173
 5016TIP3    H139243   1.733   3.419  16.931  0.2805  0.0782  0.2542
 5016TIP3    H239244   1.823   3.355  17.034  0.9117  1.5320  0.6341
 5017TIP3   OH239245   5.885   2.065  17.650  0.4388 -0.2276  0.1258
 5017TIP3    H139246   5.887   2.129  17.721 -0.2081 -0.8033  0.6772
 5017TIP3    H239247   5.974   2.028  17.649  0.7430  0.4996 -0.0356
 5018TIP3   OH239248   3.632   7.190  18.869 -0.4299  0.1440 -0.2509
 5018TIP3    H139249   3.703   7.199  18.805  0.6276 -0.1076  0.8548
 5018TIP3    H239250   3.598   7.101  18.854  0.3977 -0.2435  0.0985
 5019TIP3   OH239251   3.204   4.386  17.706 -0.1385  0.1193 -0.1663
 5019TIP3    H139252   3.264   4.318  17.738  0.0369 -0.3419 -1.4058
 5019TIP3    H239253   3.120   4.366  17.748 -0.0734 -0.8350 -0.4583
 5020TIP3   OH239254   2.974   4.413  18.488  0.2678  0.1250 -0.3499
 5020TIP3    H139255   3.035   4.347  18.520  0.4955 -0.3898 -1.7781
 5020TIP3    H239256   3.028   4.491  18.473  0.4297 -0.0802 -0.8425
 5021TIP3   OH239257   5.096   0.508  16.815  0.1186 -0.0416  0.0661
 5021TIP3    H139258   5.086   0.571  16.886  0.3821  0.2858 -0.1856
 5021TIP3    H239259   5.184   0.524  16.780 -0.1319  0.0215 -0.5516
 5022TIP3   OH239260   5.078   7.669  16.802 -0.3197 -0.5037 -0.0897
 5022TIP3    H139261   5.048   7.753  16.837  0.4597 -1.5151  3.4240
 5022TIP3    H239262   5.154   7.691  16.747 -0.4871  1.1334  0.3011
 5023TIP3   OH239263   3.108   3.889  19.044  0.0926 -0.1773 -0.5129
 5023TIP3    H139264   3.032   3.935  19.080 -0.0328  0.8603 -1.9947
 5023TIP3    H239265   3.181   3.949  19.059  0.2815 -0.3590 -0.7000
 5024TIP3   OH239266   0.307   3.747  17.080 -0.1291  0.2769 -0.1098
 5024TIP3    H139267   0.273   3.803  17.150 -1.1281  0.6506 -0.8880
 5024TIP3    H239268   0.314   3.804  17.004  1.4099 -0.0118 -0.2222
 5025TIP3   OH239269   6.741   4.383  16.829  0.0647 -0.0333 -0.5628
 5025TIP3    H139270   6.826   4.390  16.873 -0.3370 -0.8461  0.3908
 5025TIP3    H239271   6.689   4.455  16.865  0.0026 -0.2011 -0.3117
 5026TIP3   OH239272   5.648   4.468  17.603  0.1307  0.0694  0.3436
 5026TIP3    H139273   5.577   4.469  17.668 -0.4079  0.0286 -0.2363
 5026TIP3    H239274   5.624   4.398  17.542  2.2561 -2.1351  1.8377
 5027TIP3   OH239275   4.277   6.248  18.783 -0.3261  0.4797 -0.4220
 5027TIP3    H139276   4.206   6.308  18.758 -1.3856 -0.9263 -0.8923
 5027TIP3    H239277   4.352   6.277  18.731 -0.8811  1.2410 -0.8250
 5028TIP3   OH239278   0.332   6.068  17.589 -0.0469  0.3786 -0.5051
 5028TIP3    H139279   0.311   6.090  17.498 -1.1573  1.0478 -0.1091
 5028TIP3    H239280   0.264   6.006  17.615 -0.0486  0.5992  0.0311
 5029TIP3   OH239281   7.511   4.745  17.143  0.2599  0.1494 -0.1249
 5029TIP3    H139282   7.606   4.752  17.154  0.3940 -2.6955  1.6727
 5029TIP3    H239283   7.482   4.699  17.222 -2.3828 -0.5302 -1.3924
 5030TIP3   OH239284   6.687   6.514  16.407  0.2784  0.0545 -0.2126
 5030TIP3    H139285   6.593   6.511  16.394 -0.0634 -1.8084  2.0652
 5030TIP3    H239286   6.699   6.569  16.485  1.0807  0.3058 -0.4987
 5031TIP3   OH239287   6.835   2.389  19.172 -0.2443 -0.1768  0.1737
 5031TIP3    H139288   6.787   2.346  19.101 -0.5794  1.4830 -0.6586
 5031TIP3    H239289   6.783   2.466  19.193  0.8749  0.4187  0.8678
 5032TIP3   OH239290   3.847   4.655  17.471  0.7074 -0.0906  0.5026
 5032TIP3    H139291   3.813   4.570  17.441  0.2814 -0.5259  2.1472
 5032TIP3    H239292   3.771   4.701  17.505  1.3939 -0.3662  2.5807
 5033TIP3   OH239293   4.331   3.511  18.186  0.6886  0.4194 -0.7513
 5033TIP3    H139294   4.359   3.528  18.276  1.3258  1.2933 -1.1003
 5033TIP3    H239295   4.374   3.429  18.163 -1.1556 -0.9667  0.4222
 5034TIP3   OH239296   4.533   5.594  17.226  0.4086 -0.0463  1.0273
 5034TIP3    H139297   4.528   5.500  17.209 -1.3887  0.0843  0.7217
 5034TIP3    H239298   4.505   5.604  17.316  1.5215  0.1408  1.3754
 5035TIP3   OH239299   6.663   1.293  18.324 -0.5833  0.3071  0.1944
 5035TIP3    H139300   6.685   1.369  18.271 -0.6931  0.7486  0.7736
 5035TIP3    H239301   6.696   1.218  18.274  0.3729  0.8070  0.0590
 5036TIP3   OH239302   4.141   6.106  19.034 -0.2059 -0.4005  0.0701
 5036TIP3    H139303   4.167   6.061  18.953 -0.5493  0.5936 -0.6114
 5036TIP3    H239304   4.079   6.046  19.076 -1.2827 -0.2384 -1.2325
 5037TIP3   OH239305   2.401   7.304  17.965  0.0554  0.1996  0.5410
 5037TIP3    H139306   2.459   7.370  17.928 -0.5421  0.2002 -0.4343
 5037TIP3    H239307   2.385   7.243  17.893 -0.1835 -0.4655  1.1437
 5038TIP3   OH239308   6.354   6.210  17.761 -0.4045  0.3150 -0.5352
 5038TIP3    H139309   6.260   6.195  17.761 -0.2867 -0.8593 -2.8435
 5038TIP3    H239310   6.391   6.137  17.811 -0.6530  0.2885 -0.3900
 5039TIP3   OH239311   0.923   5.499  19.061 -0.3357 -0.3025 -0.2028
 5039TIP3    H139312   0.836   5.480  19.025 -0.1451 -0.4019 -0.6117
 5039TIP3    H239313   0.962   5.412  19.074  0.1448 -0.2291 -1.1070
 5040TIP3   OH239314   1.132   0.593  18.529 -1.0969  0.1918  0.2007
 5040TIP3    H139315   1.109   0.531  18.598 -2.8468 -0.4775 -0.9111
 5040TIP3    H239316   1.225   0.577  18.513 -0.9817 -0.5504  1.4815
 5041TIP3   OH239317   5.264   3.578  17.257 -0.3584 -0.1641 -0.1210
 5041TIP3    H139318   5.291   3.604  17.169 -1.2667 -0.9294 -0.6502
 5041TIP3    H239319   5.264   3.483  17.255 -2.7097 -0.2166 -0.0731
 5042TIP3   OH239320   4.502   7.651  18.465 -0.1272  0.3373 -0.1051
 5042TIP3    H139321   4.452   7.570  18.467  0.9260 -0.3416 -0.0218
 5042TIP3    H239322   4.513   7.670  18.372 -0.7772  0.6524 -0.1202
 5043TIP3   OH239323   5.588   3.138  18.354 -0.2255 -0.6481 -0.0876
 5043TIP3    H139324   5.597   3.140  18.258 -1.7430 -2.1237 -0.3137
 5043TIP3    H239325   5.547   3.222  18.375  0.6267 -0.0690 -0.6446
 5044TIP3   OH239326   5.939   5.243  19.029 -0.6208 -0.2239  0.0490
 5044TIP3    H139327   6.016   5.236  18.972 -1.3106  1.1321 -1.1165
 5044TIP3    H239328   5.963   5.312  19.091  0.5542 -2.4101  2.2287
 5045TIP3   OH239329   4.418   6.322  18.570  0.1145 -0.0757  0.4846
 5045TIP3    H139330   4.496   6.374  18.550 -0.5694  1.7918  2.2802
 5045TIP3    H239331   4.362   6.333  18.493  1.2363 -0.7157 -0.4452
 5046TIP3   OH239332   0.822   3.775  17.554  0.8118 -0.5680  0.2171
 5046TIP3    H139333   0.822   3.800  17.461  1.9338  2.1277  0.8574
 5046TIP3    H239334   0.814   3.679  17.552 -1.0722 -0.4801 -2.5683
 5047TIP3   OH239335   3.635   1.075  18.407 -0.4156 -0.0182  0.1074
 5047TIP3    H139336   3.658   1.166  18.425  2.0156 -0.4828 -0.2223
 5047TIP3    H239337   3.638   1.032  18.493  0.8609 -0.2038  0.0029
 5048TIP3   OH239338   4.699   7.255  18.543 -0.0729  0.3690  0.2325
 5048TIP3    H139339   4.617   7.213  18.517  0.7331 -1.5028  0.5475
 5048TIP3    H239340   4.727   7.304  18.466 -0.5447 -0.5257 -0.5208
 5049TIP3   OH239341   4.331   2.437  18.350  0.2989 -0.3322  0.4718
 5049TIP3    H139342   4.280   2.503  18.396 -0.8740 -1.6404  1.1414
 5049TIP3    H239343   4.266   2.384  18.303  1.4148  0.9775 -2.8864
 5050TIP3   OH239344   1.429   0.445  18.857 -0.6426  0.1337 -0.0697
 5050TIP3    H139345   1.384   0.369  18.821  0.4975 -0.2503 -0.7618
 5050TIP3    H239346   1.515   0.412  18.883 -0.3506  1.0616  0.2034
 5051TIP3   OH239347   6.707   7.649  18.339  0.1465  0.0425  0.0027
 5051TIP3    H139348   6.646   7.604  18.281 -0.2382  1.0591 -0.4107
 5051TIP3    H239349   6.793   7.613  18.316 -0.0971 -0.1325 -0.6476
 5052TIP3   OH239350   6.533   4.381  19.030  0.3137 -0.1322 -0.1161
 5052TIP3    H139351   6.611   4.386  19.085  0.4199 -1.9108 -0.0617
 5052TIP3    H239352   6.474   4.448  19.065  1.1756  0.1357  0.8558
 5053TIP3   OH239353   1.065   5.026  18.295  0.1274  0.0499  0.0994
 5053TIP3    H139354   1.044   5.083  18.369 -1.0296 -0.1744 -0.0342
 5053TIP3    H239355   1.022   5.067  18.220 -1.5604 -1.4497  0.1675
 5054TIP3   OH239356   6.757   5.265  17.444 -0.0758  0.4689  0.2579
 5054TIP3    H139357   6.836   5.224  17.407 -1.4113 -0.7883 -1.3390
 5054TIP3    H239358   6.746   5.221  17.529  1.1004  0.9155  0.6762
 5055TIP3   OH239359   0.822   4.414  17.914  0.3422  0.1631 -0.3633
 5055TIP3    H139360   0.796   4.447  18.000 -0.0368 -1.8472  0.3362
 5055TIP3    H239361   0.761   4.456  17.853 -1.9621 -1.2769  0.7972
 5056TIP3   OH239362   2.750   6.702  18.603  0.0349 -0.2093  0.4622
 5056TIP3    H139363   2.749   6.797  18.600 -2.4231 -0.1262  1.5846
 5056TIP3    H239364   2.801   6.676  18.526 -0.8649  2.0003 -0.9831
 5057TIP3   OH239365   4.558   5.333  18.338  0.1975 -0.4905  0.2809
 5057TIP3    H139366   4.572   5.372  18.425 -2.1124 -3.9001  2.4193
 5057TIP3    H239367   4.472   5.365  18.312 -0.8663 -2.4369  1.1824
 5058TIP3   OH239368   0.726   6.495  16.889  0.3544 -0.0422 -0.1625
 5058TIP3    H139369   0.648   6.475  16.837  0.2390  0.5291 -0.2119
 5058TIP3    H239370   0.788   6.425  16.866  0.6552  0.7171 -1.8171
 5059TIP3   OH239371   1.010   7.183  17.542  0.1303  0.2098 -0.1523
 5059TIP3    H139372   1.053   7.268  17.536  1.1767 -0.3681 -1.1887
 5059TIP3    H239373   1.081   7.121  17.556 -0.6062 -0.5201  0.4779
 5060TIP3   OH239374   1.924   3.386  18.081  0.0113 -0.3589  0.0417
 5060TIP3    H139375   1.907   3.303  18.037 -0.3857 -0.4006  0.2671
 5060TIP3    H239376   1.969   3.361  18.162 -0.4177 -0.3824  0.2750
 5061TIP3   OH239377   4.385   1.730  18.330 -0.0626  0.2723  0.4565
 5061TIP3    H139378   4.408   1.778  18.251  0.9648  0.3252  0.7825
 5061TIP3    H239379   4.302   1.687  18.308  0.2392  0.2309 -0.6666
 5062TIP3   OH239380   1.860   6.239  19.112  0.0802 -0.2353  0.1362
 5062TIP3    H139381   1.920   6.199  19.049  0.9171  0.6065  0.3761
 5062TIP3    H239382   1.865   6.333  19.095  1.5870  0.1975  2.4934
 5063TIP3   OH239383   6.639   5.621  18.857  0.4055 -0.1230 -0.2462
 5063TIP3    H139384   6.658   5.671  18.778 -0.4955 -1.3032 -1.2522
 5063TIP3    H239385   6.556   5.656  18.889  1.8976  2.0037  1.6240
 5064TIP3   OH239386   7.107   3.047  17.441 -0.1021 -0.6365  0.0902
 5064TIP3    H139387   7.048   3.120  17.457  0.3403 -0.6404  1.8814
 5064TIP3    H239388   7.167   3.047  17.515  0.6946 -2.0592 -0.5057
 5065TIP3   OH239389   2.259   0.806  17.759 -0.1740  0.0211 -0.2667
 5065TIP3    H139390   2.299   0.799  17.672 -0.6078  0.6671 -0.5324
 5065TIP3    H239391   2.219   0.893  17.759 -0.5927 -0.1669  0.4078
 5066TIP3   OH239392   2.306   2.461  18.934 -0.5613 -0.4048 -0.5932
 5066TIP3    H139393   2.249   2.535  18.955  1.0873  0.6016  0.5875
 5066TIP3    H239394   2.356   2.491  18.858 -0.6812 -0.7657 -0.8158
 5067TIP3   OH239395   0.311   0.913  17.816  0.6199  0.4539  0.2687
 5067TIP3    H139396   0.223   0.881  17.834  0.5552 -0.1557 -0.9951
 5067TIP3    H239397   0.302   0.961  17.733  1.5732 -0.1477 -0.2052
 5068TIP3   OH239398   5.885   6.122  18.707 -0.5744 -0.3481  0.0888
 5068TIP3    H139399   5.860   6.150  18.619  1.1211  0.2205 -0.2391
 5068TIP3    H239400   5.954   6.058  18.694 -0.1036 -0.0460  1.0141
 5069TIP3   OH239401   5.900   3.339  17.865 -0.4082  0.3944 -0.1526
 5069TIP3    H139402   5.852   3.284  17.927 -2.4173 -0.2761 -2.1224
 5069TIP3    H239403   5.975   3.286  17.838 -1.4393 -0.7765 -0.8297
 5070TIP3   OH239404   3.372   5.839  17.522 -0.1667  0.0671 -0.3611
 5070TIP3    H139405   3.425   5.893  17.581  0.1295 -1.9715  1.4092
 5070TIP3    H239406   3.295   5.892  17.503  0.7484  1.6296  0.1045
 5071TIP3   OH239407   7.550   1.289  18.487 -0.1642  0.1042 -0.5431
 5071TIP3    H139408   7.499   1.324  18.560  0.6560  0.3189 -0.0640
 5071TIP3    H239409   7.519   1.338  18.411 -0.2279  0.6854 -0.1519
 5072TIP3   OH239410   2.574   2.463  18.995  0.0155  0.0417 -0.2492
 5072TIP3    H139411   2.485   2.500  19.004 -0.5319 -0.8268 -1.8200
 5072TIP3    H239412   2.560   2.372  18.973  1.2513  0.3948 -2.7509
 5073TIP3   OH239413   0.827   5.357  18.266  0.4273 -0.5982 -0.4305
 5073TIP3    H139414   0.757   5.414  18.300 -1.2960 -0.7059 -3.4399
 5073TIP3    H239415   0.881   5.415  18.213  1.2233 -0.9878 -0.0572
 5074TIP3   OH239416   6.053   1.970  18.939  0.3335  0.3994 -0.3722
 5074TIP3    H139417   6.077   1.909  18.869 -2.1164 -1.9866  0.6742
 5074TIP3    H239418   5.958   1.979  18.931  0.4153  2.7740  0.6181
 5075TIP3   OH239419   0.619   6.817  17.386 -0.3365 -0.4639  0.3590
 5075TIP3    H139420   0.537   6.866  17.394 -0.8121 -1.0442 -0.8098
 5075TIP3    H239421   0.684   6.872  17.430 -0.4826  2.1321 -2.4133
 5076TIP3   OH239422   5.703   7.363  17.298 -0.2602  0.0420  0.2770
 5076TIP3    H139423   5.690   7.285  17.244 -2.5699  1.7408 -1.8715
 5076TIP3    H239424   5.659   7.342  17.381 -1.1235 -0.8338 -0.3773
 5077TIP3   OH239425   1.543   4.314  17.958 -0.2066  0.0253  0.2522
 5077TIP3    H139426   1.622   4.340  17.911  0.7350 -1.0018  1.2062
 5077TIP3    H239427   1.557   4.222  17.979 -1.2309  0.0827  1.2738
 5078TIP3   OH239428   0.136   3.540  16.922  0.1964  0.3574 -0.0047
 5078TIP3    H139429   0.144   3.453  16.962 -0.2840  0.3676  0.1165
 5078TIP3    H239430   0.222   3.581  16.936  0.3334  0.0093  0.1863
 5079TIP3   OH239431   3.761   5.824  18.933 -0.6078  0.2427  0.2706
 5079TIP3    H139432   3.668   5.813  18.953 -0.4679 -1.3449  0.1717
 5079TIP3    H239433   3.771   5.789  18.845  0.2888 -0.7969  0.7590
 5080TIP3   OH239434   3.685   6.262  17.269  0.4613 -0.5361 -0.4414
 5080TIP3    H139435   3.673   6.226  17.181 -1.2975 -1.0919 -0.0026
 5080TIP3    H239436   3.765   6.220  17.301  1.2947 -0.1042 -1.8676
 5081TIP3   OH239437   7.331   2.456  17.018  0.1856  0.2680  0.2311
 5081TIP3    H139438   7.236   2.458  17.025  0.1782  0.9306  0.0352
 5081TIP3    H239439   7.361   2.533  17.067  0.6237  0.0336  0.3401
 5082TIP3   OH239440   3.482   7.270  17.596 -0.0333 -0.2614 -0.3755
 5082TIP3    H139441   3.445   7.355  17.574 -0.1998  0.1566  1.4354
 5082TIP3    H239442   3.417   7.207  17.565 -1.7238  0.4213  1.6251
 5083TIP3   OH239443   3.490   1.676  17.954  0.2871 -0.2526  0.0663
 5083TIP3    H139444   3.545   1.639  17.886 -0.4427 -0.0028 -0.6750
 5083TIP3    H239445   3.551   1.700  18.024  0.8331 -2.4079  0.4023
 5084TIP3   OH239446   0.062   7.572  17.563 -0.0101 -0.0283 -0.0760
 5084TIP3    H139447   0.116   7.588  17.486  0.6585 -0.2587  0.3386
 5084TIP3    H239448  -0.008   7.515  17.531 -0.4098  0.8211 -0.7635
 5085TIP3   OH239449   3.458   0.760  18.273  0.0135 -0.0775 -0.4507
 5085TIP3    H139450   3.437   0.853  18.266 -0.6105 -0.1783  0.0008
 5085TIP3    H239451   3.401   0.717  18.208  1.3151 -0.0172 -1.6845
 5086TIP3   OH239452   2.657   5.661  18.169 -0.6422 -0.3106 -0.5090
 5086TIP3    H139453   2.590   5.726  18.189 -1.0836 -0.4503 -1.4860
 5086TIP3    H239454   2.646   5.594  18.236 -0.3793  0.4608  0.3295
 5087TIP3   OH239455   3.768   7.124  17.367 -0.1267 -0.5685  0.9520
 5087TIP3    H139456   3.850   7.076  17.354  0.6619  0.8575  0.4224
 5087TIP3    H239457   3.700   7.057  17.363  0.7784 -1.4332 -1.5952
 5088TIP3   OH239458   3.402   5.530  19.126 -0.0667 -0.4459 -0.0507
 5088TIP3    H139459   3.477   5.482  19.090 -0.5293 -0.8177 -0.5276
 5088TIP3    H239460   3.348   5.463  19.168 -0.6206 -0.3207 -0.5503
 5089TIP3   OH239461   4.169   4.420  18.564 -0.1287  0.0263 -0.6291
 5089TIP3    H139462   4.095   4.384  18.612 -1.3013  1.4805 -1.2715
 5089TIP3    H239463   4.139   4.506  18.533  1.9890  0.8817 -0.5070
 5090TIP3   OH239464   7.671   2.173  16.757 -0.5239  0.1969  0.3061
 5090TIP3    H139465   7.650   2.148  16.667 -1.3891 -0.7329  0.7432
 5090TIP3    H239466   7.759   2.209  16.752 -0.5833  0.2129 -0.9245
 5091TIP3   OH239467   3.363   7.251  17.859 -0.4315 -0.4463 -0.5394
 5091TIP3    H139468   3.296   7.319  17.849  1.3963  1.3410 -1.5860
 5091TIP3    H239469   3.424   7.268  17.786  3.1758  0.5005  2.4016
 5092TIP3   OH239470   0.174   3.761  18.356 -0.3786  0.6121  0.3404
 5092TIP3    H139471   0.207   3.849  18.374  0.2102  0.7280 -1.1378
 5092TIP3    H239472   0.169   3.757  18.260  0.6604 -1.3413  0.3336
 5093TIP3   OH239473   6.472   0.429  19.269 -0.3581 -0.1132  0.0296
 5093TIP3    H139474   6.410   0.358  19.255 -0.3315 -0.2773  0.7116
 5093TIP3    H239475   6.558   0.386  19.266 -0.3434 -0.1179  0.4690
 5094TIP3   OH239476   6.027   6.400  19.326  0.6488  0.5259 -0.2090
 5094TIP3    H139477   6.045   6.307  19.314 -2.9981 -0.1149 -2.0560
 5094TIP3    H239478   5.980   6.405  19.410  0.0105  0.5017 -0.5540
 5095TIP3   OH239479   3.031   4.557  19.121  0.2798  0.2629 -0.2186
 5095TIP3    H139480   3.013   4.555  19.215 -1.9165 -0.6008 -0.5933
 5095TIP3    H239481   3.011   4.647  19.095  1.1400  0.5745  0.1582
 5096TIP3   OH239482   2.732   3.119  18.755 -0.5552 -0.1503 -0.0715
 5096TIP3    H139483   2.641   3.106  18.780 -1.2888  2.4348 -1.1042
 5096TIP3    H239484   2.742   3.070  18.674 -1.4760  0.7172 -0.7295
 5097TIP3   OH239485   7.187   1.703  18.917 -0.0464  0.4250 -0.0578
 5097TIP3    H139486   7.177   1.772  18.982  1.6990  0.3503  0.3400
 5097TIP3    H239487   7.222   1.747  18.840  0.1938  0.1363 -0.1163
 5098TIP3   OH239488   3.408   4.691  18.934 -0.0574  0.1832 -0.3009
 5098TIP3    H139489   3.363   4.768  18.897  0.8599  0.8199 -0.1269
 5098TIP3    H239490   3.437   4.641  18.858 -1.2549 -0.3732 -0.4188
 5099TIP3   OH239491   3.583   3.625  17.449 -0.1127 -0.4913 -0.2592
 5099TIP3    H139492   3.564   3.684  17.522  0.9679 -0.8722  0.3493
 5099TIP3    H239493   3.669   3.589  17.469 -0.5620 -1.9609 -0.8298
 5100TIP3   OH239494   6.139   1.004  18.412 -0.1457  0.3846 -0.3875
 5100TIP3    H139495   6.055   1.043  18.390 -0.3805 -0.5491 -1.2297
 5100TIP3    H239496   6.201   1.077  18.411 -0.8482  0.9834 -0.3154
 5101TIP3   OH239497   5.295   0.584  18.916  0.0572 -0.0195  0.1641
 5101TIP3    H139498   5.216   0.607  18.965  0.3471  0.5819  0.3534
 5101TIP3    H239499   5.312   0.660  18.862  0.9343  0.1454  0.6654
 5102TIP3   OH239500   2.268   0.929  18.243  0.3724  0.0122 -0.0303
 5102TIP3    H139501   2.358   0.914  18.215  0.3652  0.0869 -0.0938
 5102TIP3    H239502   2.277   0.977  18.326  0.4146 -1.3556  0.7832
 5103TIP3   OH239503   6.497   0.538  19.545 -0.4291  0.3820  0.2740
 5103TIP3    H139504   6.497   0.498  19.458 -2.0760 -1.4205  1.0254
 5103TIP3    H239505   6.500   0.632  19.529  1.2239  0.0671 -1.6466
 5104TIP3   OH239506   6.786   4.734  17.722  0.3153  0.0433 -0.2183
 5104TIP3    H139507   6.820   4.783  17.648 -1.0762  0.8877 -0.3279
 5104TIP3    H239508   6.792   4.642  17.695  1.1083  0.2586 -0.8016
 5105TIP3   OH239509   5.864   3.610  17.786 -0.2573 -0.0156 -0.6298
 5105TIP3    H139510   5.869   3.541  17.852  1.3646  0.3713 -0.2980
 5105TIP3    H239511   5.887   3.568  17.704  0.1460 -0.0029 -0.5261
 5106TIP3   OH239512   6.844   2.618  17.244  0.5178  0.1026 -0.1806
 5106TIP3    H139513   6.909   2.589  17.180  0.6542  1.4083 -0.6534
 5106TIP3    H239514   6.895   2.667  17.308  0.3738 -1.1303  0.9280
 5107TIP3   OH239515   0.012   1.063  17.915  0.1973  0.2339  0.0441
 5107TIP3    H139516  -0.015   1.123  17.845 -0.2961  0.4511  0.4179
 5107TIP3    H239517   0.094   1.099  17.947  0.2767  0.2991 -0.2266
 5108TIP3   OH239518   4.226   3.087  17.889  0.1892  0.5738  0.5876
 5108TIP3    H139519   4.175   3.138  17.952 -0.7711  1.0506 -0.5316
 5108TIP3    H239520   4.282   3.151  17.846 -1.5560  0.9014 -1.3463
 5109TIP3   OH239521   7.320   3.079  18.289  0.0061  0.4094 -0.1420
 5109TIP3    H139522   7.408   3.092  18.252  0.0676 -0.8347 -0.4908
 5109TIP3    H239523   7.297   2.989  18.264 -0.5739  0.0479  1.5690
 5110TIP3   OH239524   0.410   0.023  18.354 -0.6908 -0.1699 -0.0204
 5110TIP3    H139525   0.379   0.104  18.396 -1.8771 -0.7527  0.2891
 5110TIP3    H239526   0.329  -0.025  18.334 -0.1283 -0.2821 -2.2742
 5111TIP3   OH239527   4.818   6.135  18.220 -0.1751  0.3656 -0.1705
 5111TIP3    H139528   4.871   6.203  18.261  0.5742 -0.1664 -0.2441
 5111TIP3    H239529   4.828   6.150  18.126  0.7770 -0.4261 -0.2067
 5112TIP3   OH239530   6.477   2.602  19.514 -0.2969 -0.0798  0.1682
 5112TIP3    H139531   6.498   2.686  19.555  0.6774 -0.5410  0.6396
 5112TIP3    H239532   6.381   2.603  19.505 -0.6691 -0.3173  3.2387
 5113TIP3   OH239533   0.633   4.140  17.594  0.1853  0.3043  0.1808
 5113TIP3    H139534   0.622   4.156  17.687  3.2725  0.1819  0.6710
 5113TIP3    H239535   0.632   4.044  17.585 -0.0846  0.3151  0.0564
 5114TIP3   OH239536   7.333   2.400  17.952  0.4441 -0.5172 -0.1837
 5114TIP3    H139537   7.266   2.343  17.915  1.3082 -2.3277  0.9021
 5114TIP3    H239538   7.305   2.415  18.042  1.1091 -0.6618  0.0499
 5115TIP3   OH239539   3.778   5.038  17.343  0.1109  0.2228  0.0466
 5115TIP3    H139540   3.804   5.023  17.434  0.0799  1.4041  0.2713
 5115TIP3    H239541   3.684   5.024  17.341  0.3424 -1.4896 -0.1980
 5116TIP3   OH239542   1.289   4.279  18.050 -0.0209  0.3450  0.1031
 5116TIP3    H139543   1.362   4.291  17.991  0.2387 -0.4692  0.2439
 5116TIP3    H239544   1.226   4.348  18.026  0.2409  0.2605 -0.8516
 5117TIP3   OH239545   6.815   0.263  16.877 -0.3590 -0.0333 -0.6724
 5117TIP3    H139546   6.872   0.297  16.808 -0.1551  0.2208 -0.3862
 5117TIP3    H239547   6.843   0.173  16.889 -0.8093 -0.2664 -1.3492
 5118TIP3   OH239548   6.317   2.147  18.814 -0.4419 -0.4890  0.2043
 5118TIP3    H139549   6.366   2.219  18.773 -0.3077 -0.3869  0.5406
 5118TIP3    H239550   6.237   2.188  18.845 -0.5777 -0.5822 -0.0223
 5119TIP3   OH239551   5.096   0.994  18.834 -0.4380  0.2209 -0.1012
 5119TIP3    H139552   5.118   1.047  18.757  0.0074  0.0622 -0.0854
 5119TIP3    H239553   5.178   0.951  18.858 -0.5481  0.3467  0.5239
 5120TIP3   OH239554   7.421   6.621  17.100  0.2588  0.0951 -0.0040
 5120TIP3    H139555   7.457   6.688  17.159 -1.3109 -0.0515  1.1667
 5120TIP3    H239556   7.395   6.550  17.157 -0.2507 -0.5505 -1.0073
 5121TIP3   OH239557   2.479   6.250  17.732 -0.1475  0.4462  0.5522
 5121TIP3    H139558   2.571   6.276  17.721  0.1178 -0.9821 -0.9267
 5121TIP3    H239559   2.483   6.158  17.758 -1.1463  0.8732  2.3857
 5122TIP3   OH239560   0.851   0.895  18.585  0.0792 -0.1975  0.4840
 5122TIP3    H139561   0.945   0.916  18.579 -0.2483  0.8617 -2.6631
 5122TIP3    H239562   0.807   0.977  18.565 -1.4838 -1.1123  0.0563
 5123TIP3   OH239563   3.419   0.964  17.440  0.8610 -0.0838  0.2080
 5123TIP3    H139564   3.465   1.037  17.399 -0.4824  1.2075  0.8756
 5123TIP3    H239565   3.330   0.970  17.406  0.4046 -0.6264  1.2591
 5124TIP3   OH239566   3.557   4.574  18.402 -0.1990 -0.2258 -0.2656
 5124TIP3    H139567   3.579   4.656  18.447  1.1407 -0.6728 -0.0579
 5124TIP3    H239568   3.625   4.513  18.429 -1.3919 -1.5432 -0.1041
 5125TIP3   OH239569   5.378   3.438  17.000 -0.1304  0.3099  0.3646
 5125TIP3    H139570   5.471   3.460  16.990 -0.3899  1.7944  1.0010
 5125TIP3    H239571   5.373   3.345  16.976  1.4592  0.2802  0.0245
 5126TIP3   OH239572   3.615   1.428  18.671 -0.0419  0.1144  0.2387
 5126TIP3    H139573   3.649   1.410  18.759 -1.2555 -0.0586  0.6909
 5126TIP3    H239574   3.520   1.433  18.682 -0.1102  2.1051 -0.7104
 5127TIP3   OH239575   5.365   1.172  19.024  0.1857  0.3895  0.2132
 5127TIP3    H139576   5.407   1.184  19.110  0.6402  0.3741 -0.0021
 5127TIP3    H239577   5.348   1.261  18.993 -0.4671  0.3888  0.5516
 5128TIP3   OH239578   7.671   7.428  16.951  0.3018  0.4127 -0.3404
 5128TIP3    H139579   7.695   7.336  16.939  1.5053  0.2839  2.3385
 5128TIP3    H239580   7.728   7.475  16.890  1.0926 -0.4999 -0.3360
 5129TIP3   OH239581   4.983   5.401  18.056 -0.6069 -0.0160  0.0142
 5129TIP3    H139582   5.013   5.383  17.967 -0.3035 -1.4856  0.3900
 5129TIP3    H239583   4.888   5.404  18.049 -0.5850 -0.1677 -0.3520
 5130TIP3   OH239584   6.973   5.725  19.201 -0.6952  0.0386 -0.0064
 5130TIP3    H139585   6.880   5.725  19.178 -0.5073  0.9600 -0.8650
 5130TIP3    H239586   6.996   5.818  19.203  0.4038 -0.2084 -0.6500
 5131TIP3   OH239587   6.455   2.210  19.168  0.4646 -0.7782 -0.6821
 5131TIP3    H139588   6.519   2.233  19.100 -1.1171  1.3613 -1.5842
 5131TIP3    H239589   6.440   2.117  19.156  2.0851 -0.9638 -1.6131
 5132TIP3   OH239590   2.206   0.203  17.705 -0.4468 -0.9095  0.4309
 5132TIP3    H139591   2.278   0.259  17.732 -0.7007  0.2580 -1.1684
 5132TIP3    H239592   2.247   0.118  17.690  0.5833 -0.3099 -0.2767
 5133TIP3   OH239593   0.864   3.005  18.899  0.4235 -0.2416 -0.0533
 5133TIP3    H139594   0.924   3.059  18.951  0.2655  0.6745 -0.8056
 5133TIP3    H239595   0.906   2.996  18.814 -0.6502  0.7310 -0.7197
 5134TIP3   OH239596   4.133   2.353  17.284  0.0218  0.0284  0.1928
 5134TIP3    H139597   4.104   2.369  17.194 -1.4988 -1.4732  0.3659
 5134TIP3    H239598   4.221   2.393  17.288 -0.2637  0.9706 -1.6437
 5135TIP3   OH239599   2.128   1.522  18.922 -0.7212 -0.3078  0.4659
 5135TIP3    H139600   2.110   1.464  18.849 -2.0658 -0.4698  0.9020
 5135TIP3    H239601   2.223   1.522  18.930 -0.2591  1.7263 -2.9237
 5136TIP3   OH239602   6.059   3.630  18.522  0.3368 -0.2173 -0.4044
 5136TIP3    H139603   5.970   3.655  18.496  0.3964  0.0420 -0.3571
 5136TIP3    H239604   6.111   3.645  18.443  0.2626 -0.7775 -0.5632
 5137TIP3   OH239605   2.200   3.688  17.157  0.4443  0.3021 -0.2250
 5137TIP3    H139606   2.161   3.712  17.073  2.0609  0.2371 -1.0353
 5137TIP3    H239607   2.177   3.595  17.167  1.0897  0.0211 -1.1268
 5138TIP3   OH239608   1.595   6.720  18.607  1.0063  0.6234  0.2293
 5138TIP3    H139609   1.581   6.748  18.697  0.7393 -1.1485  0.7883
 5138TIP3    H239610   1.509   6.727  18.565  0.5568 -0.9015  0.8464
 5139TIP3   OH239611   6.076   5.311  18.425  0.6512  0.2440 -0.5065
 5139TIP3    H139612   6.049   5.265  18.346  1.9644  0.5684 -1.1589
 5139TIP3    H239613   6.003   5.298  18.486  1.0321 -3.0052 -0.5280
 5140TIP3   OH239614   4.111   7.091  18.283 -0.3394 -0.3180  0.0298
 5140TIP3    H139615   4.050   7.139  18.227  2.1807  1.4631 -1.4623
 5140TIP3    H239616   4.124   7.148  18.359  0.8341  0.3131 -0.5977
 5141TIP3   OH239617   2.475   3.034  16.659  0.0483 -0.0133  0.0934
 5141TIP3    H139618   2.433   2.957  16.621 -0.1606  0.6340 -1.0330
 5141TIP3    H239619   2.566   3.008  16.672  0.3601  0.0208 -1.7666
 5142TIP3   OH239620   6.312   7.458  17.732 -0.0847  0.0908  0.1389
 5142TIP3    H139621   6.386   7.411  17.695  0.4798  0.4070  0.8418
 5142TIP3    H239622   6.322   7.448  17.827 -0.9153  0.1730  0.2447
 5143TIP3   OH239623   1.111   2.847  17.915  0.1399 -0.1859 -0.0438
 5143TIP3    H139624   1.033   2.898  17.895  0.0959 -0.4854 -0.6838
 5143TIP3    H239625   1.172   2.870  17.844  1.4008  1.6010  1.5240
 5144TIP3   OH239626   7.083   6.820  18.846 -0.2791 -0.9089  0.0174
 5144TIP3    H139627   6.991   6.806  18.821 -0.7505 -0.1471  1.2255
 5144TIP3    H239628   7.087   6.911  18.873  0.9682 -0.7918 -0.4926
 5145TIP3   OH239629   6.818   5.157  16.411 -0.5401  0.2460 -0.3128
 5145TIP3    H139630   6.731   5.149  16.452 -1.4316  2.5462 -1.5564
 5145TIP3    H239631   6.879   5.129  16.479 -2.1817 -0.6159  0.9009
 5146TIP3   OH239632   5.424   0.890  18.477  0.3279 -0.0469 -0.4552
 5146TIP3    H139633   5.411   0.948  18.552 -0.4039  0.6652 -1.1132
 5146TIP3    H239634   5.453   0.948  18.406  2.7713 -0.9503 -0.2868
 5147TIP3   OH239635   5.349   3.597  18.949  0.0279 -0.5136 -0.4602
 5147TIP3    H139636   5.286   3.661  18.980 -1.5818 -1.8710 -0.7780
 5147TIP3    H239637   5.431   3.619  18.994 -0.4466  1.7559 -0.6390
 5148TIP3   OH239638   2.678   3.798  18.106  0.3558  0.1246  0.2061
 5148TIP3    H139639   2.596   3.783  18.154  1.6890  1.1926  3.0497
 5148TIP3    H239640   2.729   3.719  18.123  0.0526 -0.4328 -1.3592
 5149TIP3   OH239641   1.846   4.159  17.556 -0.3198  0.8598  0.7226
 5149TIP3    H139642   1.909   4.097  17.593 -0.4650  0.5512  0.4603
 5149TIP3    H239643   1.894   4.242  17.552 -0.3165  0.9069  1.6235
 5150TIP3   OH239644   7.537   3.108  17.267 -0.2419  0.3991  0.0179
 5150TIP3    H139645   7.608   3.146  17.318 -2.0530  1.9794  1.5343
 5150TIP3    H239646   7.530   3.018  17.298  2.2760 -0.4500 -1.5733
 5151TIP3   OH239647   6.522   1.873  19.539 -0.2534  0.4576  0.4695
 5151TIP3    H139648   6.515   1.955  19.589 -0.1917  1.5544 -1.2494
 5151TIP3    H239649   6.488   1.894  19.453  3.3087 -0.1639 -1.2966
 5152TIP3   OH239650   6.759   4.449  17.729  0.2989  0.5479 -0.3503
 5152TIP3    H139651   6.671   4.412  17.725  0.3538  0.5444 -3.0208
 5152TIP3    H239652   6.816   4.373  17.743  0.0428  0.2207 -1.0397
 5153TIP3   OH239653   5.857   5.043  17.607 -0.2347  0.2288 -0.3709
 5153TIP3    H139654   5.816   5.065  17.523 -1.8337 -0.4923  0.1924
 5153TIP3    H239655   5.900   4.959  17.591  1.0384  0.9527 -0.9427
 5154TIP3   OH239656   7.405   6.691  16.632  0.3930  0.2870 -0.6593
 5154TIP3    H139657   7.435   6.618  16.578 -0.4075  0.9000 -1.9987
 5154TIP3    H239658   7.315   6.706  16.604 -0.2637  0.2702  1.2969
 5155TIP3   OH239659   1.433   4.547  18.083 -0.1365 -0.2959 -0.2002
 5155TIP3    H139660   1.459   4.460  18.051  0.2696 -0.5566  0.7848
 5155TIP3    H239661   1.489   4.608  18.035 -0.4022 -0.5861 -0.8779
 5156TIP3   OH239662   1.819   0.745  18.226  0.3679  0.4437 -0.3773
 5156TIP3    H139663   1.772   0.827  18.240  0.1200  0.1880  0.3837
 5156TIP3    H239664   1.772   0.682  18.281  0.8807 -0.0834 -0.5359
 5157TIP3   OH239665   2.587   7.598  17.269 -0.0356 -0.6226 -0.7455
 5157TIP3    H139666   2.634   7.603  17.186  1.5343 -1.1032  0.0736
 5157TIP3    H239667   2.588   7.687  17.304  1.4323 -0.8472 -0.1467
 5158TIP3   OH239668   4.372   3.744  17.353  0.4378  0.3577 -0.0426
 5158TIP3    H139669   4.391   3.802  17.280 -1.4074 -0.0264 -0.8804
 5158TIP3    H239670   4.424   3.666  17.335  1.7946  1.1452  0.3222
 5159TIP3   OH239671   0.674   3.490  17.779  0.8173 -0.2661 -0.4494
 5159TIP3    H139672   0.764   3.476  17.749  0.5017  0.1203 -1.6169
 5159TIP3    H239673   0.623   3.502  17.699 -0.1686  0.1587  0.2162
 5160TIP3   OH239674   5.982   7.066  18.509  0.0082  0.3432  0.3457
 5160TIP3    H139675   6.046   7.098  18.445  1.5664 -0.7961  1.2554
 5160TIP3    H239676   5.932   7.000  18.462 -1.2835  1.9620 -0.6871
 5161TIP3   OH239677   5.283   5.005  17.643  0.0141 -0.3461  0.1770
 5161TIP3    H139678   5.199   5.024  17.602  0.9618  0.9041 -1.2676
 5161TIP3    H239679   5.344   4.997  17.570  1.3018 -0.4590  1.2419
 5162TIP3   OH239680   7.075   5.394  17.626  0.4492  0.4602 -0.3604
 5162TIP3    H139681   7.023   5.401  17.546 -0.0257 -0.0159 -0.1115
 5162TIP3    H239682   7.140   5.463  17.620  2.5952 -1.5544 -2.7187
 5163TIP3   OH239683   4.361   0.654  18.930 -0.1791  0.7062 -0.3221
 5163TIP3    H139684   4.392   0.717  18.866 -1.4243  2.2738  0.5500
 5163TIP3    H239685   4.351   0.704  19.011 -2.5837 -0.2484  0.0541
 5164TIP3   OH239686   7.356   2.824  18.130  0.4305 -0.7767  0.1124
 5164TIP3    H139687   7.378   2.752  18.187  2.7315  0.3115  0.6972
 5164TIP3    H239688   7.435   2.839  18.077 -1.1055 -0.8065 -2.3806
 5165TIP3   OH239689   3.831   3.554  17.490  0.4423 -0.1302 -0.4807
 5165TIP3    H139690   3.849   3.578  17.581  0.3628 -1.3071 -0.1315
 5165TIP3    H239691   3.907   3.585  17.442  0.5440  0.3986  0.0092
 5166TIP3   OH239692   0.660   0.096  16.753  0.0742  0.7236 -0.0597
 5166TIP3    H139693   0.642   0.091  16.659  1.6029 -2.3242 -0.3249
 5166TIP3    H239694   0.588   0.047  16.794  0.8129 -0.3071  0.0528
 5167TIP3   OH239695   2.528   7.126  16.547  0.0192  0.0008 -0.0286
 5167TIP3    H139696   2.494   7.136  16.459 -1.0924  1.1078  0.5084
 5167TIP3    H239697   2.538   7.215  16.580  0.8603 -0.3839  0.8150
 5168TIP3   OH239698   0.035   6.861  18.771  0.7915 -0.4178 -0.7525
 5168TIP3    H139699   0.073   6.948  18.756 -0.5062  0.6052  1.4243
 5168TIP3    H239700  -0.059   6.877  18.777  0.6026 -1.8328  0.5760
 5169TIP3   OH239701   0.343   5.589  18.359 -0.4951 -0.0859  0.0387
 5169TIP3    H139702   0.292   5.508  18.362 -0.6333  0.0222  0.8379
 5169TIP3    H239703   0.308   5.637  18.283  0.8338 -1.5693 -1.5908
 5170TIP3   OH239704   6.452   5.139  18.403 -0.0059 -0.0966 -0.1447
 5170TIP3    H139705   6.395   5.113  18.331 -0.0427  0.6787 -0.3997
 5170TIP3    H239706   6.495   5.219  18.373  2.6660 -1.6437 -0.7241
 5171TIP3   OH239707   6.371   5.891  17.625  0.2084  0.9529 -0.1611
 5171TIP3    H139708   6.318   5.943  17.687 -1.9349  0.9541 -1.8667
 5171TIP3    H239709   6.461   5.907  17.652 -0.5614  2.1826  1.9881
 5172TIP3   OH239710   4.197   5.272  17.049 -0.6949 -0.1678  0.6454
 5172TIP3    H139711   4.177   5.357  17.088  1.7865  1.0335 -0.4846
 5172TIP3    H239712   4.170   5.208  17.115 -0.5923  1.5807  2.4759
 5173TIP3   OH239713   0.928   1.347  18.445  0.3663  0.4746 -0.5161
 5173TIP3    H139714   0.918   1.439  18.470  0.3545  0.1633  0.6674
 5173TIP3    H239715   1.021   1.337  18.425  0.7694  0.3140  1.2498
 5174TIP3   OH239716   3.216   0.049  17.686  0.0033 -0.0759  0.2679
 5174TIP3    H139717   3.283  -0.010  17.652  0.6159  1.9562 -2.3773
 5174TIP3    H239718   3.168  -0.003  17.750  1.8105 -2.7265 -0.3913
 5175TIP3   OH239719   1.616   6.762  18.906  0.2487 -0.3087  0.2628
 5175TIP3    H139720   1.688   6.823  18.921  1.1394 -0.9486 -1.1487
 5175TIP3    H239721   1.544   6.795  18.960  1.4728  0.5695  1.4074
 5176TIP3   OH239722   3.797   3.504  19.392  0.0815 -0.3157  0.5432
 5176TIP3    H139723   3.826   3.592  19.414 -2.6616  0.2385  2.4967
 5176TIP3    H239724   3.729   3.517  19.326 -0.4075 -0.9272  0.9124
 5177TIP3   OH239725   6.129   4.941  19.197  0.2304 -0.1282  0.2898
 5177TIP3    H139726   6.061   4.955  19.132 -0.9977 -0.8330  1.3635
 5177TIP3    H239727   6.198   5.003  19.175 -0.7331  0.5537 -0.8744
 5178TIP3   OH239728   1.780   6.333  18.536  0.1128 -0.1122 -0.1951
 5178TIP3    H139729   1.685   6.326  18.533  0.0611 -0.0142  0.7227
 5178TIP3    H239730   1.811   6.276  18.466 -0.6320  0.4384 -0.9988
 5179TIP3   OH239731   0.565   6.190  17.284 -0.2182  0.0915  0.2830
 5179TIP3    H139732   0.627   6.137  17.233 -1.9963 -1.0751 -0.7570
 5179TIP3    H239733   0.567   6.276  17.242 -0.8108 -0.5279 -1.0528
 5180TIP3   OH239734   2.571   4.738  17.121  0.2268  0.6135  0.2352
 5180TIP3    H139735   2.569   4.656  17.073 -1.7163  0.9706 -0.4038
 5180TIP3    H239736   2.511   4.723  17.195  1.9097  0.6127  1.6624
 5181TIP3   OH239737   7.563   4.936  16.479  0.8741  0.3525  0.2289
 5181TIP3    H139738   7.474   4.960  16.504 -0.3758 -0.4406 -3.0041
 5181TIP3    H239739   7.598   5.014  16.436  0.4585 -0.3452 -1.4449
 5182TIP3   OH239740   3.881   3.153  17.178  0.0983 -0.5507 -0.5290
 5182TIP3    H139741   3.922   3.189  17.256  0.2949  0.1553 -0.9482
 5182TIP3    H239742   3.933   3.076  17.156  0.0198 -0.7731  0.0537
 5183TIP3   OH239743   1.236   3.658  18.374  0.1917 -0.1303  0.2149
 5183TIP3    H139744   1.179   3.592  18.335 -1.0249  1.1163 -0.2097
 5183TIP3    H239745   1.291   3.689  18.302 -2.0613  2.1789 -0.6445
 5184TIP3   OH239746   0.376   2.752  16.828  0.4571  0.1733 -0.2908
 5184TIP3    H139747   0.319   2.689  16.786 -1.8691 -0.1762  2.9899
 5184TIP3    H239748   0.378   2.827  16.769 -1.2126 -0.8564 -1.7283
 5185TIP3   OH239749   6.977   5.307  19.036  0.2264 -0.1949 -0.3311
 5185TIP3    H139750   6.979   5.254  18.956 -0.2670 -1.2423  0.3197
 5185TIP3    H239751   6.888   5.343  19.039  0.2097 -0.2413 -0.2211
 5186TIP3   OH239752   7.483   1.236  16.858 -0.3865 -0.5660 -0.4047
 5186TIP3    H139753   7.431   1.162  16.824  2.6897 -1.8728 -2.7519
 5186TIP3    H239754   7.523   1.275  16.780  0.1557  2.0115  1.0377
 5187TIP3   OH239755   2.054   3.607  18.710  0.3984  0.0825  0.2152
 5187TIP3    H139756   2.053   3.701  18.693 -0.0625  0.3332  1.4753
 5187TIP3    H239757   2.036   3.566  18.625 -2.2227  1.2263  0.1436
 5188TIP3   OH239758   0.739   1.367  18.881 -0.2878 -0.1735 -0.7590
 5188TIP3    H139759   0.742   1.272  18.897 -0.3254 -0.0153  0.2987
 5188TIP3    H239760   0.817   1.401  18.925 -2.2638  0.7145  2.4527
 5189TIP3   OH239761   3.328   0.420  18.850 -0.1044 -0.0083 -0.0792
 5189TIP3    H139762   3.237   0.408  18.876 -0.0653 -0.2084 -0.0342
 5189TIP3    H239763   3.324   0.461  18.764 -0.2361  0.5799  0.2007
 5190TIP3   OH239764   2.005   0.561  18.916  0.3442 -0.2912 -0.1206
 5190TIP3    H139765   2.044   0.639  18.957  0.6912  0.4144 -1.7069
 5190TIP3    H239766   1.920   0.591  18.884 -0.5432 -1.2140  1.2725
 5191TIP3   OH239767   0.747   6.196  17.911  0.0727  0.6912 -0.0133
 5191TIP3    H139768   0.744   6.188  18.006 -0.0318  1.7021  0.0805
 5191TIP3    H239769   0.695   6.274  17.892  1.2424  1.3197 -0.7767
 5192TIP3   OH239770   7.195   1.324  16.942  0.2321  0.0470  0.1566
 5192TIP3    H139771   7.120   1.277  16.907  1.1812 -0.5379 -1.2036
 5192TIP3    H239772   7.236   1.364  16.864  1.1961  0.5338  0.8935
 5193TIP3   OH239773   6.569   4.914  16.505  0.4552 -0.0362  0.3609
 5193TIP3    H139774   6.556   5.001  16.468 -0.8000 -0.7296 -0.8869
 5193TIP3    H239775   6.482   4.886  16.533  0.8351 -0.9298  0.6999
 5194TIP3   OH239776   4.691   2.566  18.434  0.0832  0.1834  0.4220
 5194TIP3    H139777   4.673   2.607  18.519  0.3862 -1.4350  1.2974
 5194TIP3    H239778   4.628   2.494  18.429  1.1504 -0.7472  0.0226
 5195TIP3   OH239779   4.783   3.509  18.874  0.1811 -0.4998 -0.3427
 5195TIP3    H139780   4.787   3.523  18.779  0.9757 -1.4442 -0.4661
 5195TIP3    H239781   4.731   3.429  18.885  0.6864 -0.7936 -0.0348
 5196TIP3   OH239782   7.081   7.190  18.563  0.4533 -0.3622  0.1404
 5196TIP3    H139783   7.022   7.240  18.619  0.7406  0.1974 -0.0535
 5196TIP3    H239784   7.141   7.255  18.526  0.3964 -0.7512 -0.6587
 5197TIP3   OH239785   5.267   0.727  18.314 -0.3608  1.1471 -0.2342
 5197TIP3    H139786   5.226   0.677  18.385 -0.4615  2.0936  0.3996
 5197TIP3    H239787   5.338   0.775  18.357  0.9451  0.1379 -1.1737
 5198TIP3   OH239788   1.519   5.830  17.605  0.1632  0.0114  0.8942
 5198TIP3    H139789   1.465   5.842  17.527  0.7655 -0.3599  0.4104
 5198TIP3    H239790   1.479   5.887  17.671  0.7910  1.8605 -0.2534
 5199TIP3   OH239791   3.539   1.119  18.004 -0.4581  1.1034  0.2496
 5199TIP3    H139792   3.503   1.180  17.940 -0.9996  1.6873  1.0932
 5199TIP3    H239793   3.541   1.035  17.958  1.0584  1.8726 -1.2075
 5200TIP3   OH239794   3.508   7.457  18.978  0.2659 -0.0657 -0.4191
 5200TIP3    H139795   3.550   7.540  18.999  1.2122  0.3478 -3.4552
 5200TIP3    H239796   3.578   7.392  18.989 -0.1062 -0.3005  0.6567
 5201TIP3   OH239797   2.939   3.342  19.194 -0.8828  0.6984 -0.1715
 5201TIP3    H139798   2.869   3.346  19.259 -1.0124  0.3929 -0.2922
 5201TIP3    H239799   2.948   3.249  19.175 -0.9955  0.8039 -0.7557
 5202TIP3   OH239800   1.745   0.155  16.842  0.3921 -0.1090  0.1250
 5202TIP3    H139801   1.718   0.245  16.861  2.6723  0.5534  0.5334
 5202TIP3    H239802   1.664   0.111  16.816 -0.8592  1.9444  0.2905
 5203TIP3   OH239803   5.226   5.093  17.209 -0.0580  0.5809  0.5082
 5203TIP3    H139804   5.273   5.128  17.133  2.3762  0.3898  1.8167
 5203TIP3    H239805   5.139   5.072  17.177  0.5710  1.4883 -1.9550
 5204TIP3   OH239806   4.384   3.926  18.779 -0.1866  0.2672 -0.5290
 5204TIP3    H139807   4.328   3.870  18.726 -1.0642  0.8982 -0.2998
 5204TIP3    H239808   4.384   3.885  18.866 -1.0793  0.7529 -0.2775
 5205TIP3   OH239809   4.583   5.687  16.771  0.4679 -1.1112  0.2090
 5205TIP3    H139810   4.552   5.599  16.752 -1.4601 -0.6405  0.9248
 5205TIP3    H239811   4.545   5.708  16.857 -0.6299  1.0564 -0.7269
 5206TIP3   OH239812   5.317   1.357  19.389  0.0231  0.1008  0.4372
 5206TIP3    H139813   5.384   1.306  19.344  1.5165  1.8293  0.6012
 5206TIP3    H239814   5.315   1.441  19.342 -1.0994  0.5650  1.2617
 5207TIP3   OH239815   0.579   1.177  18.183  0.2516  0.1232 -0.3148
 5207TIP3    H139816   0.586   1.133  18.098 -0.3694 -0.6463  0.0171
 5207TIP3    H239817   0.544   1.264  18.163  0.0680 -0.0711 -0.8402
 5208TIP3   OH239818   6.647   5.481  18.199 -0.0352  0.1413 -0.2852
 5208TIP3    H139819   6.620   5.408  18.143  0.1630  0.3578 -0.6631
 5208TIP3    H239820   6.571   5.539  18.201  0.7919  1.4013 -2.4075
 5209TIP3   OH239821   3.718   6.723  17.842 -0.1001 -0.5735  0.4995
 5209TIP3    H139822   3.789   6.744  17.781  0.3977 -1.7098  0.6653
 5209TIP3    H239823   3.762   6.705  17.925 -0.5391 -1.6636  0.5062
 5210TIP3   OH239824   4.152   1.004  18.170  0.3003 -0.1523  0.1874
 5210TIP3    H139825   4.157   1.045  18.257 -1.5698  1.9347 -0.6091
 5210TIP3    H239826   4.201   1.062  18.113 -1.9989  0.8317 -0.8812
 5211TIP3   OH239827   7.575   1.120  19.693  0.0149  0.1502  0.9106
 5211TIP3    H139828   7.487   1.137  19.728  0.0557  0.1292  1.0200
 5211TIP3    H239829   7.593   1.030  19.717  1.1944  0.9497  3.3050
 5212TIP3   OH239830   5.961   7.155  18.970  0.3850 -0.2695 -0.5336
 5212TIP3    H139831   5.947   7.064  18.994 -0.0063 -0.4215 -1.2768
 5212TIP3    H239832   5.942   7.158  18.876 -1.2421  0.8769 -0.2278
 5213TIP3   OH239833   4.812   5.686  19.018  0.3548  0.4239 -0.5397
 5213TIP3    H139834   4.739   5.679  19.079  0.5835 -0.9444 -0.3983
 5213TIP3    H239835   4.771   5.705  18.933  0.0236  2.1000 -0.0385
 5214TIP3   OH239836   7.297   7.474  18.746 -0.0482  0.2650  0.3819
 5214TIP3    H139837   7.270   7.508  18.832 -0.8064  0.2059  0.1730
 5214TIP3    H239838   7.235   7.513  18.684  0.4680  0.2690 -0.1354
 5215TIP3   OH239839   3.736   0.909  19.276 -0.1732  0.2987  0.0363
 5215TIP3    H139840   3.785   0.831  19.304  1.8418  1.9843  1.4515
 5215TIP3    H239841   3.766   0.924  19.187  0.0590 -0.0568  0.0493
 5216TIP3   OH239842   6.739   0.651  18.651  0.2497 -0.3333  0.0120
 5216TIP3    H139843   6.711   0.593  18.580 -0.7006 -1.6075  1.3675
 5216TIP3    H239844   6.723   0.600  18.731 -1.3703  2.0648  1.3324
 5217TIP3   OH239845   3.369   4.833  17.704  0.2647  0.2454 -0.2326
 5217TIP3    H139846   3.380   4.912  17.652  1.6322 -0.2595 -0.7563
 5217TIP3    H239847   3.382   4.861  17.794 -0.4313  0.8206 -0.3052
 5218TIP3   OH239848   3.818   1.664  18.710 -0.0412  0.0194  0.4007
 5218TIP3    H139849   3.847   1.720  18.638  0.6965 -1.5431 -0.5648
 5218TIP3    H239850   3.732   1.633  18.684 -0.0171 -0.1052  0.4695
 5219TIP3   OH239851   4.199   0.759  17.803  0.6913  0.2237  0.1414
 5219TIP3    H139852   4.162   0.740  17.889 -0.7433 -0.8631 -0.6742
 5219TIP3    H239853   4.254   0.684  17.783 -0.6600 -0.5817 -0.7517
 5220TIP3   OH239854   4.793   2.074  19.400 -0.1110 -0.5402  0.1272
 5220TIP3    H139855   4.698   2.075  19.400 -0.1135  0.5747 -0.5865
 5220TIP3    H239856   4.816   1.981  19.410 -1.2487 -0.7391  1.1115
 5221TIP3   OH239857   1.363   1.905  17.982 -0.7870 -0.4845 -0.1345
 5221TIP3    H139858   1.444   1.869  18.019  1.0107  2.1688 -1.1730
 5221TIP3    H239859   1.307   1.921  18.058  1.3411  1.4149  1.1919
 5222TIP3   OH239860   0.077   4.942  17.379 -0.1276  0.2166 -0.1441
 5222TIP3    H139861   0.140   4.923  17.309 -0.7878 -2.1455 -0.1753
 5222TIP3    H239862   0.132   4.962  17.455  0.6126  0.5473 -0.7436
 5223TIP3   OH239863   0.385   1.947  18.918 -0.1763  0.2215 -0.2518
 5223TIP3    H139864   0.347   2.003  18.986 -0.8641  0.3469 -0.7290
 5223TIP3    H239865   0.396   2.005  18.842 -1.2183 -0.3417 -0.8603
 5224TIP3   OH239866   1.828   1.906  18.016 -0.2377 -0.1867  0.2227
 5224TIP3    H139867   1.879   1.858  18.081 -0.5983 -1.0247 -0.0961
 5224TIP3    H239868   1.861   1.996  18.021  0.8111 -0.5671  0.4710
 5225TIP3   OH239869   5.522   1.336  16.895  0.0526  0.2686 -0.3652
 5225TIP3    H139870   5.508   1.273  16.965 -0.5881  0.5479 -0.2311
 5225TIP3    H239871   5.470   1.303  16.822 -0.0250  0.4673 -0.4009
 5226TIP3   OH239872   4.509   4.318  16.940 -0.4154  0.6690 -0.1396
 5226TIP3    H139873   4.459   4.247  16.980 -0.2836 -0.1282 -1.3394
 5226TIP3    H239874   4.442   4.375  16.901 -0.5261  1.2753  0.9046
 5227TIP3   OH239875   5.706   6.977  19.115 -0.4723 -0.4145  0.0077
 5227TIP3    H139876   5.663   6.967  19.200 -1.4537  0.7562 -0.3123
 5227TIP3    H239877   5.648   7.036  19.066  0.6838 -0.1054 -1.0420
 5228TIP3   OH239878   7.249   5.209  17.212 -0.2527 -0.0339  0.6356
 5228TIP3    H139879   7.183   5.146  17.239  0.1416 -0.9352 -0.4417
 5228TIP3    H239880   7.314   5.158  17.165  1.2652  0.8156  1.6967
 5229TIP3   OH239881   1.120   6.783  18.114 -0.1334 -0.4628 -0.1695
 5229TIP3    H139882   1.025   6.771  18.116 -0.1579 -0.2397  0.6384
 5229TIP3    H239883   1.139   6.829  18.196  0.4191  1.3476 -1.2576
 5230TIP3   OH239884   2.913   6.515  18.740 -0.6184 -0.1549 -0.2759
 5230TIP3    H139885   2.848   6.451  18.713  0.8882 -1.7573 -0.2777
 5230TIP3    H239886   2.891   6.594  18.690 -3.7636  0.0797  1.2447
 5231TIP3   OH239887   5.223   6.411  17.518 -0.1247  0.7207 -0.4959
 5231TIP3    H139888   5.255   6.345  17.580 -2.1962 -0.3064 -0.4435
 5231TIP3    H239889   5.285   6.484  17.528  1.4760 -0.6627  0.4097
 5232TIP3   OH239890   0.048   7.284  19.199  0.5011  0.6420  0.2304
 5232TIP3    H139891   0.052   7.376  19.172 -0.3429  0.3158 -1.1025
 5232TIP3    H239892  -0.038   7.274  19.239  0.3368  0.3036 -0.1946
 5233TIP3   OH239893   6.122   1.728  18.826 -0.5417 -0.0939  0.3894
 5233TIP3    H139894   6.132   1.795  18.757 -1.2447  0.3160  0.6760
 5233TIP3    H239895   6.211   1.714  18.858 -0.0757 -0.8963 -1.1603
 5234TIP3   OH239896   4.529   6.389  16.956  0.0630 -0.3330 -0.3975
 5234TIP3    H139897   4.504   6.444  17.031 -0.1562  0.2768 -0.9027
 5234TIP3    H239898   4.449   6.341  16.934 -0.1209  0.1158 -0.7511
 5235TIP3   OH239899   1.680   4.463  17.550  0.3797 -0.0521 -0.1352
 5235TIP3    H139900   1.669   4.370  17.529  1.2736 -0.4188  0.9611
 5235TIP3    H239901   1.706   4.503  17.467  0.5427 -0.8714 -0.4870
 5236TIP3   OH239902   0.928   3.788  16.994  0.1618  0.0059  0.0415
 5236TIP3    H139903   0.857   3.752  16.941  0.1537 -1.4586  0.9705
 5236TIP3    H239904   0.985   3.832  16.931 -0.1679 -1.1350 -1.1048
 5237TIP3   OH239905   0.131   2.828  18.219 -0.5219 -0.0576  0.3951
 5237TIP3    H139906   0.156   2.908  18.265  0.1812 -0.5664  0.9223
 5237TIP3    H239907   0.088   2.775  18.286 -1.3615  0.0410 -0.0540
 5238TIP3   OH239908   2.842   0.052  18.000  0.3145  0.0491 -0.1529
 5238TIP3    H139909   2.750   0.052  18.025  0.1316 -0.0678 -0.7991
 5238TIP3    H239910   2.860  -0.039  17.975  0.1279  0.4081 -1.6817
 5239TIP3   OH239911   7.619   2.809  18.003 -0.8911 -0.2232 -0.3528
 5239TIP3    H139912   7.631   2.717  17.978  0.0611  0.0121 -0.7953
 5239TIP3    H239913   7.688   2.827  18.066  0.6153  0.8880 -2.2169
 5240TIP3   OH239914   3.404   6.215  18.966 -0.0378  0.4625  1.1014
 5240TIP3    H139915   3.456   6.296  18.965 -0.8091  1.0177  2.6307
 5240TIP3    H239916   3.323   6.238  18.920  0.6741 -0.1670 -0.5546
 5241TIP3   OH239917   7.645   0.615  18.565 -0.2901 -0.5246 -0.3887
 5241TIP3    H139918   7.661   0.579  18.477  0.0659  0.7493 -0.8672
 5241TIP3    H239919   7.719   0.673  18.580  0.1890 -1.4929  1.2009
 5242TIP3   OH239920   3.764   7.081  18.340  0.0352 -0.1786 -0.2419
 5242TIP3    H139921   3.744   6.995  18.304  3.4948 -1.4380  0.4607
 5242TIP3    H239922   3.818   7.123  18.273 -1.8951  1.6946 -0.7374
 5243TIP3   OH239923   6.412   0.729  18.295  0.5332 -0.3505 -0.3773
 5243TIP3    H139924   6.428   0.676  18.217  0.0737 -1.8483  0.5184
 5243TIP3    H239925   6.386   0.667  18.363 -0.0617  1.0150  0.7169
 5244TIP3   OH239926   0.472   7.167  18.660 -0.1022  0.8041 -0.5155
 5244TIP3    H139927   0.403   7.180  18.595  0.6457 -0.3487 -1.6021
 5244TIP3    H239928   0.428   7.120  18.732 -0.5172  0.2657 -1.0985
 5245TIP3   OH239929   3.691   3.944  16.810  0.0610 -0.0390  0.4662
 5245TIP3    H139930   3.746   3.865  16.814  0.6184  0.3100 -0.1586
 5245TIP3    H239931   3.650   3.949  16.896  0.7192 -0.5145  0.8142
 5246TIP3   OH239932   5.952   4.380  17.459 -0.3383 -0.6621 -0.0434
 5246TIP3    H139933   5.957   4.474  17.474  2.0127 -0.9094  1.2233
 5246TIP3    H239934   5.940   4.371  17.364 -2.4240  0.8725  0.0039
 5247TIP3   OH239935   5.918   2.707  17.408  0.0312  0.4310 -0.0285
 5247TIP3    H139936   5.846   2.645  17.393 -0.1456  0.6727 -0.1927
 5247TIP3    H239937   5.977   2.693  17.334  0.3407 -0.0277  0.3027
 5248TIP3   OH239938   4.437   6.487  17.225  0.6103 -0.1738 -0.3690
 5248TIP3    H139939   4.453   6.403  17.266  2.7496 -0.1010 -0.9256
 5248TIP3    H239940   4.342   6.499  17.230  0.4044 -1.9721  0.9149
 5249TIP3   OH239941   4.627   1.732  19.146  0.2586 -0.2833  0.3054
 5249TIP3    H139942   4.659   1.783  19.220 -1.5084  0.5156  0.5689
 5249TIP3    H239943   4.703   1.683  19.115  1.5477  1.0528  1.2585
 5250TIP3   OH239944   1.437   4.460  17.013 -0.0857 -0.3561  0.4819
 5250TIP3    H139945   1.451   4.373  16.976 -0.7729 -0.7773  1.1652
 5250TIP3    H239946   1.353   4.488  16.977  0.6980  0.5608 -0.6918
 5251TIP3   OH239947   2.956   3.387  16.947 -0.2803  0.4671 -0.1632
 5251TIP3    H139948   2.963   3.409  16.854  1.0358  0.4333 -0.0916
 5251TIP3    H239949   3.024   3.321  16.962  0.5145  1.5158  1.1110
 5252TIP3   OH239950   2.013   3.551  18.434  0.4074  0.1000  0.3554
 5252TIP3    H139951   1.954   3.620  18.403  1.1166  1.1844  1.3392
 5252TIP3    H239952   1.990   3.475  18.382 -0.8344  0.9097 -0.3298
 5253TIP3   OH239953   2.118   5.561  19.223  0.2818 -0.2585  0.1452
 5253TIP3    H139954   2.148   5.646  19.255  1.4006  0.2391 -2.0945
 5253TIP3    H239955   2.026   5.557  19.249 -0.3798  2.5609 -1.4152
 5254TIP3   OH239956   6.904   6.989  18.528 -0.4205 -0.0353  0.1285
 5254TIP3    H139957   6.826   7.028  18.488 -0.9101 -0.3074  0.7934
 5254TIP3    H239958   6.973   7.054  18.515 -0.4012 -0.3753 -1.6956
 5255TIP3   OH239959   7.073   3.431  18.445 -0.3365  0.2247  0.1550
 5255TIP3    H139960   7.084   3.408  18.537  1.3409  0.1297 -0.0230
 5255TIP3    H239961   7.011   3.504  18.446 -1.1781 -0.4679  1.2427
 5256TIP3   OH239962   3.312   3.227  18.689 -0.0402  0.0317  0.1249
 5256TIP3    H139963   3.288   3.189  18.774 -0.4611 -0.3980 -0.1860
 5256TIP3    H239964   3.248   3.297  18.675  1.2574  1.4973  1.1091
 5257TIP3   OH239965   6.626   6.918  19.264  0.1608 -0.1627 -0.0333
 5257TIP3    H139966   6.711   6.892  19.300  0.6701  2.2254  0.6247
 5257TIP3    H239967   6.647   6.967  19.184 -0.7910 -1.9155 -1.4551
 5258TIP3   OH239968   7.566   5.997  16.845  0.3320 -0.3798  0.0320
 5258TIP3    H139969   7.521   6.080  16.862 -0.3936 -0.7096 -0.2807
 5258TIP3    H239970   7.659   6.021  16.842  0.0736  0.5574 -0.8460
 5259TIP3   OH239971   4.040   6.478  16.855 -0.2521 -0.3391  0.3376
 5259TIP3    H139972   4.053   6.564  16.896 -1.3411  0.9383 -1.7936
 5259TIP3    H239973   3.979   6.433  16.913 -0.7326  0.8829  0.8142
 5260TIP3   OH239974   6.368   7.009  19.404 -0.1007  0.0168  0.0246
 5260TIP3    H139975   6.456   6.990  19.373 -0.3756 -0.0888 -0.6964
 5260TIP3    H239976   6.380   7.079  19.469  0.4869  0.1973 -0.2758
 5261TIP3   OH239977   0.547   4.507  18.031 -0.1129 -0.4866  0.6467
 5261TIP3    H139978   0.625   4.561  18.046 -0.9589  0.8182  0.4815
 5261TIP3    H239979   0.490   4.562  17.976 -1.0205 -1.5422  0.5007
 5262TIP3   OH239980   5.440   0.171  17.911 -0.3137  0.1455  0.0743
 5262TIP3    H139981   5.529   0.183  17.945 -0.6338  2.6649  0.2066
 5262TIP3    H239982   5.393   0.250  17.939 -2.3229 -0.6461 -0.8844
 5263TIP3   OH239983   1.713   1.638  19.247  0.3839 -0.0338 -0.2332
 5263TIP3    H139984   1.752   1.710  19.296  0.2457 -0.0556 -0.0904
 5263TIP3    H239985   1.683   1.577  19.314  0.6189 -0.2853 -0.3555
 5264TIP3   OH239986   3.246   0.693  18.121 -0.0609 -0.5114  0.0726
 5264TIP3    H139987   3.246   0.761  18.054  1.0404 -1.9658 -1.4751
 5264TIP3    H239988   3.225   0.612  18.075 -0.8827 -1.3325  1.7750
 5265TIP3   OH239989   7.154   1.882  18.397 -0.1261 -0.4241  0.1266
 5265TIP3    H139990   7.213   1.956  18.382  0.5202 -0.9794 -0.1181
 5265TIP3    H239991   7.093   1.914  18.463  0.0749  0.3672 -0.0528
 5266TIP3   OH239992   5.269   7.106  19.075  0.3420  0.4636  0.0317
 5266TIP3    H139993   5.294   7.015  19.092  1.3063  0.8671  0.8707
 5266TIP3    H239994   5.210   7.101  18.999  0.1451 -0.8816  0.2459
 5267TIP3   OH239995   5.600   4.134  16.821  0.2392 -0.5483  0.4795
 5267TIP3    H139996   5.683   4.176  16.800 -0.0594 -0.7192 -1.1671
 5267TIP3    H239997   5.534   4.198  16.796 -0.2391 -2.0147 -2.4270
 5268TIP3   OH239998   2.481   2.718  17.135  0.0164 -0.2247  0.3781
 5268TIP3    H139999   2.403   2.671  17.105  1.1518 -1.9026 -0.0825
 5268TIP3    H240000   2.518   2.756  17.055 -0.9992  1.7311  0.7706
 5269TIP3   OH240001   2.630   2.189  19.240 -0.5055 -1.0256 -0.5022
 5269TIP3    H140002   2.554   2.141  19.272 -0.7870 -0.9685 -1.0765
 5269TIP3    H240003   2.606   2.217  19.152 -0.9372  1.3975  0.2960
 5270TIP3   OH240004   4.400   5.648  18.875  0.9365 -0.9381  0.4735
 5270TIP3    H140005   4.488   5.679  18.856  1.3879 -2.8992 -0.9923
 5270TIP3    H240006   4.404   5.616  18.965  1.4744 -0.2254  0.7036
 5271TIP3   OH240007   0.564   5.067  17.574  0.1976 -0.1607  0.4250
 5271TIP3    H140008   0.560   5.162  17.591 -0.7382 -0.0917 -0.1325
 5271TIP3    H240009   0.524   5.028  17.652  0.5989 -0.1038  0.6623
 5272TIP3   OH240010   0.260   1.070  17.579  0.3943  0.4596  0.2519
 5272TIP3    H140011   0.313   1.068  17.500  0.6122 -0.5778  0.4134
 5272TIP3    H240012   0.181   1.020  17.556 -0.5437  1.9866  0.0075
 5273TIP3   OH240013   4.257   0.131  17.750 -0.4768 -0.1377 -0.0137
 5273TIP3    H140014   4.170   0.136  17.709 -0.3404  1.1720 -0.1709
 5273TIP3    H240015   4.313   0.183  17.694  0.4969 -1.2098 -0.0656
 5274TIP3   OH240016   7.218   2.080  17.671  0.3523  0.0729  0.5648
 5274TIP3    H140017   7.238   1.993  17.639  1.9760 -0.3306  2.4519
 5274TIP3    H240018   7.232   2.138  17.596  0.3940 -1.1587 -0.3968
 5275TIP3   OH240019   1.829   7.412  16.685  0.1056  0.2169 -0.3673
 5275TIP3    H140020   1.902   7.471  16.699 -0.6623  1.2058 -0.3698
 5275TIP3    H240021   1.775   7.456  16.619 -1.6258  0.6428  1.2159
 5276TIP3   OH240022   1.571   0.922  17.582  0.1613 -0.1922  0.6493
 5276TIP3    H140023   1.625   0.844  17.594 -0.7369 -0.9504 -0.1495
 5276TIP3    H240024   1.575   0.940  17.488 -0.2521  0.2762  0.7194
 5277TIP3   OH240025   0.545   2.171  16.996  0.5058  0.0635  0.0931
 5277TIP3    H140026   0.458   2.132  17.006  1.0964 -1.6427 -0.9465
 5277TIP3    H240027   0.533   2.239  16.930 -0.0354 -0.2150 -0.1042
 5278TIP3   OH240028   1.075   2.025  18.569  0.1065 -0.1457  0.2396
 5278TIP3    H140029   1.017   2.092  18.604  0.7369  1.0616 -0.9100
 5278TIP3    H240030   1.018   1.951  18.551 -1.3723  1.3746 -1.8918
 5279TIP3   OH240031   6.766   6.876  18.239 -0.1351  0.2330 -0.1679
 5279TIP3    H140032   6.761   6.851  18.147 -1.5127  1.7227 -0.5319
 5279TIP3    H240033   6.837   6.941  18.243 -0.8345  1.0165 -0.3944
 5280TIP3   OH240034   7.557   0.338  17.846 -0.0292  0.4427  0.1508
 5280TIP3    H140035   7.471   0.299  17.865 -0.0428  0.2914 -0.2230
 5280TIP3    H240036   7.612   0.264  17.821 -0.4258  0.7925 -1.9325
 5281TIP3   OH240037   7.233   1.502  17.775 -0.2549 -0.3684 -0.2063
 5281TIP3    H140038   7.151   1.510  17.824 -0.5255 -0.0990 -0.6917
 5281TIP3    H240039   7.299   1.543  17.831 -0.3994 -0.8265  0.3069
 5282TIP3   OH240040   2.350   2.439  17.442  0.0011 -0.4021  0.1692
 5282TIP3    H140041   2.356   2.343  17.443 -2.8630 -0.7198  2.7915
 5282TIP3    H240042   2.319   2.460  17.354 -1.2447 -2.1163  0.1479
 5283TIP3   OH240043   2.505   5.738  17.364  0.2152 -0.3483 -0.0491
 5283TIP3    H140044   2.463   5.747  17.279  0.5179 -2.6870 -0.5065
 5283TIP3    H240045   2.433   5.727  17.426  0.0525 -1.3463 -0.4035
 5284TIP3   OH240046   2.065   7.556  16.723 -0.2621 -0.1563  0.8616
 5284TIP3    H140047   2.154   7.536  16.696 -0.4544  1.5632 -1.3695
 5284TIP3    H240048   2.063   7.652  16.731 -1.9188 -0.1400  0.6888
 5285TIP3   OH240049   0.423   4.659  19.393  0.4708 -0.0351  0.5383
 5285TIP3    H140050   0.346   4.696  19.349  1.9795 -0.1092 -2.4564
 5285TIP3    H240051   0.390   4.580  19.436 -0.9071 -1.0179 -2.1026
 5286TIP3   OH240052   1.573   4.887  18.100  0.2382  0.1772  0.2982
 5286TIP3    H140053   1.595   4.940  18.023 -0.5422  1.4701  0.9369
 5286TIP3    H240054   1.627   4.809  18.091 -0.3164 -0.0209 -1.9218
 5287TIP3   OH240055   4.279   7.468  18.479 -0.6488  0.0681  0.1440
 5287TIP3    H140056   4.199   7.461  18.427 -1.7348  2.3587  1.3492
 5287TIP3    H240057   4.253   7.439  18.567  0.3556 -0.8771  0.1510
 5288TIP3   OH240058   1.827   5.227  17.424  0.6280  0.4381  0.0410
 5288TIP3    H140059   1.905   5.221  17.479  0.7471  0.2575 -0.1446
 5288TIP3    H240060   1.846   5.171  17.348  0.2160  0.1889  0.1164
 5289TIP3   OH240061   5.034   1.310  18.403 -0.0974 -0.2303 -0.0661
 5289TIP3    H140062   5.076   1.267  18.329  0.4326  0.6354 -0.2825
 5289TIP3    H240063   4.959   1.254  18.425  0.5811 -1.2596 -0.3207
 5290TIP3   OH240064   0.325   7.231  16.686  0.4615  0.4409 -0.3873
 5290TIP3    H140065   0.299   7.139  16.691  1.8466  0.0622  0.3406
 5290TIP3    H240066   0.245   7.277  16.663 -0.4795 -0.8274  0.2213
 5291TIP3   OH240067   6.634   3.248  19.280 -0.5795  0.3772  0.1225
 5291TIP3    H140068   6.541   3.232  19.295 -0.6638  0.1269 -0.6131
 5291TIP3    H240069   6.675   3.162  19.286 -0.2593  0.5851  1.2508
 5292TIP3   OH240070   3.207   7.080  16.982  0.0398 -0.0822 -0.2313
 5292TIP3    H140071   3.182   7.062  16.891 -0.0785  0.4880 -0.3144
 5292TIP3    H240072   3.148   7.027  17.034  1.1590 -1.6682 -0.5148
 5293TIP3   OH240073   0.342   6.902  17.452 -0.3468  0.7776 -0.2049
 5293TIP3    H140074   0.356   6.997  17.456 -0.6534  0.8962 -1.6102
 5293TIP3    H240075   0.275   6.890  17.385 -2.3206 -0.2599  1.8267
 5294TIP3   OH240076   0.204   1.165  16.987 -0.1497  0.5656 -0.1437
 5294TIP3    H140077   0.252   1.215  16.921  0.4703  0.7301  0.4155
 5294TIP3    H240078   0.268   1.100  17.018 -0.9404 -0.5895 -0.8650
 5295TIP3   OH240079   5.973   5.331  18.016 -0.4882 -0.1778 -0.5540
 5295TIP3    H140080   5.981   5.398  17.948 -0.0248  1.1055  0.7337
 5295TIP3    H240081   5.933   5.256  17.970 -1.3225  1.0642 -1.9594
 5296TIP3   OH240082   1.434   4.550  17.711  0.1327 -0.2674 -0.0594
 5296TIP3    H140083   1.403   4.466  17.743  1.5162 -0.2544  1.4386
 5296TIP3    H240084   1.527   4.537  17.694 -0.1680  0.2292 -2.5542
 5297TIP3   OH240085   6.739   1.474  18.145  0.2822 -0.2893 -0.0837
 5297TIP3    H140086   6.727   1.567  18.128 -2.2133  0.0075  2.5469
 5297TIP3    H240087   6.702   1.431  18.068  1.0714  0.8256 -1.1357
 5298TIP3   OH240088   0.486   2.471  19.324 -0.2184  0.0446  0.4843
 5298TIP3    H140089   0.511   2.563  19.315 -0.6343  0.1665  0.5739
 5298TIP3    H240090   0.560   2.431  19.371  0.1917  0.2212 -0.0007
 5299TIP3   OH240091   3.003   3.929  18.355 -0.2351 -0.4410  0.1804
 5299TIP3    H140092   3.057   3.892  18.285  1.1681  1.4524  0.1886
 5299TIP3    H240093   3.023   3.876  18.432  1.5763  0.1382  0.1452
 5300TIP3   OH240094   0.654   2.173  18.829 -0.4907  0.1716 -0.1734
 5300TIP3    H140095   0.675   2.263  18.856  0.9753 -0.0535 -0.4984
 5300TIP3    H240096   0.645   2.125  18.912  0.1426  0.3096 -0.0246
 5301TIP3   OH240097   0.588   3.940  16.869 -0.0588 -0.5588  0.0407
 5301TIP3    H140098   0.665   3.977  16.825  0.5443  1.3096  2.4118
 5301TIP3    H240099   0.516   3.953  16.807  1.0614  0.1928 -1.1481
 5302TIP3   OH240100   3.199   5.247  17.836  0.2067  0.1286  0.3615
 5302TIP3    H140101   3.285   5.213  17.863  0.0222 -1.8759 -1.2920
 5302TIP3    H240102   3.138   5.176  17.856 -0.6304  0.4678 -0.8567
 5303TIP3   OH240103   3.688   6.223  17.820 -0.3520 -0.1160 -0.0452
 5303TIP3    H140104   3.742   6.288  17.865  0.2544  0.3423 -1.3822
 5303TIP3    H240105   3.748   6.177  17.762 -0.3112 -3.3681  2.3014
 5304TIP3   OH240106   4.818   6.798  17.919  0.1055 -0.0981  0.7136
 5304TIP3    H140107   4.766   6.864  17.966 -1.3475 -0.4208 -0.3638
 5304TIP3    H240108   4.896   6.844  17.891 -1.9337  1.9627 -2.1136
 5305TIP3   OH240109   3.452   5.598  17.735  0.5652 -0.1384 -0.0956
 5305TIP3    H140110   3.465   5.650  17.815 -0.0057 -0.4713  0.2192
 5305TIP3    H240111   3.471   5.659  17.664  1.2765  0.1101  0.2883
 5306TIP3   OH240112   2.327   7.281  18.799 -0.4407 -0.1324  0.2453
 5306TIP3    H140113   2.307   7.283  18.705 -1.3405  1.1852  0.4383
 5306TIP3    H240114   2.385   7.357  18.813 -0.4774 -0.2010  0.7937
 5307TIP3   OH240115   7.300   0.881  17.342  0.8981  0.2882  0.2146
 5307TIP3    H140116   7.349   0.835  17.273 -2.3520 -3.4896  0.0652
 5307TIP3    H240117   7.317   0.830  17.421 -0.6579  0.4937  0.7069
 5308TIP3   OH240118   4.196   5.980  18.784 -0.5933 -0.0162 -0.3890
 5308TIP3    H140119   4.152   5.949  18.704 -0.8876 -0.0088 -0.2299
 5308TIP3    H240120   4.203   6.075  18.771 -1.3874  0.0983 -0.0439
 5309TIP3   OH240121   2.709   6.995  19.133  0.0278 -0.1935  0.4871
 5309TIP3    H140122   2.677   7.035  19.215  1.6935 -2.5927  2.4573
 5309TIP3    H240123   2.796   7.033  19.121 -0.5817  0.8663 -0.7714
 5310TIP3   OH240124   6.505   7.493  17.389  0.8988 -0.2197  0.4958
 5310TIP3    H140125   6.595   7.525  17.388  0.5330  1.0975  3.1392
 5310TIP3    H240126   6.506   7.419  17.450  0.3110 -0.6255  0.0264
 5311TIP3   OH240127   5.458   6.128  19.012 -0.6667 -0.5356 -0.0497
 5311TIP3    H140128   5.434   6.048  18.964 -1.0410 -0.0899 -0.6194
 5311TIP3    H240129   5.420   6.199  18.960 -0.7783 -0.0178  0.7301
 5312TIP3   OH240130   3.022   6.355  17.723  0.4323 -0.1254 -0.4138
 5312TIP3    H140131   2.991   6.431  17.772  1.4231  0.1357 -0.1693
 5312TIP3    H240132   3.062   6.299  17.789  0.4525 -0.4717 -0.7162
 5313TIP3   OH240133   3.108   6.153  17.923  0.8297  0.1698 -0.3984
 5313TIP3    H140134   3.036   6.097  17.891  0.5138  0.7512 -0.7282
 5313TIP3    H240135   3.114   6.133  18.016  0.3502 -0.0145 -0.4009
 5314TIP3   OH240136   0.639   5.479  16.972 -0.0903  0.5689  0.0127
 5314TIP3    H140137   0.582   5.408  17.002  1.2395  0.8451  3.6699
 5314TIP3    H240138   0.725   5.456  17.004  0.5545  3.4071  0.5605
 5315TIP3   OH240139   4.235   6.645  18.931 -0.3828  0.4031  0.2242
 5315TIP3    H140140   4.169   6.710  18.908  1.0745  0.9502 -2.9851
 5315TIP3    H240141   4.185   6.568  18.958 -2.2310  1.6584  0.5365
 5316TIP3   OH240142   1.230   6.523  17.742  0.7626  0.1491 -0.3423
 5316TIP3    H140143   1.231   6.591  17.809 -0.0694 -1.4530  1.3843
 5316TIP3    H240144   1.154   6.545  17.688  0.9340  0.9909 -0.2567
 5317TIP3   OH240145   2.830   2.242  17.908 -0.1988 -0.8190  0.3613
 5317TIP3    H140146   2.820   2.269  17.999  0.6742 -1.4424  0.6501
 5317TIP3    H240147   2.753   2.279  17.864 -1.2676 -1.5085  1.5655
 5318TIP3   OH240148   3.351   7.517  18.370  0.3996 -0.3661  0.3502
 5318TIP3    H140149   3.367   7.544  18.460  0.8836  1.7735 -0.3097
 5318TIP3    H240150   3.380   7.592  18.317 -1.7234 -0.7195 -1.4794
 5319TIP3   OH240151   0.018   7.203  18.287  0.7497  0.6874  0.5081
 5319TIP3    H140152   0.057   7.134  18.341 -1.3237 -0.7999  0.1954
 5319TIP3    H240153  -0.006   7.272  18.350  0.3169 -0.0850  1.2073
 5320TIP3   OH240154   0.488   2.804  17.611 -0.4145  0.4037 -0.0618
 5320TIP3    H140155   0.496   2.872  17.545 -1.3081  0.4333 -0.1448
 5320TIP3    H240156   0.564   2.817  17.668 -0.1808  0.9963 -0.4972
 5321TIP3   OH240157   2.652   0.791  17.331  0.3456 -0.1426  0.0604
 5321TIP3    H140158   2.706   0.781  17.409  0.6053 -1.5518 -0.2851
 5321TIP3    H240159   2.651   0.886  17.314 -0.3491  0.2847  2.1963
 5322TIP3   OH240160   0.617   2.329  17.765  0.1061  0.6170 -0.6356
 5322TIP3    H140161   0.596   2.270  17.839 -1.4698  0.4347 -1.1885
 5322TIP3    H240162   0.568   2.409  17.784 -1.5357  0.0372 -2.1814
 5323TIP3   OH240163   1.650   0.254  18.880 -0.6908  0.0572  0.4317
 5323TIP3    H140164   1.692   0.199  18.947 -0.5168  0.6480  0.8176
 5323TIP3    H240165   1.614   0.192  18.817  0.0032 -0.4831  0.5569
 5324TIP3   OH240166   3.604   4.066  19.265  0.3469  0.4407  0.1866
 5324TIP3    H140167   3.513   4.041  19.280  0.4901  0.3984  0.9892
 5324TIP3    H240168   3.655   3.989  19.292  0.6333  0.4981 -0.1734
 5325TIP3   OH240169   4.426   2.373  18.705 -0.0520 -0.2846 -0.1009
 5325TIP3    H140170   4.463   2.333  18.627 -1.6344 -0.8901 -0.5656
 5325TIP3    H240171   4.456   2.464  18.702  3.2610 -1.1970  0.7480
 5326TIP3   OH240172   7.192   2.028  17.081 -0.1979  0.0470 -0.0585
 5326TIP3    H140173   7.142   2.107  17.062 -0.9519 -0.3512  0.2680
 5326TIP3    H240174   7.207   1.989  16.995 -0.8529 -0.0795 -0.1158
 5327TIP3   OH240175   1.900   2.197  17.954 -0.1719 -0.4107  0.2003
 5327TIP3    H140176   1.807   2.186  17.934  0.2836 -1.4079 -1.5360
 5327TIP3    H240177   1.927   2.273  17.902  0.4758 -1.5553 -1.2158
 5328TIP3   OH240178   7.513   6.280  17.093 -1.2207 -0.3094 -0.0812
 5328TIP3    H140179   7.447   6.338  17.130 -1.7848 -1.4405  0.7371
 5328TIP3    H240180   7.473   6.247  17.012 -0.0669  2.0057 -1.7143
 5329TIP3   OH240181   6.643   6.625  17.683 -0.3342 -0.3054 -0.0655
 5329TIP3    H140182   6.631   6.720  17.680 -0.4343 -0.3299 -2.3576
 5329TIP3    H240183   6.737   6.612  17.675 -0.2817 -0.4017  0.6673
 5330TIP3   OH240184   6.709   0.723  17.640  0.3521  0.7842 -0.0316
 5330TIP3    H140185   6.804   0.711  17.633  0.2457 -1.9066  1.9404
 5330TIP3    H240186   6.673   0.671  17.568  0.3144  0.4606  0.2220
 5331TIP3   OH240187   1.947   4.563  19.100  0.4280 -0.5954  0.2409
 5331TIP3    H140188   1.862   4.575  19.142 -0.8852 -0.4227 -2.3084
 5331TIP3    H240189   2.006   4.622  19.149 -1.4636  1.1463  0.5567
 5332TIP3   OH240190   6.910   5.042  17.125  0.5001 -0.1861 -0.3562
 5332TIP3    H140191   6.862   4.979  17.071  1.6415 -0.6280 -0.8793
 5332TIP3    H240192   6.981   5.073  17.069  0.7179  0.6145  0.3363
 5333TIP3   OH240193   4.807   7.401  18.278 -0.2330 -0.1882 -0.4372
 5333TIP3    H140194   4.795   7.330  18.215  1.0663 -1.1847  0.3797
 5333TIP3    H240195   4.718   7.434  18.294 -0.9727 -2.0656 -0.3777
 5334TIP3   OH240196   3.020   1.228  18.550 -0.2047 -0.4117  0.6890
 5334TIP3    H140197   2.931   1.197  18.536 -0.4791  0.9008 -0.7270
 5334TIP3    H240198   3.075   1.168  18.499 -0.2196 -1.3853  1.7809
 5335TIP3   OH240199   0.353   1.457  19.273 -0.0329 -0.3631  0.1946
 5335TIP3    H140200   0.276   1.484  19.322 -0.0128  0.1919 -0.0699
 5335TIP3    H240201   0.425   1.505  19.313 -0.1790  1.0199 -1.1037
 5336TIP3   OH240202   4.633   6.095  17.051 -0.0704  0.4457  0.3927
 5336TIP3    H140203   4.635   6.123  16.960  3.6640 -1.7736 -0.4534
 5336TIP3    H240204   4.706   6.141  17.092 -1.0813  0.6590  2.0313
 5337TIP3   OH240205   0.093   6.571  18.145 -0.1263 -0.7553  0.0888
 5337TIP3    H140206   0.071   6.632  18.216 -1.8200 -1.2103  0.0133
 5337TIP3    H240207   0.012   6.523  18.130 -0.3715  0.4230 -3.2748
 5338TIP3   OH240208   3.826   4.798  18.822 -0.3294 -0.2338 -0.0975
 5338TIP3    H140209   3.904   4.811  18.877 -0.4740 -1.8105  0.5368
 5338TIP3    H240210   3.799   4.708  18.840 -1.5176 -0.1534 -1.3358
 5339TIP3   OH240211   5.460   2.119  16.863 -0.4416 -0.0683  0.2048
 5339TIP3    H140212   5.517   2.115  16.786 -0.4323 -0.8077  0.2448
 5339TIP3    H240213   5.405   2.196  16.848  0.3034  0.4234 -0.0167
 5340TIP3   OH240214   4.897   0.641  16.594  0.1717  0.0011  0.0607
 5340TIP3    H140215   4.977   0.639  16.541 -0.1628 -0.3730 -0.4421
 5340TIP3    H240216   4.912   0.577  16.663 -0.0819 -0.8361 -0.6322
 5341TIP3   OH240217   2.189   4.775  18.734 -0.1930  0.1342  0.0282
 5341TIP3    H140218   2.228   4.779  18.821 -1.4540 -0.1216  0.6269
 5341TIP3    H240219   2.246   4.829  18.679  0.1334  1.0069  1.1947
 5342TIP3   OH240220   0.168   0.053  18.502 -0.4173 -0.1045  0.7408
 5342TIP3    H140221   0.160   0.135  18.454  1.1886 -0.0884  0.4417
 5342TIP3    H240222   0.078   0.030  18.525 -1.1045  0.6275 -1.0087
 5343TIP3   OH240223   6.790   4.599  17.305  0.1920  0.2478  0.0748
 5343TIP3    H140224   6.707   4.554  17.291  0.2214  0.3767 -0.5246
 5343TIP3    H240225   6.766   4.682  17.347 -0.2777  1.5189 -2.4922
 5344TIP3   OH240226   3.104   3.427  18.717  0.5573 -0.2966  0.3549
 5344TIP3    H140227   3.111   3.521  18.734  1.6455 -0.2760 -0.0839
 5344TIP3    H240228   3.100   3.387  18.804  1.0980  0.1030  0.5733
 5345TIP3   OH240229   5.080   1.022  17.376  0.1506  0.0712 -0.5594
 5345TIP3    H140230   5.134   1.086  17.328  0.7100  0.3635  0.4273
 5345TIP3    H240231   5.107   1.032  17.467 -0.7382 -0.6272 -0.2059
 5346TIP3   OH240232   2.458   2.644  18.779 -0.0236 -0.3187 -0.2939
 5346TIP3    H140233   2.543   2.599  18.786  0.2571  0.4235  2.1511
 5346TIP3    H240234   2.477   2.725  18.733  0.2234 -0.9010 -1.2590
 5347TIP3   OH240235   2.546   7.088  18.530  0.0675 -0.0905  0.3746
 5347TIP3    H140236   2.575   7.103  18.620  0.8056  1.6719 -0.1059
 5347TIP3    H240237   2.625   7.098  18.477 -0.5720  0.0958 -0.5756
 5348TIP3   OH240238   3.067   6.449  18.201 -0.0111  0.0756 -0.1149
 5348TIP3    H140239   3.052   6.383  18.269 -1.4030  1.3945  0.9355
 5348TIP3    H240240   2.994   6.438  18.140  1.0149 -0.8349 -1.2329
 5349TIP3   OH240241   6.059   1.923  17.345  0.0688 -0.2582  0.3480
 5349TIP3    H140242   6.036   1.957  17.258 -0.3441 -0.6480  0.3011
 5349TIP3    H240243   5.996   1.852  17.361  1.0022 -1.1016  0.3850
 5350TIP3   OH240244   3.774   3.517  17.811  0.0052 -0.0587  1.0988
 5350TIP3    H140245   3.835   3.587  17.836 -1.0827  1.6923 -0.8297
 5350TIP3    H240246   3.697   3.531  17.867  0.3137 -0.6092  1.6748
 5351TIP3   OH240247   7.102   0.989  18.076  0.0380 -0.2190 -0.0329
 5351TIP3    H140248   7.147   1.070  18.052 -0.9178  0.3444  0.0101
 5351TIP3    H240249   7.010   1.014  18.079 -0.1316 -0.9644  1.4065
 5352TIP3   OH240250   1.091   4.838  19.129 -0.0692  0.4911  0.2775
 5352TIP3    H140251   1.041   4.914  19.101 -0.4059 -0.2867 -1.2982
 5352TIP3    H240252   1.079   4.773  19.060  1.9998 -0.2244  0.4955
 5353TIP3   OH240253   3.979   3.059  16.759 -0.0225  0.4860 -0.2728
 5353TIP3    H140254   3.950   2.970  16.740 -0.6563  0.5709  0.2600
 5353TIP3    H240255   3.905   3.100  16.804  1.0352  0.5728  1.5009
 5354TIP3   OH240256   5.020   6.422  18.808 -0.4930 -0.2209 -0.0527
 5354TIP3    H140257   5.049   6.511  18.787 -1.9570 -0.1728 -2.1806
 5354TIP3    H240258   4.934   6.414  18.766 -1.5357 -1.8434  2.1698
 5355TIP3   OH240259   0.665   2.923  17.998  0.0809 -0.3833 -0.1548
 5355TIP3    H140260   0.664   3.017  18.011  1.3805 -0.1922 -1.2531
 5355TIP3    H240261   0.722   2.890  18.068 -0.7592 -0.4292  0.5269
 5356TIP3   OH240262   4.726   3.101  17.253  0.0503  0.3849 -0.1819
 5356TIP3    H140263   4.794   3.068  17.312  0.9715  0.1574 -1.3249
 5356TIP3    H240264   4.678   3.023  17.226 -0.3385  0.4831  0.2141
 5357TIP3   OH240265   6.880   4.861  18.182 -0.0728 -0.5474  0.0574
 5357TIP3    H140266   6.936   4.861  18.104  0.4975 -0.3423  0.4562
 5357TIP3    H240267   6.848   4.950  18.189 -0.1612 -0.5772  0.0280
 5358TIP3   OH240268   5.755   2.954  17.219 -0.1451 -0.7360 -0.0526
 5358TIP3    H140269   5.694   2.904  17.166 -0.7371 -0.0265 -0.0526
 5358TIP3    H240270   5.788   2.892  17.284 -0.8474 -1.1284 -0.0649
 5359TIP3   OH240271   5.723   1.359  17.300 -0.2170 -0.2337  0.2038
 5359TIP3    H140272   5.693   1.268  17.294  0.5447 -0.5096  0.4786
 5359TIP3    H240273   5.793   1.365  17.235  0.5217 -0.1761  0.9764
 5360TIP3   OH240274   2.398   0.640  17.565  0.5707 -0.9259  0.4848
 5360TIP3    H140275   2.386   0.664  17.473  1.8246 -0.3363  0.4520
 5360TIP3    H240276   2.401   0.545  17.565  1.1411 -0.9137 -0.1726
 5361TIP3   OH240277   6.633   3.163  17.485 -0.5992 -0.1260 -0.6945
 5361TIP3    H140278   6.594   3.250  17.493 -1.2219 -0.4340 -0.2737
 5361TIP3    H240279   6.572   3.115  17.428 -0.7331 -0.5450 -0.2127
 5362TIP3   OH240280   0.500   4.300  18.936 -0.5594  0.1117 -0.3144
 5362TIP3    H140281   0.434   4.288  19.004 -1.4208  3.8516 -0.2938
 5362TIP3    H240282   0.583   4.293  18.982 -1.0902  0.6529  0.7586
 5363TIP3   OH240283   6.019   6.022  17.220 -0.3178  1.0136 -0.0547
 5363TIP3    H140284   6.083   6.056  17.282 -0.1564  0.5028  0.0589
 5363TIP3    H240285   5.935   6.026  17.266 -0.2580  1.0038  0.0535
 5364TIP3   OH240286   4.823   6.657  17.502  0.1168  0.0409  0.1989
 5364TIP3    H140287   4.847   6.570  17.533 -1.1120 -0.8795 -1.2918
 5364TIP3    H240288   4.733   6.648  17.472  0.4351  1.4628 -1.3254
 5365TIP3   OH240289   6.609   1.100  18.891 -0.1969  0.9268  0.3323
 5365TIP3    H140290   6.687   1.143  18.857 -0.7551  1.3520 -0.4328
 5365TIP3    H240291   6.591   1.144  18.974  1.0970 -0.0279  1.1644
 5366TIP3   OH240292   0.368   3.989  18.747  0.2887 -0.2655 -0.0543
 5366TIP3    H140293   0.378   3.985  18.842  2.9709  0.8301 -0.2084
 5366TIP3    H240294   0.311   3.915  18.726 -0.0123 -0.7977  2.3501
 5367TIP3   OH240295   5.931   1.236  16.441 -0.6034  0.0300  0.5530
 5367TIP3    H140296   5.986   1.305  16.477  0.2793 -0.7879  0.7958
 5367TIP3    H240297   5.986   1.157  16.442 -1.8622 -0.8814  1.1068
 5368TIP3   OH240298   5.800   1.399  18.842  0.2952 -0.2500 -0.4486
 5368TIP3    H140299   5.803   1.333  18.911 -1.0495  0.7459  0.6084
 5368TIP3    H240300   5.770   1.479  18.886  0.2003  0.6297 -2.0306
 5369TIP3   OH240301   5.949   1.446  18.244 -0.1608  0.1232 -0.6519
 5369TIP3    H140302   5.934   1.358  18.279 -0.4820  0.2512 -0.4630
 5369TIP3    H240303   6.032   1.439  18.196  0.4977  0.0335  0.4613
 5370TIP3   OH240304   7.011   4.086  18.615 -0.7800  0.2742  0.5781
 5370TIP3    H140305   6.973   4.137  18.543 -0.6999 -3.2302 -2.2200
 5370TIP3    H240306   6.963   4.003  18.614  1.8437 -1.4129  2.0075
 5371TIP3   OH240307   4.037   7.039  17.829  0.0967  0.1383 -0.0043
 5371TIP3    H140308   3.953   7.024  17.873  0.3921 -0.2597  0.4298
 5371TIP3    H240309   4.079   7.108  17.881  0.6217 -0.6187  0.5853
 5372TIP3   OH240310   6.833   4.955  19.502 -0.2063 -0.0713 -0.4497
 5372TIP3    H140311   6.774   5.026  19.478  0.9543  0.4101 -2.0302
 5372TIP3    H240312   6.781   4.876  19.491 -1.8850  0.4782  2.4443
 5373TIP3   OH240313   2.535   1.430  19.224  0.0054 -0.0866 -0.7714
 5373TIP3    H140314   2.500   1.364  19.165 -0.1736 -2.8631  2.1581
 5373TIP3    H240315   2.627   1.440  19.197  0.6296 -3.1402 -0.1713
 5374TIP3   OH240316   1.734   4.467  17.836 -0.1611 -0.2868 -0.8314
 5374TIP3    H140317   1.700   4.484  17.749  0.1815  1.9621 -0.5797
 5374TIP3    H240318   1.829   4.471  17.826 -0.0971 -0.7535 -0.4746
 5375TIP3   OH240319   2.973   4.143  16.922  0.0769  0.1356 -0.3247
 5375TIP3    H140320   3.066   4.157  16.936 -0.0497 -0.6691  1.6152
 5375TIP3    H240321   2.964   4.049  16.908 -0.5152  0.1037  0.2155
 5376TIP3   OH240322   3.931   1.570  18.945 -0.5030 -0.6759  0.4132
 5376TIP3    H140323   3.875   1.492  18.943  1.0820 -1.8493 -1.1798
 5376TIP3    H240324   3.900   1.623  18.871 -1.1818 -0.0404  1.1310
 5377TIP3   OH240325   3.180   3.144  18.129  0.3185  0.1468 -0.0642
 5377TIP3    H140326   3.216   3.070  18.080  1.4402 -0.0766  1.0354
 5377TIP3    H240327   3.162   3.108  18.216 -0.2909  0.8750  0.1233
 5378TIP3   OH240328   4.624   0.383  17.382  0.2152 -0.1439  0.0772
 5378TIP3    H140329   4.637   0.394  17.288  0.7585 -0.9352  0.0445
 5378TIP3    H240330   4.651   0.466  17.421 -0.7535  0.4613 -0.5218
 5379TIP3   OH240331   2.061   5.393  18.979  0.3819  0.1043  0.5792
 5379TIP3    H140332   1.985   5.445  19.005 -1.5975 -2.5129  0.3899
 5379TIP3    H240333   2.111   5.382  19.060 -0.1958  0.6285  1.0202
 5380TIP3   OH240334   7.045   1.462  17.189 -0.7939  0.1513 -0.1958
 5380TIP3    H140335   7.025   1.553  17.169  0.5453  0.2156 -1.4527
 5380TIP3    H240336   7.081   1.427  17.107  0.9437 -0.8323  0.9294
 5381TIP3   OH240337   4.292   6.862  18.461 -0.8143 -0.7497 -0.0862
 5381TIP3    H140338   4.383   6.887  18.442 -0.7470 -0.4058  0.6120
 5381TIP3    H240339   4.268   6.919  18.535 -0.8696 -2.3389  1.1754
 5382TIP3   OH240340   0.800   1.282  17.903  0.7976  0.2455 -0.0040
 5382TIP3    H140341   0.842   1.196  17.908 -2.1240 -1.2118  2.7757
 5382TIP3    H240342   0.815   1.321  17.989  1.2490  2.1814 -0.9122
 5383TIP3   OH240343   5.912   3.823  18.767  0.2659  0.2278  0.2343
 5383TIP3    H140344   5.959   3.759  18.820 -1.2566 -1.2617 -0.1453
 5383TIP3    H240345   5.858   3.771  18.708 -0.0179  1.8568 -1.0350
 5384TIP3   OH240346   3.589   4.118  18.193  0.5229  0.0732 -0.1620
 5384TIP3    H140347   3.590   4.158  18.107  1.3153 -0.4283 -0.4007
 5384TIP3    H240348   3.652   4.046  18.187 -1.2396 -1.6088  0.0586
 5385TIP3   OH240349   5.442   0.009  18.793  0.3046 -0.0207  0.0367
 5385TIP3    H140350   5.408   0.045  18.875 -0.8903 -0.5870 -0.1899
 5385TIP3    H240351   5.406   0.065  18.725 -2.1366 -1.9142 -0.3765
 5386TIP3   OH240352   5.024   2.792  19.250 -0.0270  0.1343  0.3714
 5386TIP3    H140353   5.013   2.823  19.339  0.8230  2.7116 -0.3213
 5386TIP3    H240354   4.992   2.863  19.195  0.5828 -0.8673 -1.3954
 5387TIP3   OH240355   3.745   7.368  19.095  0.8007  0.0102  0.2839
 5387TIP3    H140356   3.732   7.295  19.035 -1.5603  1.2157 -0.8343
 5387TIP3    H240357   3.772   7.327  19.177  0.6152 -2.0177 -0.6048
 5388TIP3   OH240358   4.059   3.944  17.337 -0.3068 -0.5918  0.5014
 5388TIP3    H140359   3.999   3.876  17.365 -2.2222  1.1936  0.9421
 5388TIP3    H240360   4.033   3.964  17.247  0.1441 -0.3005  0.4299
 5389TIP3   OH240361   3.507   1.631  18.475  0.2600  0.1561  0.3146
 5389TIP3    H140362   3.495   1.672  18.561  2.0763  0.1032  0.6383
 5389TIP3    H240363   3.488   1.539  18.490  1.1410  0.0393  0.8417
 5390TIP3   OH240364   1.500   6.450  18.585 -0.5485  0.3309 -1.3148
 5390TIP3    H140365   1.556   6.527  18.581  0.0949  0.1093  1.3537
 5390TIP3    H240366   1.490   6.433  18.679 -1.9892 -1.8864 -1.8001
 5391TIP3   OH240367   1.620   0.699  10.370 -0.0190  0.0131 -0.2692
 5391TIP3    H140368   1.705   0.655  10.367 -0.3951 -0.6914 -0.9823
 5391TIP3    H240369   1.606   0.718  10.463  1.2715  0.8566 -0.2161
 5392TIP3   OH240370   0.765   0.106  11.675 -0.2548  0.2296  0.4101
 5392TIP3    H140371   0.773   0.026  11.623 -1.4701  1.0877 -1.1775
 5392TIP3    H240372   0.853   0.142  11.678  0.4177 -1.3884  1.5786
 5393TIP3   OH240373   5.635   6.193  12.538  0.1674 -0.3228  0.4231
 5393TIP3    H140374   5.568   6.167  12.474 -1.0150  1.0342  1.0453
 5393TIP3    H240375   5.659   6.282  12.512  0.4156 -0.1391  1.2698
 5394TIP3   OH240376   3.436   1.581  11.480  0.4215  0.1056 -0.0746
 5394TIP3    H140377   3.440   1.488  11.502  1.2699  0.1463 -0.0448
 5394TIP3    H240378   3.448   1.626  11.564  2.7724  0.2529 -0.4349
 5395TIP3   OH240379   5.926   3.079  11.826  0.4369  0.0604 -0.0585
 5395TIP3    H140380   5.945   3.168  11.795 -1.5651  0.1985 -1.0962
 5395TIP3    H240381   6.009   3.033  11.822  1.6034  1.9675  0.8279
 5396TIP3   OH240382   6.675   3.593  10.209 -0.1889 -0.2708  0.1530
 5396TIP3    H140383   6.669   3.578  10.114 -0.6223  1.2448 -0.0874
 5396TIP3    H240384   6.765   3.622  10.223 -0.3810  0.4053  0.0438
 5397TIP3   OH240385   0.692   5.284  10.409  0.2168 -0.1322 -0.3789
 5397TIP3    H140386   0.728   5.368  10.381  0.7066 -0.0322  0.5310
 5397TIP3    H240387   0.598   5.300  10.417  0.5445  0.9791  1.9316
 5398TIP3   OH240388   3.451   1.637  11.756 -0.1667 -0.2752 -0.2573
 5398TIP3    H140389   3.470   1.710  11.815 -0.7185 -1.4548  1.4499
 5398TIP3    H240390   3.464   1.558  11.809 -0.7672 -1.4021 -1.6912
 5399TIP3   OH240391   0.926   4.266  11.392 -0.3571 -0.2917 -0.4067
 5399TIP3    H140392   0.929   4.179  11.431  1.5846 -0.6103 -1.1488
 5399TIP3    H240393   0.853   4.262  11.330  0.5682 -1.8996 -1.4692
 5400TIP3   OH240394   5.231   1.787  12.204 -0.5664 -0.0416  0.0638
 5400TIP3    H140395   5.172   1.812  12.132  1.0944  1.4001 -0.8828
 5400TIP3    H240396   5.210   1.849  12.274  0.2020  0.8658 -0.4921
 5401TIP3   OH240397   1.712   3.184  11.583 -0.2726 -0.3074  0.3379
 5401TIP3    H140398   1.777   3.240  11.540 -1.3162  0.3033 -0.5022
 5401TIP3    H240399   1.657   3.246  11.632  0.2015 -0.8861  1.6289
 5402TIP3   OH240400   1.656   2.159  12.265  0.4496 -0.0816  0.8246
 5402TIP3    H140401   1.662   2.142  12.171 -0.7520 -1.0325  0.8959
 5402TIP3    H240402   1.562   2.160  12.283  0.6505  0.6319  1.9303
 5403TIP3   OH240403   0.023   7.648  11.424 -0.7586 -0.0654  0.3253
 5403TIP3    H140404  -0.018   7.638  11.509 -0.1965 -0.7482  0.5323
 5403TIP3    H240405   0.082   7.723  11.433 -0.4035 -0.3803  0.6676
 5404TIP3   OH240406   1.501   4.128  11.020 -0.1514 -0.2591 -0.0230
 5404TIP3    H140407   1.496   4.057  11.084 -0.5304  0.9611  1.3672
 5404TIP3    H240408   1.585   4.115  10.976 -0.2004 -1.5322  0.2223
 5405TIP3   OH240409   1.014   6.624  12.750 -0.0890  0.3670 -0.2260
 5405TIP3    H140410   1.037   6.716  12.763  1.3695 -0.0050  0.0884
 5405TIP3    H240411   0.974   6.597  12.832 -1.0637  0.8646 -0.5314
 5406TIP3   OH240412   1.755   0.041  12.815 -0.0661  0.0910 -0.1717
 5406TIP3    H140413   1.713  -0.024  12.759  1.4668  0.2392 -1.5390
 5406TIP3    H240414   1.767  -0.004  12.899 -0.0104 -1.0206 -0.7632
 5407TIP3   OH240415   0.585   0.324  11.755  0.1361 -0.0005  0.1750
 5407TIP3    H140416   0.645   0.261  11.716 -0.0591  0.1810 -0.4276
 5407TIP3    H240417   0.595   0.311  11.849 -0.6171 -1.6168  0.0746
 5408TIP3   OH240418   7.502   0.387  11.008 -0.1779  0.0710 -0.5480
 5408TIP3    H140419   7.563   0.460  10.993  0.1775 -0.0538  0.2222
 5408TIP3    H240420   7.415   0.425  10.996  0.0516  0.1833 -1.9556
 5409TIP3   OH240421   6.528   4.037  12.370  0.3741  0.4000 -0.0725
 5409TIP3    H140422   6.540   3.983  12.292 -0.9746 -0.2881  0.1713
 5409TIP3    H240423   6.610   4.084  12.379  1.0178 -0.4653 -1.1740
 5410TIP3   OH240424   5.070   0.059  10.304  0.1999  0.0845  0.1574
 5410TIP3    H140425   5.107   0.145  10.285  2.1428 -0.8131 -0.3432
 5410TIP3    H240426   4.982   0.062  10.268 -0.3679  2.3662  1.5260
 5411TIP3   OH240427   2.090   3.871  12.165  0.2743  0.0675 -0.1423
 5411TIP3    H140428   2.185   3.873  12.181  0.1090 -0.8087  1.1452
 5411TIP3    H240429   2.078   3.921  12.085  1.6381  1.7537  0.6275
 5412TIP3   OH240430   1.342   4.369  11.442  0.3073  0.2373  0.3661
 5412TIP3    H140431   1.320   4.296  11.383  1.5694 -0.0646  0.2220
 5412TIP3    H240432   1.323   4.448  11.391  1.5860 -0.0193 -0.5789
 5413TIP3   OH240433   7.386   6.369  10.461  0.0130 -0.6317  0.1073
 5413TIP3    H140434   7.303   6.344  10.500 -0.5952 -1.3747 -1.5680
 5413TIP3    H240435   7.399   6.460  10.488 -0.4429 -1.0483  1.8334
 5414TIP3   OH240436   7.024   6.608  12.500  0.6121  0.8401 -0.2217
 5414TIP3    H140437   7.006   6.681  12.440  1.2229  1.7152  0.6145
 5414TIP3    H240438   7.119   6.604  12.504  0.5826  0.9672  0.8589
 5415TIP3   OH240439   7.451   6.994  12.038  0.1608 -0.7920 -0.0124
 5415TIP3    H140440   7.492   6.912  12.064 -0.9327 -1.0357  1.0234
 5415TIP3    H240441   7.460   7.051  12.114  0.2153 -0.2174 -0.4419
 5416TIP3   OH240442   0.284   5.324  12.088  0.0368 -0.0587 -0.0255
 5416TIP3    H140443   0.313   5.233  12.098  2.3340  0.7042  0.9651
 5416TIP3    H240444   0.355   5.367  12.040 -0.8230  1.2995 -0.1359
 5417TIP3   OH240445   1.037   3.997  11.488 -0.1990  0.2631 -0.0626
 5417TIP3    H140446   1.121   4.043  11.485  1.0723 -1.9902 -0.9629
 5417TIP3    H240447   1.046   3.934  11.560 -1.3633  0.3827  0.2119
 5418TIP3   OH240448   6.729   7.605  11.947  0.0177  0.3759 -0.0005
 5418TIP3    H140449   6.686   7.524  11.919 -0.2379  0.7907 -0.8514
 5418TIP3    H240450   6.758   7.646  11.865 -0.1010  1.2749  0.3928
 5419TIP3   OH240451   2.171   7.363  12.367  0.4323 -0.9880  0.4142
 5419TIP3    H140452   2.220   7.363  12.449  0.6781 -0.2873  0.2727
 5419TIP3    H240453   2.239   7.360  12.299  0.3644  1.3025  0.1828
 5420TIP3   OH240454   0.754   5.678  13.175 -0.3372  0.7992 -0.1806
 5420TIP3    H140455   0.664   5.659  13.150 -0.4101  0.2292  0.4612
 5420TIP3    H240456   0.795   5.591  13.180  0.1600  1.0356 -0.1563
 5421TIP3   OH240457   3.266   0.685  10.973 -0.1610  0.7929  0.9243
 5421TIP3    H140458   3.188   0.702  11.027  0.0269  1.4262  1.0038
 5421TIP3    H240459   3.330   0.750  11.002  0.1765  0.6978  0.4076
 5422TIP3   OH240460   5.410   0.872  10.729  0.0605 -0.0659  0.1202
 5422TIP3    H140461   5.441   0.811  10.796  0.8065 -0.2962 -0.4222
 5422TIP3    H240462   5.489   0.895  10.680 -0.2073  1.3074  0.2944
 5423TIP3   OH240463   6.530   5.353  12.749  0.3103  0.7029  0.0413
 5423TIP3    H140464   6.441   5.323  12.733  0.6400  0.3757 -1.2853
 5423TIP3    H240465   6.542   5.343  12.844 -0.6148 -0.4875  0.0513
 5424TIP3   OH240466   0.443   6.528  10.662  0.3343  0.3063  0.4758
 5424TIP3    H140467   0.480   6.542  10.575 -1.9509  0.6548 -0.4989
 5424TIP3    H240468   0.378   6.458  10.651 -0.8593  1.1768  1.6221
 5425TIP3   OH240469   7.336   3.056  11.995 -0.8846  0.2328  0.1038
 5425TIP3    H140470   7.281   3.004  11.936 -1.2771 -1.6746  2.0217
 5425TIP3    H240471   7.283   3.066  12.074  0.3377  1.0914  0.8388
 5426TIP3   OH240472   7.218   1.189  12.403  0.0805  0.2565  0.6721
 5426TIP3    H140473   7.177   1.215  12.320  0.7812 -1.0275 -0.1056
 5426TIP3    H240474   7.300   1.237  12.406  0.0903  0.2458  0.5745
 5427TIP3   OH240475   6.977   3.638  10.663  0.4523  0.1868  0.5266
 5427TIP3    H140476   6.932   3.558  10.634  0.0268 -0.4338  2.7094
 5427TIP3    H240477   7.070   3.615  10.661  0.2867 -0.8362  2.2314
 5428TIP3   OH240478   1.280   3.628  12.617 -0.0137 -0.1024 -0.5737
 5428TIP3    H140479   1.234   3.709  12.638 -0.0020 -0.0107 -0.8942
 5428TIP3    H240480   1.333   3.609  12.695  0.0754  0.2639 -0.5443
 5429TIP3   OH240481   1.301   0.703  12.564 -0.0428  0.3283  0.3121
 5429TIP3    H140482   1.385   0.747  12.553  1.4734 -2.6324 -1.0333
 5429TIP3    H240483   1.302   0.672  12.655  1.2694 -1.3083 -0.2047
 5430TIP3   OH240484   4.674   5.604  10.612 -0.3899 -0.2978  0.1823
 5430TIP3    H140485   4.761   5.640  10.634  0.0896 -2.2506  1.8308
 5430TIP3    H240486   4.626   5.608  10.695 -1.2815 -0.8110 -0.3002
 5431TIP3   OH240487   1.795   6.284  12.550  0.0969 -0.4966 -0.1793
 5431TIP3    H140488   1.838   6.204  12.522  1.3401 -0.0335  0.3510
 5431TIP3    H240489   1.841   6.310  12.630  0.2143  1.1346 -0.7402
 5432TIP3   OH240490   4.797   4.595  12.052  0.2899  0.2837 -0.5074
 5432TIP3    H140491   4.777   4.505  12.077 -0.4032  0.3637 -0.7516
 5432TIP3    H240492   4.890   4.605  12.071  0.6527 -0.8495 -1.5455
 5433TIP3   OH240493   0.249   4.780  11.906  0.4612 -0.0814  0.0145
 5433TIP3    H140494   0.204   4.708  11.861 -1.8488  1.3763 -0.1499
 5433TIP3    H240495   0.342   4.756  11.901 -0.0318 -1.9547 -1.9705
 5434TIP3   OH240496   2.382   5.695  12.834 -0.1065 -0.3534  0.1113
 5434TIP3    H140497   2.362   5.638  12.760  2.4308 -2.4467  0.8988
 5434TIP3    H240498   2.360   5.643  12.912  0.1058  0.6401  0.8565
 5435TIP3   OH240499   7.136   3.001  10.845 -0.7103  0.1946 -0.5478
 5435TIP3    H140500   7.145   3.066  10.775 -0.5492 -1.2642 -1.9269
 5435TIP3    H240501   7.127   3.054  10.925  1.5783  1.9003 -1.3081
 5436TIP3   OH240502   2.273   3.242  12.845  0.2485 -0.3796 -0.2443
 5436TIP3    H140503   2.237   3.204  12.764  1.4968 -1.6302 -0.2460
 5436TIP3    H240504   2.346   3.185  12.868  0.7379  0.7183  1.0634
 5437TIP3   OH240505   0.181   7.095  12.870 -0.7948 -0.5714  0.7824
 5437TIP3    H140506   0.131   7.020  12.902  0.3113 -0.9847  1.6097
 5437TIP3    H240507   0.272   7.077  12.896 -0.1823  0.1227 -0.7116
 5438TIP3   OH240508   5.919   0.932  10.822  0.2132  0.3998 -0.1937
 5438TIP3    H140509   5.981   0.992  10.863  1.2968  0.1671 -1.4268
 5438TIP3    H240510   5.970   0.854  10.802 -0.1837  0.5561 -2.0768
 5439TIP3   OH240511   3.796   4.941  11.247  0.1837  0.7764  0.1091
 5439TIP3    H140512   3.842   4.907  11.170 -3.2416  0.1570 -1.8803
 5439TIP3    H240513   3.767   4.863  11.294  1.3919  1.1560  1.5684
 5440TIP3   OH240514   0.462   5.656  10.592  0.4092 -0.2541 -0.5343
 5440TIP3    H140515   0.441   5.631  10.682 -0.4762  1.4817 -0.2126
 5440TIP3    H240516   0.542   5.707  10.599  0.2707 -0.0094 -0.7055
 5441TIP3   OH240517   5.008   0.767  12.089 -0.0739  0.0358  0.1222
 5441TIP3    H140518   4.926   0.803  12.122  0.3020  0.6530  0.4251
 5441TIP3    H240519   5.051   0.842  12.047  0.3628 -0.2615  0.0310
 5442TIP3   OH240520   1.451   2.427  12.565 -0.0556 -0.3309  0.0618
 5442TIP3    H140521   1.438   2.505  12.511  2.7241 -2.1356 -3.6912
 5442TIP3    H240522   1.517   2.452  12.629  0.7875  0.4757 -1.0815
 5443TIP3   OH240523   3.774   3.722  12.737  0.1054  0.2109  0.1511
 5443TIP3    H140524   3.722   3.649  12.703  0.0961  0.8990 -1.4098
 5443TIP3    H240525   3.864   3.698  12.719  0.0517  1.0036 -1.3320
 5444TIP3   OH240526   0.986   6.411  12.109 -0.3442 -0.4157  0.4141
 5444TIP3    H140527   1.066   6.379  12.150 -0.3001 -1.3420 -0.3501
 5444TIP3    H240528   0.973   6.353  12.034 -1.1290  0.4095 -0.1145
 5445TIP3   OH240529   0.634   3.207  10.881  0.0099  0.1099 -0.3553
 5445TIP3    H140530   0.729   3.202  10.872  0.1325  0.4646  0.6607
 5445TIP3    H240531   0.601   3.143  10.817  0.9827 -1.2296  0.4353
 5446TIP3   OH240532   4.518   2.853  10.628 -0.4149  0.1735 -0.1643
 5446TIP3    H140533   4.512   2.949  10.634 -2.2815  0.0331  0.7944
 5446TIP3    H240534   4.612   2.836  10.623 -0.0510  2.1778 -3.4175
 5447TIP3   OH240535   7.077   3.068  11.459  0.4055 -0.0402 -0.1108
 5447TIP3    H140536   6.994   3.050  11.503  0.1252  0.0907 -0.5803
 5447TIP3    H240537   7.060   3.047  11.367  0.9605 -0.2310 -0.1715
 5448TIP3   OH240538   4.539   6.240  11.715  0.5057 -0.5761 -0.1543
 5448TIP3    H140539   4.619   6.249  11.767  0.5979  0.7130 -0.4901
 5448TIP3    H240540   4.543   6.312  11.652 -0.9219 -0.5017 -0.1905
 5449TIP3   OH240541   2.474   0.815  12.114 -0.1564 -0.0729 -0.1943
 5449TIP3    H140542   2.469   0.724  12.144 -0.5241  0.0972  0.2697
 5449TIP3    H240543   2.568   0.835  12.113 -0.1217 -0.1696  0.5843
 5450TIP3   OH240544   2.628   4.292  12.098  0.0526 -0.3013 -0.3504
 5450TIP3    H140545   2.719   4.307  12.123  0.0219  0.7284 -0.7752
 5450TIP3    H240546   2.594   4.380  12.080 -0.6800 -0.7766 -1.3763
 5451TIP3   OH240547   1.314   3.885  13.334 -0.0284  0.0873 -0.5562
 5451TIP3    H140548   1.356   3.857  13.253  0.8093  1.5317 -0.6594
 5451TIP3    H240549   1.258   3.958  13.307 -2.8329 -1.8565 -0.4528
 5452TIP3   OH240550   2.306   4.985  11.184 -0.1179  0.4036 -0.0898
 5452TIP3    H140551   2.277   4.988  11.275 -0.0864  0.1602 -0.0724
 5452TIP3    H240552   2.402   4.980  11.189  0.0139  2.0353 -0.1482
 5453TIP3   OH240553   1.215   6.640  12.324  0.2146  0.0683 -0.5551
 5453TIP3    H140554   1.235   6.725  12.363 -0.3239 -0.2562  0.4686
 5453TIP3    H240555   1.198   6.659  12.232  2.3614  0.7534 -0.8693
 5454TIP3   OH240556   0.222   2.540  12.095  0.0879 -1.2690  0.3197
 5454TIP3    H140557   0.131   2.526  12.121  0.1588 -0.6474  0.9410
 5454TIP3    H240558   0.224   2.519  12.002 -0.6390 -1.5116  0.3503
 5455TIP3   OH240559   5.141   2.373  12.159  0.0894  0.1405  0.0545
 5455TIP3    H140560   5.150   2.459  12.200  0.9081  0.3961 -0.6474
 5455TIP3    H240561   5.144   2.390  12.065  0.5973 -0.6854 -0.0920
 5456TIP3   OH240562   3.259   6.142  13.035 -0.1985  0.3951  0.5782
 5456TIP3    H140563   3.205   6.066  13.015  0.3911  0.1190 -0.0084
 5456TIP3    H240564   3.343   6.124  12.992  0.2564  0.9549  1.2034
 5457TIP3   OH240565   6.228   5.434  11.764 -0.1972  0.6518  0.2520
 5457TIP3    H140566   6.314   5.395  11.756 -0.6740 -0.3051 -0.3685
 5457TIP3    H240567   6.229   5.508  11.704  0.3140  0.8838  0.5405
 5458TIP3   OH240568   2.770   5.266  11.660  0.1179 -0.3570 -0.2248
 5458TIP3    H140569   2.751   5.301  11.573  2.2129  0.8136 -0.2606
 5458TIP3    H240570   2.817   5.184  11.643  0.1657 -0.3349 -0.1984
 5459TIP3   OH240571   0.905   1.234  11.448 -0.3503 -0.2218  0.0255
 5459TIP3    H140572   0.893   1.244  11.353 -0.9638  1.9281  0.2869
 5459TIP3    H240573   0.923   1.140  11.459 -1.7269 -0.8278 -2.0671
 5460TIP3   OH240574   2.178   7.026  11.501  0.4335 -0.2448  0.1828
 5460TIP3    H140575   2.270   7.045  11.481  0.9377 -1.2339  1.4326
 5460TIP3    H240576   2.135   7.026  11.416  1.5060  0.6644 -0.3857
 5461TIP3   OH240577   0.729   2.129  11.524 -0.4814 -0.2531  0.6512
 5461TIP3    H140578   0.651   2.073  11.532  0.0737 -1.0112  0.8054
 5461TIP3    H240579   0.756   2.120  11.433 -0.9249  0.4977  0.4360
 5462TIP3   OH240580   1.572   7.447  12.192 -0.0283 -0.8544  0.1549
 5462TIP3    H140581   1.552   7.461  12.284  1.8108 -1.1545  0.6362
 5462TIP3    H240582   1.487   7.445  12.149 -0.8479  1.6259  1.4897
 5463TIP3   OH240583   4.937   1.007  11.460 -0.5328  0.3862 -0.2205
 5463TIP3    H140584   4.951   1.101  11.468  0.8300  0.1654  0.1469
 5463TIP3    H240585   5.018   0.967  11.490 -0.3749 -0.8621 -2.1065
 5464TIP3   OH240586   7.099   0.260  12.001 -0.4811 -0.5908  0.1752
 5464TIP3    H140587   7.063   0.348  11.985  1.4126 -0.1083 -1.9502
 5464TIP3    H240588   7.069   0.238  12.089 -1.3437  2.0229  0.6354
 5465TIP3   OH240589   6.778   0.012  12.203 -0.4776 -0.3588 -0.2022
 5465TIP3    H140590   6.764  -0.014  12.112 -2.1986  2.3812 -0.8631
 5465TIP3    H240591   6.691   0.039  12.233  0.4413  0.8843  1.5061
 5466TIP3   OH240592   6.453   4.015  11.892 -0.5052  0.0631 -0.0334
 5466TIP3    H140593   6.478   4.079  11.959 -0.1795 -0.4217  0.3206
 5466TIP3    H240594   6.536   3.980  11.860 -0.6497  0.4617 -0.8693
 5467TIP3   OH240595   4.023   5.861  13.044  0.3323  0.0223 -0.2354
 5467TIP3    H140596   3.928   5.864  13.037  0.1811 -0.9217  1.0825
 5467TIP3    H240597   4.053   5.941  13.000 -1.2025  1.5129  1.2975
 5468TIP3   OH240598   2.286   6.383  12.740 -0.2683  0.1974 -0.1749
 5468TIP3    H140599   2.211   6.370  12.799  0.2921  1.2468  0.8172
 5468TIP3    H240600   2.247   6.420  12.661 -1.0968 -1.6852 -0.7064
 5469TIP3   OH240601   7.053   1.282  12.223  0.0059 -0.0106  0.4753
 5469TIP3    H140602   6.963   1.274  12.256  0.0871  0.1878  0.7533
 5469TIP3    H240603   7.044   1.335  12.143  0.0063  1.0598  1.1629
 5470TIP3   OH240604   3.458   4.124  13.187 -0.7912 -0.4784 -0.0320
 5470TIP3    H140605   3.499   4.118  13.100 -1.2403 -0.7428 -0.2301
 5470TIP3    H240606   3.517   4.075  13.244  0.3418  1.0189  0.1305
 5471TIP3   OH240607   4.946   7.227  11.046  0.0296  0.1313 -0.4816
 5471TIP3    H140608   4.915   7.143  11.081  1.0690  0.4692  1.3824
 5471TIP3    H240609   4.874   7.260  10.993 -1.6709 -0.4323  1.3872
 5472TIP3   OH240610   4.098   4.417  11.176 -0.0539 -0.5623 -0.1913
 5472TIP3    H140611   4.140   4.377  11.252  1.2952 -0.4086 -0.8351
 5472TIP3    H240612   4.078   4.343  11.118 -0.7291 -0.6374  0.1238
 5473TIP3   OH240613   5.234   1.174  10.847 -0.2711 -0.1451 -0.0457
 5473TIP3    H140614   5.239   1.269  10.859  0.1699 -0.2243  0.4465
 5473TIP3    H240615   5.143   1.158  10.822  0.0246  0.5569 -1.6955
 5474TIP3   OH240616   0.417   1.015  10.997 -0.2845 -0.1302 -0.4475
 5474TIP3    H140617   0.339   0.973  11.033  0.1658 -3.3398 -2.7850
 5474TIP3    H240618   0.385   1.062  10.919  0.0213 -1.4715 -1.4232
 5475TIP3   OH240619   7.274   4.468  12.495  0.3711  0.1349  0.0991
 5475TIP3    H140620   7.329   4.430  12.563 -0.5105 -0.2158  0.6317
 5475TIP3    H240621   7.208   4.401  12.476  1.3922 -0.3492 -2.0981
 5476TIP3   OH240622   7.013   5.214  10.863 -0.0946 -0.4125  1.0438
 5476TIP3    H140623   7.085   5.163  10.900  0.8104  1.4266  1.9745
 5476TIP3    H240624   7.051   5.301  10.848 -1.7936  0.2490  0.3534
 5477TIP3   OH240625   1.387   6.938  11.294  0.0758  0.1664 -0.0870
 5477TIP3    H140626   1.417   6.939  11.203  0.5910  3.6165  0.0015
 5477TIP3    H240627   1.413   6.852  11.326  1.8426 -0.3580 -2.5970
 5478TIP3   OH240628   4.773   4.266  12.306  0.1496  0.1814  0.0118
 5478TIP3    H140629   4.717   4.210  12.360 -0.0678  0.7581  0.3916
 5478TIP3    H240630   4.716   4.296  12.236 -0.1197  1.0397  0.5863
 5479TIP3   OH240631   7.586   2.983  11.052  0.3436 -0.1109 -0.3363
 5479TIP3    H140632   7.520   3.032  11.002 -0.1873 -0.0148  0.4279
 5479TIP3    H240633   7.668   3.028  11.033  0.2609 -0.4462 -1.5819
 5480TIP3   OH240634   1.673   5.418  13.269  1.1249  0.4334 -0.2259
 5480TIP3    H140635   1.648   5.488  13.330  0.6347  1.8691 -1.9868
 5480TIP3    H240636   1.665   5.457  13.182  0.8278 -1.8294 -1.3066
 5481TIP3   OH240637   7.315   0.208  10.348  0.3801 -0.3366 -0.8763
 5481TIP3    H140638   7.362   0.142  10.297  1.4566 -0.7281  0.5703
 5481TIP3    H240639   7.352   0.292  10.319  0.9347 -0.5494 -0.7972
 5482TIP3   OH240640   5.413   6.565  12.584  0.1102  0.2460  0.6697
 5482TIP3    H140641   5.422   6.577  12.489 -0.5735 -0.9888  0.4210
 5482TIP3    H240642   5.498   6.531  12.612 -0.5565 -2.2615 -0.0476
 5483TIP3   OH240643   6.459   5.072  13.024 -0.1711 -0.4429  0.2435
 5483TIP3    H140644   6.476   4.980  13.002 -0.6534 -0.8975  1.7223
 5483TIP3    H240645   6.422   5.070  13.112  0.8821  1.2587  0.7758
 5484TIP3   OH240646   0.397   2.563  11.710  0.3153 -0.3944 -0.0719
 5484TIP3    H140647   0.337   2.498  11.745 -0.2484 -0.0335 -0.3461
 5484TIP3    H240648   0.366   2.646  11.745  0.7006 -0.2103 -0.1571
 5485TIP3   OH240649   1.796   1.630  10.843 -0.2082 -0.0233 -0.2832
 5485TIP3    H140650   1.764   1.541  10.857 -0.7488  0.2479  0.2454
 5485TIP3    H240651   1.841   1.652  10.925 -1.0365  0.5874  0.0230
 5486TIP3   OH240652   7.031   3.537  10.098  0.1021 -0.2432  0.3000
 5486TIP3    H140653   7.026   3.585  10.181 -2.5380 -0.1645  0.1950
 5486TIP3    H240654   7.119   3.500  10.096  1.1150  1.9170  1.8952
 5487TIP3   OH240655   0.612   2.724  10.680  0.0251 -0.1342  0.2005
 5487TIP3    H140656   0.653   2.644  10.645  1.1675  1.4328 -2.3029
 5487TIP3    H240657   0.525   2.726  10.640 -0.6166 -0.8823  1.5117
 5488TIP3   OH240658   6.313   4.831  12.147  0.1862  0.0732  0.0574
 5488TIP3    H140659   6.270   4.780  12.216  0.0725 -1.1455 -0.8831
 5488TIP3    H240660   6.376   4.886  12.193 -0.1654 -0.4295  1.1686
 5489TIP3   OH240661   1.082   1.985  10.801  0.0943  0.1138  0.3072
 5489TIP3    H140662   1.054   2.061  10.750 -1.4688 -1.1544 -0.8228
 5489TIP3    H240663   1.095   2.020  10.890  0.3630  1.8715 -0.3798
 5490TIP3   OH240664   0.205   1.116  12.473 -0.1861  0.4656  0.0284
 5490TIP3    H140665   0.128   1.097  12.419  0.2544 -1.9765  0.1576
 5490TIP3    H240666   0.195   1.060  12.550  2.2631 -0.8302 -0.5005
 5491TIP3   OH240667   2.036   2.866  12.477 -0.3507  0.5978  0.2875
 5491TIP3    H140668   2.036   2.938  12.540 -1.3312  1.0039 -0.1356
 5491TIP3    H240669   2.013   2.908  12.394  3.0989  0.4714 -0.8773
 5492TIP3   OH240670   6.198   4.689  11.704  0.2574 -0.4994 -0.3127
 5492TIP3    H140671   6.254   4.620  11.668 -1.2754 -1.2087 -1.4550
 5492TIP3    H240672   6.111   4.671  11.667 -1.0077 -0.0895  2.2277
 5493TIP3   OH240673   3.319   4.002  11.564  0.2983 -0.2259  0.1557
 5493TIP3    H140674   3.239   4.053  11.551 -0.1545  0.1943  3.5346
 5493TIP3    H240675   3.389   4.068  11.568  0.8156 -0.5430 -2.1623
 5494TIP3   OH240676   1.965   2.982  12.251 -0.0145 -0.7835 -0.1286
 5494TIP3    H140677   1.899   2.928  12.207  1.2309 -1.5617 -1.0978
 5494TIP3    H240678   2.044   2.972  12.198  0.5461  1.1670  0.2781
 5495TIP3   OH240679   4.010   5.695  11.707 -0.7912  0.5273  0.1091
 5495TIP3    H140680   4.104   5.690  11.726 -0.9280 -0.9217  0.5911
 5495TIP3    H240681   3.980   5.773  11.753  0.1523  0.9341  0.0541
 5496TIP3   OH240682   7.460   5.690  11.827  0.0010  0.0256 -0.0447
 5496TIP3    H140683   7.438   5.597  11.827  0.4470 -0.0834 -0.1220
 5496TIP3    H240684   7.385   5.732  11.786 -0.8460 -0.1350  1.2689
 5497TIP3   OH240685   7.467   0.170  11.168  0.3270 -0.1999 -0.1547
 5497TIP3    H140686   7.480   0.258  11.134  0.3168  0.1572  0.7419
 5497TIP3    H240687   7.547   0.123  11.144  1.0020  0.4867  0.6931
 5498TIP3   OH240688   4.582   2.540  13.207 -0.1225 -0.4209  0.1830
 5498TIP3    H140689   4.575   2.527  13.113  0.3775 -0.1284  0.1007
 5498TIP3    H240690   4.525   2.615  13.225 -0.1467 -0.4194  0.0981
 5499TIP3   OH240691   4.419   0.840  12.663 -0.6054  0.2479 -0.3635
 5499TIP3    H140692   4.478   0.767  12.679 -0.4324  0.4618 -0.0054
 5499TIP3    H240693   4.451   0.879  12.582 -0.1721  0.4405 -0.1032
 5500TIP3   OH240694   6.013   1.249  11.649  0.5658  0.0997  0.4599
 5500TIP3    H140695   6.037   1.183  11.713 -1.6003 -1.4265 -0.1783
 5500TIP3    H240696   5.950   1.305  11.694  0.0875 -0.1375  0.0998
 5501TIP3   OH240697   5.460   3.312  12.643 -0.8096 -0.3647  0.4018
 5501TIP3    H140698   5.446   3.397  12.602 -1.5389 -0.7500 -0.1709
 5501TIP3    H240699   5.502   3.259  12.575 -0.7904 -0.6086  0.6002
 5502TIP3   OH240700   4.581   0.990  10.601 -0.3111 -0.0682 -0.0710
 5502TIP3    H140701   4.656   0.966  10.546 -1.6928 -2.0163 -1.2469
 5502TIP3    H240702   4.550   1.073  10.564  0.6322  0.2208 -0.2344
 5503TIP3   OH240703   3.014   0.461  12.804  0.1707 -0.9095  0.1863
 5503TIP3    H140704   2.981   0.539  12.849 -0.7369 -1.4693  0.5169
 5503TIP3    H240705   2.951   0.392  12.826  1.1413 -1.8245  0.1926
 5504TIP3   OH240706   2.841   5.054  13.406 -0.5239  0.2758 -0.1506
 5504TIP3    H140707   2.839   5.117  13.334 -2.8883 -0.9741 -1.3136
 5504TIP3    H240708   2.930   5.020  13.406 -0.6571 -0.3196 -3.1349
 5505TIP3   OH240709   7.041   6.964  13.398 -0.1418 -0.4617 -0.0798
 5505TIP3    H140710   7.122   7.014  13.392  1.1554 -2.5748 -1.4910
 5505TIP3    H240711   7.062   6.890  13.455 -1.0892 -1.0366 -0.4458
 5506TIP3   OH240712   1.482   2.657  12.140 -0.7382 -0.2669  0.4560
 5506TIP3    H140713   1.416   2.630  12.204 -0.7195 -0.1448  0.5269
 5506TIP3    H240714   1.434   2.661  12.057 -0.3878 -2.1217  0.1211
 5507TIP3   OH240715   3.149   3.423  10.714  0.6674  0.0192 -0.7691
 5507TIP3    H140716   3.107   3.340  10.695 -0.1443  0.0252  0.8175
 5507TIP3    H240717   3.088   3.469  10.771  1.8528  0.9835 -0.2089
 5508TIP3   OH240718   0.555   6.953  13.713  0.0733 -0.2179 -0.0192
 5508TIP3    H140719   0.613   6.893  13.666  0.8151 -0.2266  0.8736
 5508TIP3    H240720   0.590   7.040  13.694 -1.0184 -0.0265 -1.3369
 5509TIP3   OH240721   2.374   1.696  10.663 -0.0341 -0.5060  0.3454
 5509TIP3    H140722   2.436   1.721  10.732  0.9596  0.7905 -0.9551
 5509TIP3    H240723   2.334   1.779  10.637  0.2002 -0.8536 -1.1865
 5510TIP3   OH240724   5.355   2.098  11.941 -0.3437 -0.5029 -0.9611
 5510TIP3    H140725   5.260   2.090  11.936 -0.6896  2.4936 -0.9759
 5510TIP3    H240726   5.381   2.124  11.853  0.3902 -0.4442 -0.7292
 5511TIP3   OH240727   7.503   2.228  11.697  0.2034 -0.0900 -0.1450
 5511TIP3    H140728   7.561   2.153  11.686  0.3087 -0.1245  0.5962
 5511TIP3    H240729   7.541   2.297  11.642  0.2130 -0.5144 -0.6743
 5512TIP3   OH240730   2.639   4.873  11.489  0.2056 -0.1958 -0.5171
 5512TIP3    H140731   2.685   4.797  11.453 -0.0161 -0.7410  0.3213
 5512TIP3    H240732   2.707   4.940  11.499  0.6799 -0.7501  0.0230
 5513TIP3   OH240733   3.106   1.626  12.371 -0.5529 -0.1413 -0.1742
 5513TIP3    H140734   3.045   1.578  12.314 -1.0392 -1.2696  1.1980
 5513TIP3    H240735   3.155   1.557  12.417  0.8157  0.7403 -0.2551
 5514TIP3   OH240736   4.860   6.473  12.041 -0.4164  0.2792  0.2020
 5514TIP3    H140737   4.839   6.521  12.121  1.6066  2.2320 -0.3427
 5514TIP3    H240738   4.954   6.453  12.050 -0.6286 -1.3144 -0.7799
 5515TIP3   OH240739   0.996   1.492  11.953  0.0642  0.2212  0.1401
 5515TIP3    H140740   1.007   1.587  11.950 -0.4712  0.2800 -0.0856
 5515TIP3    H240741   0.935   1.476  12.026 -0.0825  0.0791 -0.0109
 5516TIP3   OH240742   7.637   7.521  10.580 -0.0892  0.2714 -0.0776
 5516TIP3    H140743   7.601   7.529  10.668 -1.0236  0.6054 -0.4796
 5516TIP3    H240744   7.653   7.428  10.569 -0.8603  0.1083  0.1078
 5517TIP3   OH240745   2.968   2.716  16.792 -0.8757 -0.4518 -0.0612
 5517TIP3    H140746   2.924   2.775  16.852  0.9387 -0.7114  1.6266
 5517TIP3    H240747   3.060   2.718  16.819 -0.6983 -4.0450  0.1262
 5518TIP3   OH240748   5.249   2.895  12.134  0.0628 -0.3342 -0.1077
 5518TIP3    H140749   5.284   2.816  12.093  3.4081  1.4244 -1.0498
 5518TIP3    H240750   5.230   2.954  12.061 -1.0141  0.2768  0.6311
 5519TIP3   OH240751   4.889   5.100  11.567 -0.5244 -0.3892  0.1245
 5519TIP3    H140752   4.804   5.084  11.608 -0.1698 -0.4533  0.8644
 5519TIP3    H240753   4.942   5.023  11.591 -0.2497 -0.3342 -0.2965
 5520TIP3   OH240754   7.447   5.218  10.320  0.7620  0.1775  0.4284
 5520TIP3    H140755   7.371   5.201  10.264 -0.1530 -0.3320  1.7759
 5520TIP3    H240756   7.424   5.298  10.367 -0.5355 -1.7604  3.3537
 5521TIP3   OH240757   3.055   2.966  12.589 -0.3375 -0.5733  0.3229
 5521TIP3    H140758   2.961   2.949  12.583 -0.2910 -1.7865  2.1165
 5521TIP3    H240759   3.066   3.010  12.673  0.6298  0.1573 -0.1713
 5522TIP3   OH240760   0.113   6.340  10.659  0.4789  0.5187 -0.1184
 5522TIP3    H140761   0.057   6.377  10.590  1.6403  1.0581 -0.7980
 5522TIP3    H240762   0.091   6.391  10.736 -0.7968 -0.0529 -0.0809
 5523TIP3   OH240763   7.528   6.290  11.753 -0.1999 -0.4372 -0.0352
 5523TIP3    H140764   7.593   6.226  11.784  1.2941  0.2449 -1.5826
 5523TIP3    H240765   7.552   6.371  11.797 -0.4871 -0.3416 -0.0522
 5524TIP3   OH240766   0.450   5.183  12.628  0.3726 -0.6666  0.1282
 5524TIP3    H140767   0.430   5.093  12.656 -1.0895 -0.6811 -0.8008
 5524TIP3    H240768   0.428   5.183  12.534  1.3597  0.3911 -0.1165
 5525TIP3   OH240769   4.137   0.363  12.531 -0.7346  0.2324 -0.2592
 5525TIP3    H140770   4.104   0.449  12.503 -1.1183  0.2462  0.2153
 5525TIP3    H240771   4.209   0.344  12.471 -0.3448  1.0943 -0.0822
 5526TIP3   OH240772   4.344   1.231  11.338 -0.0742 -0.2656  0.2262
 5526TIP3    H140773   4.365   1.310  11.387 -1.0586 -0.2668  0.6581
 5526TIP3    H240774   4.249   1.221  11.346 -0.5230  0.4841 -2.8126
 5527TIP3   OH240775   1.655   6.591  10.430  0.5892 -0.1947  0.5299
 5527TIP3    H140776   1.581   6.550  10.474  0.3287 -0.6037 -0.2716
 5527TIP3    H240777   1.659   6.680  10.466 -1.3133  0.4009 -0.5782
 5528TIP3   OH240778   4.031   1.193  10.901  0.7649 -0.4792  0.6359
 5528TIP3    H140779   4.064   1.218  10.814  2.0182 -1.5435  0.7728
 5528TIP3    H240780   4.042   1.098  10.905 -2.3998 -0.9548  0.7327
 5529TIP3   OH240781   1.049   5.146  19.303 -0.4570  0.0753 -0.1443
 5529TIP3    H140782   1.131   5.099  19.287  0.1804 -0.0382  2.7625
 5529TIP3    H240783   0.994   5.082  19.349 -1.2338  0.8606  0.0409
 5530TIP3   OH240784   5.494   5.194  12.141  0.3722 -0.1405  0.5005
 5530TIP3    H140785   5.516   5.237  12.059  1.0476  1.7969  1.6407
 5530TIP3    H240786   5.465   5.106  12.115 -0.7956  0.8666 -1.8873
 5531TIP3   OH240787   2.689   3.728  11.601 -0.1357 -0.1767  0.2450
 5531TIP3    H140788   2.775   3.760  11.573 -0.1812 -0.4000 -0.1425
 5531TIP3    H240789   2.680   3.761  11.691 -1.0322  2.6223 -0.7658
 5532TIP3   OH240790   6.420   3.278  10.610 -0.0154 -0.9167  0.3807
 5532TIP3    H140791   6.388   3.332  10.681 -1.3307 -2.1776  0.7995
 5532TIP3    H240792   6.439   3.339  10.539  1.2710  0.3542  1.7502
 5533TIP3   OH240793   6.363   0.702  11.085 -0.4051 -0.3040  0.0139
 5533TIP3    H140794   6.416   0.779  11.104  0.2656 -0.3270 -1.5738
 5533TIP3    H240795   6.318   0.722  11.003 -0.7824 -1.3171 -0.0533
 5534TIP3   OH240796   4.716   3.121  12.083 -0.0158  0.9233  0.1206
 5534TIP3    H140797   4.793   3.155  12.038  1.3584  0.9067  2.2985
 5534TIP3    H240798   4.697   3.037  12.040  1.1565  0.9512 -0.4761
 5535TIP3   OH240799   7.212   6.544  10.820  0.0791  0.2979  0.2813
 5535TIP3    H140800   7.197   6.501  10.904 -0.7540  2.8577  1.5476
 5535TIP3    H240801   7.303   6.524  10.799  0.3678 -0.2491  1.8746
 5536TIP3   OH240802   0.702   1.281  12.472 -0.4779  0.4995  0.9080
 5536TIP3    H140803   0.755   1.258  12.549 -1.5891  0.1056  1.5870
 5536TIP3    H240804   0.704   1.376  12.470  1.6149  0.5006 -0.0877
 5537TIP3   OH240805   6.132   4.364  11.616  0.4231  0.0385  0.4360
 5537TIP3    H140806   6.165   4.274  11.611  0.6563  0.1190  0.5197
 5537TIP3    H240807   6.208   4.419  11.597 -0.0524  0.1884 -1.1501
 5538TIP3   OH240808   6.214   7.637  10.646  0.7413 -0.2815 -0.4251
 5538TIP3    H140809   6.143   7.666  10.703  1.5026  0.2857  0.2552
 5538TIP3    H240810   6.281   7.602  10.706  2.7604  2.7986 -0.6150
 5539TIP3   OH240811   3.134   1.078  13.221 -0.5966  0.9085  0.3565
 5539TIP3    H140812   3.066   1.130  13.178 -1.8797  0.1145  1.3578
 5539TIP3    H240813   3.086   1.010  13.270  0.9569 -0.3176  0.2678
 5540TIP3   OH240814   0.595   5.808  11.102  0.4270 -0.4979 -0.1799
 5540TIP3    H140815   0.603   5.734  11.162  2.1166 -1.0290 -1.0173
 5540TIP3    H240816   0.672   5.803  11.046 -0.8669  0.2360 -2.1411
 5541TIP3   OH240817   4.579   7.148  12.689  0.3506 -0.4007 -0.3679
 5541TIP3    H140818   4.647   7.085  12.712  0.6545 -0.4256 -1.2823
 5541TIP3    H240819   4.568   7.137  12.594 -0.9380 -0.4111 -0.2388
 5542TIP3   OH240820   5.284   3.869  13.215 -0.3594  0.5170  0.5297
 5542TIP3    H140821   5.349   3.851  13.283 -1.0990 -0.5334  0.9823
 5542TIP3    H240822   5.317   3.948  13.171  1.4281 -0.2124  0.4678
 5543TIP3   OH240823   7.406   4.410  12.710  0.1442  0.0581  0.5712
 5543TIP3    H140824   7.335   4.375  12.765 -1.0643 -1.7325 -1.9073
 5543TIP3    H240825   7.459   4.333  12.689  1.8925  1.1012  1.0158
 5544TIP3   OH240826   1.155   5.812  11.833  0.3803  0.2058  0.0607
 5544TIP3    H140827   1.248   5.806  11.814  0.1458 -0.0780 -1.1020
 5544TIP3    H240828   1.120   5.871  11.766 -0.4507 -0.6350 -0.2778
 5545TIP3   OH240829   2.019   0.413  12.021 -0.1641 -0.7208 -0.3805
 5545TIP3    H140830   1.996   0.321  12.021  0.0699 -0.7824 -0.0221
 5545TIP3    H240831   1.963   0.452  12.089  0.3212 -0.7551  0.0471
 5546TIP3   OH240832   5.215   7.449  12.106  0.5414  0.1023  0.5196
 5546TIP3    H140833   5.277   7.440  12.178 -0.4607 -0.1375  1.3751
 5546TIP3    H240834   5.192   7.359  12.082 -1.1217  0.1674  1.6965
 5547TIP3   OH240835   3.133   4.708  13.298  0.3571  0.0301 -0.3686
 5547TIP3    H140836   3.055   4.655  13.284  1.0323 -0.7539 -1.3332
 5547TIP3    H240837   3.204   4.644  13.306  0.8676  0.7137  0.8330
 5548TIP3   OH240838   1.092   6.513  10.818 -0.5422 -0.3724  0.0178
 5548TIP3    H140839   0.999   6.531  10.827 -0.8377 -1.4854 -0.6707
 5548TIP3    H240840   1.098   6.417  10.814  0.2636 -0.2796 -3.4211
 5549TIP3   OH240841   6.408   0.400  12.457 -0.1293  0.5376 -0.8323
 5549TIP3    H140842   6.495   0.438  12.444 -0.0699  0.5083 -0.5350
 5549TIP3    H240843   6.382   0.429  12.544 -0.5071  0.7162 -1.0039
 5550TIP3   OH240844   5.802   4.799  11.605  1.0682 -0.0328 -0.6244
 5550TIP3    H140845   5.876   4.738  11.602  1.1470 -0.0735  1.1512
 5550TIP3    H240846   5.839   4.880  11.640  0.1414 -0.3302  1.1799
 5551TIP3   OH240847   6.406   0.063  11.814  0.4205 -0.3980  0.7190
 5551TIP3    H140848   6.481   0.120  11.799 -0.1712  0.2648  0.2053
 5551TIP3    H240849   6.404   0.050  11.909  1.2350 -0.5162  0.7296
 5552TIP3   OH240850   3.762   0.381  12.792  0.3966  0.4709  0.2594
 5552TIP3    H140851   3.770   0.297  12.837  1.3121  0.3974 -0.0196
 5552TIP3    H240852   3.692   0.367  12.728  1.5938 -0.5898 -0.8692
 5553TIP3   OH240853   2.080   3.123  11.618 -0.4074  0.1657  0.4597
 5553TIP3    H140854   2.127   3.145  11.699 -1.2796  0.1421  0.9782
 5553TIP3    H240855   2.052   3.207  11.582  1.1556  0.2895 -0.5616
 5554TIP3   OH240856   3.465   2.462  12.301 -0.1767 -0.4055 -0.0392
 5554TIP3    H140857   3.445   2.514  12.378  1.7968  0.8322 -0.2762
 5554TIP3    H240858   3.446   2.520  12.227  1.1411 -0.3228 -0.3398
 5555TIP3   OH240859   7.380   0.212  12.038 -0.4224 -0.1077 -0.4850
 5555TIP3    H140860   7.404   0.151  11.968 -0.2639 -1.5047  0.7251
 5555TIP3    H240861   7.285   0.223  12.029 -0.2218  0.7938 -1.7089
 5556TIP3   OH240862   3.393   7.005  11.535 -0.0301 -0.3201 -0.3453
 5556TIP3    H140863   3.420   7.023  11.445  2.6129  0.9583  0.6087
 5556TIP3    H240864   3.380   7.091  11.575  1.2738 -0.7732  1.1440
 5557TIP3   OH240865   3.121   4.718  12.159  0.3028  0.7286 -0.4051
 5557TIP3    H140866   3.039   4.688  12.120  0.0124  1.3140 -0.2518
 5557TIP3    H240867   3.178   4.736  12.084  0.0334  1.0397 -0.5403
 5558TIP3   OH240868   0.994   4.861  11.287  0.2408 -0.1645 -0.2558
 5558TIP3    H140869   0.957   4.826  11.206  1.2220  1.2927 -1.3801
 5558TIP3    H240870   0.955   4.807  11.356 -2.4698  0.0517 -1.4811
 5559TIP3   OH240871   0.724   6.763  11.295  0.4072  0.2470 -0.4920
 5559TIP3    H140872   0.645   6.764  11.241  1.2707  1.5420 -1.7999
 5559TIP3    H240873   0.704   6.822  11.367  0.0239  0.2247 -0.5760
 5560TIP3   OH240874   4.215   3.730  11.031 -0.2843 -0.1726 -0.4117
 5560TIP3    H140875   4.216   3.674  10.953  1.7840 -0.3370 -0.3107
 5560TIP3    H240876   4.283   3.795  11.016  0.8391 -0.7828  1.6545
 5561TIP3   OH240877   5.734   5.282  11.239  0.4432  0.0738  0.6303
 5561TIP3    H140878   5.786   5.217  11.287  0.3237 -1.0070 -0.6347
 5561TIP3    H240879   5.657   5.234  11.208  1.1794  0.2957 -1.8040
 5562TIP3   OH240880   0.415   6.267  11.749  0.0532  1.0006 -0.3651
 5562TIP3    H140881   0.430   6.189  11.801 -2.9141  1.2618  1.0935
 5562TIP3    H240882   0.406   6.235  11.659 -0.6003 -0.2779  0.1366
 5563TIP3   OH240883   1.943   3.166  12.008  0.3765  0.3586 -0.3294
 5563TIP3    H140884   1.895   3.159  12.091 -2.0466 -0.1591 -1.6939
 5563TIP3    H240885   1.979   3.079  11.994  1.1885  0.5694  0.3750
 5564TIP3   OH240886   6.663   7.231  12.554 -0.1102  0.0475  0.9058
 5564TIP3    H140887   6.689   7.276  12.634 -1.0764  0.2419  1.1327
 5564TIP3    H240888   6.733   7.169  12.537  1.0952  1.4139  0.7591
 5565TIP3   OH240889   4.929   5.428  11.302  0.0619 -0.0006 -0.3924
 5565TIP3    H140890   4.862   5.459  11.240 -2.3054 -1.9336  1.0025
 5565TIP3    H240891   4.937   5.499  11.366 -1.3914 -0.1067 -0.0654
 5566TIP3   OH240892   3.134   4.056  11.839 -0.0816 -0.2260 -0.1841
 5566TIP3    H140893   3.216   4.101  11.860 -0.0972 -0.2805 -0.0095
 5566TIP3    H240894   3.159   3.990  11.775 -0.0236 -0.1098 -0.2826
 5567TIP3   OH240895   0.647   0.696  12.752 -0.5929 -0.1177 -0.0075
 5567TIP3    H140896   0.606   0.708  12.838  0.5669 -0.6538  0.6416
 5567TIP3    H240897   0.573   0.680  12.693 -1.4871  1.0975  0.7113
 5568TIP3   OH240898   3.698   7.219  11.575 -0.4219 -0.1123  0.2847
 5568TIP3    H140899   3.741   7.303  11.560 -1.4846  0.0859 -2.1760
 5568TIP3    H240900   3.764   7.153  11.554 -0.0626  0.1070  0.7095
 5569TIP3   OH240901   1.692   2.517  11.276  0.1471 -0.0286  0.6090
 5569TIP3    H140902   1.745   2.441  11.251  0.1367 -0.0141  0.5424
 5569TIP3    H240903   1.663   2.498  11.365  0.6203  0.1622  0.8019
 5570TIP3   OH240904   5.261   6.840  11.461  0.7373 -0.2443  0.5833
 5570TIP3    H140905   5.298   6.752  11.475  1.6862 -0.1546 -1.1422
 5570TIP3    H240906   5.333   6.890  11.422 -0.5390  0.5765 -0.7926
 5571TIP3   OH240907   0.891   2.971  10.591 -0.2310  0.7339  0.2429
 5571TIP3    H140908   0.945   3.044  10.560  0.0727  0.3587 -0.1242
 5571TIP3    H240909   0.819   2.966  10.529  1.0579 -0.8414 -1.2406
 5572TIP3   OH240910   1.006   3.522  11.711  0.3092  0.0642 -0.4534
 5572TIP3    H140911   1.023   3.474  11.630  0.9586 -0.7258  0.1324
 5572TIP3    H240912   0.911   3.515  11.723  0.4466 -1.8002  0.0091
 5573TIP3   OH240913   6.300   6.948  13.105 -0.2425  0.2667 -0.1986
 5573TIP3    H140914   6.334   7.026  13.147  0.2806 -0.5819  1.0181
 5573TIP3    H240915   6.378   6.900  13.077 -0.5000 -0.5048  0.3738
 5574TIP3   OH240916   5.478   3.489  12.042  0.3269  0.3370  0.6394
 5574TIP3    H140917   5.471   3.584  12.027 -2.4374  1.0788  4.8405
 5574TIP3    H240918   5.393   3.455  12.013  0.4075 -0.4211  1.2838
 5575TIP3   OH240919   5.576   1.396  11.807  0.8648 -0.0973 -0.0926
 5575TIP3    H140920   5.584   1.486  11.776  0.7298  0.0001  0.1514
 5575TIP3    H240921   5.666   1.363  11.810  1.1325  0.6749  1.7164
 5576TIP3   OH240922   1.985   6.199  11.830  0.1660  0.3231  0.0154
 5576TIP3    H140923   1.954   6.111  11.849 -2.4099  1.0312 -0.4093
 5576TIP3    H240924   1.956   6.216  11.740  0.1579  1.7437  0.2503
 5577TIP3   OH240925   6.986   4.373  11.113 -0.5101  0.1226 -0.2924
 5577TIP3    H140926   7.034   4.456  11.100  0.6117 -0.3740  0.4892
 5577TIP3    H240927   7.020   4.315  11.045 -0.1969 -0.1471  0.0900
 5578TIP3   OH240928   2.152   6.764  12.742 -0.4032  0.5928  0.2130
 5578TIP3    H140929   2.188   6.833  12.797 -2.9275  1.6097  0.7042
 5578TIP3    H240930   2.061   6.755  12.770 -1.0232 -0.7683 -1.9571
 5579TIP3   OH240931   1.596   3.527  12.370 -0.5960  0.4804  0.1747
 5579TIP3    H140932   1.571   3.435  12.367 -2.0825  0.8676 -0.2608
 5579TIP3    H240933   1.689   3.526  12.394 -0.3419 -1.1574 -0.7351
 5580TIP3   OH240934   5.806   7.310  12.389  0.3893 -0.2354  0.1033
 5580TIP3    H140935   5.869   7.339  12.323  0.2759 -0.0169  0.0904
 5580TIP3    H240936   5.767   7.230  12.353 -0.5953  0.5708 -0.6788
 5581TIP3   OH240937   5.491   2.210  12.640 -0.3116 -0.6920  0.4073
 5581TIP3    H140938   5.538   2.288  12.669  0.5953 -0.5188 -1.3386
 5581TIP3    H240939   5.558   2.141  12.642 -1.0972 -1.4470  1.9066
 5582TIP3   OH240940   2.290   0.952  12.632 -0.4869 -0.2758  0.1990
 5582TIP3    H140941   2.263   0.866  12.600  0.4713 -0.6852  0.4671
 5582TIP3    H240942   2.349   0.933  12.705 -0.9418  0.6208  0.8203
 5583TIP3   OH240943   0.844   6.176  12.891 -0.2314  0.4523  0.5470
 5583TIP3    H140944   0.758   6.196  12.927 -0.4286 -1.1493  1.0176
 5583TIP3    H240945   0.902   6.168  12.967  0.1655  0.7307  0.2816
 5584TIP3   OH240946   2.000   6.609  11.591 -0.5858 -0.3700  0.0250
 5584TIP3    H140947   1.961   6.692  11.617 -1.1668 -1.1107  1.6633
 5584TIP3    H240948   2.086   6.608  11.635 -0.6800 -0.7321  0.2041
 5585TIP3   OH240949   1.760   3.996  10.930 -0.2641  0.0173  0.2052
 5585TIP3    H140950   1.807   4.069  10.890 -2.9072  1.8760  0.2084
 5585TIP3    H240951   1.700   3.966  10.861 -0.5109 -0.8972  0.8039
 5586TIP3   OH240952   2.088   6.506  12.564 -0.0182 -0.1575  0.2604
 5586TIP3    H140953   2.121   6.585  12.522  0.7908 -0.3935  0.4495
 5586TIP3    H240954   2.074   6.444  12.491  1.6448 -0.6625  0.3383
 5587TIP3   OH240955   6.913   6.578  11.317 -0.5370  0.0807 -0.2811
 5587TIP3    H140956   6.817   6.577  11.312 -0.4903 -2.1018 -2.7759
 5587TIP3    H240957   6.940   6.494  11.280  2.3702  0.5437  0.5446
 5588TIP3   OH240958   6.847   1.949  11.573  0.7624 -0.2440 -0.6114
 5588TIP3    H140959   6.873   1.969  11.483 -0.0211 -0.9960 -1.0190
 5588TIP3    H240960   6.920   1.898  11.609  1.0611  0.0287 -0.8345
 5589TIP3   OH240961   7.444   5.628  13.340 -0.2236  0.4877  0.3654
 5589TIP3    H140962   7.353   5.630  13.372  0.0262 -1.5595  1.4354
 5589TIP3    H240963   7.495   5.604  13.418  1.3063  1.9666 -0.1379
 5590TIP3   OH240964   2.184   3.398  10.914 -0.3433 -0.3956  0.4395
 5590TIP3    H140965   2.202   3.353  10.832 -1.9070 -1.1446  0.4810
 5590TIP3    H240966   2.268   3.438  10.938  0.3193 -0.7761 -1.1272
 5591TIP3   OH240967   4.196   6.285  12.796  0.2451  0.5120  0.5146
 5591TIP3    H140968   4.140   6.215  12.830  1.5467 -0.4176  0.8058
 5591TIP3    H240969   4.146   6.321  12.722 -1.2066  0.4495  1.4244
 5592TIP3   OH240970   2.313   5.800  11.491 -0.6747  0.5264 -0.2787
 5592TIP3    H140971   2.329   5.889  11.523  1.2198 -0.6319  2.3153
 5592TIP3    H240972   2.391   5.779  11.439 -1.3844  0.5293 -1.3871
 5593TIP3   OH240973   7.441   6.058  11.636 -0.0146  0.3370  0.1640
 5593TIP3    H140974   7.466   6.141  11.677 -1.5106  0.7252  0.3760
 5593TIP3    H240975   7.501   6.047  11.563  0.3913  1.4649  0.3184
 5594TIP3   OH240976   6.881   4.202  11.803 -0.4379 -0.0122  0.0409
 5594TIP3    H140977   6.878   4.295  11.778 -1.2426 -0.2166 -0.6775
 5594TIP3    H240978   6.875   4.155  11.720 -3.3185 -0.7254  0.5555
 5595TIP3   OH240979   6.946   2.672  10.283  0.2079  0.7394  1.0300
 5595TIP3    H140980   6.891   2.731  10.334 -2.3202 -0.8202  0.2631
 5595TIP3    H240981   6.889   2.598  10.261  2.6960 -1.1207  0.3684
 5596TIP3   OH240982   7.364   2.918  12.460  0.1251 -0.0460 -0.0701
 5596TIP3    H140983   7.441   2.861  12.455 -0.1037 -0.2813 -1.0240
 5596TIP3    H240984   7.290   2.859  12.474 -0.1569 -0.0478 -1.4003
 5597TIP3   OH240985   0.100   5.108  11.915  0.0075  0.0249 -0.2980
 5597TIP3    H140986   0.035   5.170  11.947 -0.8241 -0.9775  0.0206
 5597TIP3    H240987   0.056   5.061  11.845  0.0460 -1.2774  0.5164
 5598TIP3   OH240988   0.735   2.900  10.856  0.7119  0.1846  0.4868
 5598TIP3    H140989   0.687   2.830  10.811  0.4500 -0.6151  1.9673
 5598TIP3    H240990   0.762   2.959  10.785 -1.0342 -0.1999 -0.5597
 5599TIP3   OH240991   5.972   1.974  12.505  0.1721 -0.3398  0.1816
 5599TIP3    H140992   6.045   2.033  12.525  0.7378 -0.8022 -0.4587
 5599TIP3    H240993   6.007   1.915  12.438 -1.2566  0.3438 -1.1994
 5600TIP3   OH240994   1.915   3.868  11.476  0.0173  0.2832 -0.1681
 5600TIP3    H140995   1.982   3.933  11.497 -1.4889  1.2104  2.1855
 5600TIP3    H240996   1.961   3.802  11.425  2.5514  1.2146  0.7285
 5601TIP3   OH240997   7.312   7.278  12.141 -0.5555  0.6746 -0.2519
 5601TIP3    H140998   7.370   7.240  12.207 -0.5619 -0.1088 -0.6860
 5601TIP3    H240999   7.227   7.284  12.185 -1.0087 -1.5381 -0.7198
 5602TIP3   OH241000   5.414   0.576  11.542 -0.0698  0.0949 -0.3833
 5602TIP3    H141001   5.485   0.638  11.525 -0.4769  0.0089 -2.7570
 5602TIP3    H241002   5.454   0.490  11.528  0.4935 -0.2931  2.8926
 5603TIP3   OH241003   6.038   3.589  12.096 -0.0598  0.3322 -0.1147
 5603TIP3    H141004   6.094   3.526  12.142 -0.0207  2.5284  3.1970
 5603TIP3    H241005   6.091   3.620  12.023  2.0385  0.3600  1.3363
 5604TIP3   OH241006   2.040   3.433  11.140  0.7279  0.2262 -0.7372
 5604TIP3    H141007   2.119   3.408  11.092  1.0162 -0.7324  0.1990
 5604TIP3    H241008   2.063   3.420  11.232  0.4574  2.8314 -0.2464
 5605TIP3   OH241009   7.024   5.816  10.270 -0.6402  0.1417  0.1474
 5605TIP3    H141010   7.104   5.799  10.320 -0.5963  1.2751  0.4845
 5605TIP3    H241011   7.030   5.757  10.194  0.6322  0.3894  0.0394
 5606TIP3   OH241012   7.440   6.175  10.284 -0.0739 -0.4295 -0.7304
 5606TIP3    H141013   7.424   6.243  10.350  0.3439 -2.7855  1.9998
 5606TIP3    H241014   7.534   6.177  10.269  0.2625 -1.6215  0.9128
 5607TIP3   OH241015   2.101   0.933  13.187 -0.2889  0.1077 -0.5198
 5607TIP3    H141016   2.145   1.018  13.191 -0.0879  0.0421 -1.1699
 5607TIP3    H241017   2.170   0.869  13.198 -0.5580  0.0304  0.8121
 5608TIP3   OH241018   1.673   6.794  11.994 -0.0554  0.8316  0.0690
 5608TIP3    H141019   1.629   6.838  12.066  0.1735 -0.9603  1.3763
 5608TIP3    H241020   1.690   6.705  12.027  3.1986  0.9764 -0.8783
 5609TIP3   OH241021   0.312   2.696  12.297  0.3396  0.3955 -0.7709
 5609TIP3    H141022   0.245   2.764  12.306  1.0430  0.9613  0.5685
 5609TIP3    H241023   0.281   2.641  12.225 -1.0235  1.2407 -0.8748
 5610TIP3   OH241024   7.220   1.576  12.142 -0.1762 -0.1358 -0.8654
 5610TIP3    H141025   7.263   1.642  12.087 -0.3913  1.1022  0.3954
 5610TIP3    H241026   7.183   1.514  12.080 -1.2307  1.7127 -2.1916
 5611TIP3   OH241027   3.698   2.332  12.383 -0.3915  0.0855  0.4798
 5611TIP3    H141028   3.658   2.271  12.445  0.2785  0.0191  0.8562
 5611TIP3    H241029   3.624   2.376  12.341 -0.8709 -0.5493  0.6431
 5612TIP3   OH241030   7.283   1.266  11.385  0.6754  0.6832 -0.2908
 5612TIP3    H141031   7.203   1.289  11.339  0.3140  0.0998  0.0378
 5612TIP3    H241032   7.316   1.189  11.339  0.4672  0.2714  0.2367
 5613TIP3   OH241033   6.913   3.691  12.088  0.3367 -0.2400 -0.1861
 5613TIP3    H141034   6.896   3.774  12.132 -1.0845 -0.5824 -0.0333
 5613TIP3    H241035   6.966   3.641  12.149  0.3034  0.1544  0.1684
 5614TIP3   OH241036   4.144   3.672  12.433 -0.3898  0.2935  0.2574
 5614TIP3    H141037   4.148   3.734  12.360 -0.4083  1.2051  1.0153
 5614TIP3    H241038   4.150   3.586  12.391  0.6247  0.8214 -0.7434
 5615TIP3   OH241039   4.690   5.160  12.352  0.5353 -0.1115  0.6386
 5615TIP3    H141040   4.712   5.253  12.349 -0.8251  0.2020 -0.1536
 5615TIP3    H241041   4.625   5.152  12.421  0.3611 -0.4063  0.4457
 5616TIP3   OH241042   1.755   1.158  10.602  0.0601 -0.0889 -0.0086
 5616TIP3    H141043   1.830   1.216  10.587  0.8725 -1.3442 -0.9647
 5616TIP3    H241044   1.791   1.084  10.651 -0.5804 -0.6766 -0.4186
 5617TIP3   OH241045   0.617   3.244  11.160 -0.1657  0.0630 -0.1296
 5617TIP3    H141046   0.581   3.216  11.076  0.2025 -0.7992 -0.0159
 5617TIP3    H241047   0.672   3.171  11.188  0.6036  0.8041  0.3374
 5618TIP3   OH241048   1.278   6.779  11.793  0.4250 -0.3942 -0.6289
 5618TIP3    H141049   1.373   6.788  11.783  0.5201 -0.8496 -0.1933
 5618TIP3    H241050   1.244   6.784  11.704  0.8611 -0.2584 -0.7937
 5619TIP3   OH241051   6.817   0.312  12.181  0.3366  0.1932 -0.2265
 5619TIP3    H141052   6.815   0.328  12.086  0.4995 -0.5075 -0.3539
 5619TIP3    H241053   6.892   0.254  12.194 -1.4619 -2.2508 -0.0930
 5620TIP3   OH241054   6.530   4.238  12.046  0.3242 -0.3848  0.5014
 5620TIP3    H141055   6.612   4.238  12.095 -0.2293  0.2608  1.4505
 5620TIP3    H241056   6.468   4.282  12.103 -0.1320  1.1983 -1.1176
 5621TIP3   OH241057   6.606   2.328  12.415  0.2617 -0.8454  0.2664
 5621TIP3    H141058   6.693   2.367  12.413 -0.3801  0.6954  0.6774
 5621TIP3    H241059   6.621   2.237  12.441  1.8368 -0.9707 -0.9551
 5622TIP3   OH241060   6.179   5.366  12.602 -0.8776  0.2368  0.0085
 5622TIP3    H141061   6.134   5.380  12.519 -0.7139  1.9910  0.1787
 5622TIP3    H241062   6.200   5.454  12.633  0.8736 -0.4583  0.9252
 5623TIP3   OH241063   3.956   5.422  11.746  0.3626 -0.5284  0.3789
 5623TIP3    H141064   4.050   5.405  11.737  0.6807  0.3805  1.6669
 5623TIP3    H241065   3.937   5.490  11.681  0.9297  0.3309  1.0797
 5624TIP3   OH241066   5.330   1.119  10.560  0.2189  0.8564 -0.1053
 5624TIP3    H141067   5.373   1.034  10.574  1.5823  1.5198 -0.1007
 5624TIP3    H241068   5.284   1.136  10.641 -0.2487  0.0224 -0.1825
 5625TIP3   OH241069   7.019   5.981  12.226  0.1070 -0.0096  0.3824
 5625TIP3    H141070   6.976   6.066  12.223 -0.0302  0.0563  2.5274
 5625TIP3    H241071   6.948   5.919  12.242  0.3988 -0.3335  0.4306
 5626TIP3   OH241072   2.243   0.829  11.001  0.4996 -0.0409  0.3751
 5626TIP3    H141073   2.223   0.904  10.945  0.0116  0.0965  0.7294
 5626TIP3    H241074   2.158   0.788  11.018  0.7304 -0.5164  0.4136
 5627TIP3   OH241075   3.824   6.826  11.737 -0.5691  0.0030  0.1785
 5627TIP3    H141076   3.759   6.797  11.673 -1.2397  0.2523  0.7331
 5627TIP3    H241077   3.812   6.921  11.742  0.2255  0.1200 -0.1268
 5628TIP3   OH241078   6.519   1.199  11.896 -0.1671 -0.1477  0.0764
 5628TIP3    H141079   6.473   1.209  11.812 -0.8364  0.9523  0.5484
 5628TIP3    H241080   6.591   1.139  11.877 -0.2002  0.2145 -1.3389
 5629TIP3   OH241081   3.737   2.600  13.019  0.7192 -0.5479 -0.1047
 5629TIP3    H141082   3.784   2.621  12.938  1.2793 -2.0716 -0.2033
 5629TIP3    H241083   3.701   2.684  13.048  2.0981  0.3678 -0.9243
 5630TIP3   OH241084   3.906   6.008  12.602  0.2833  0.2395  0.4477
 5630TIP3    H141085   3.885   6.045  12.516  1.8491  2.7128  1.0133
 5630TIP3    H241086   3.858   5.926  12.605 -0.3435  0.3680 -2.5250
 5631TIP3   OH241087   5.756   1.541  12.866  0.4004  0.2890  0.0151
 5631TIP3    H141088   5.820   1.588  12.813  1.9141 -1.0109  0.6168
 5631TIP3    H241089   5.805   1.515  12.944 -0.1744 -2.7613 -0.5379
 5632TIP3   OH241090   7.309   2.277  10.674  0.0674 -0.5165  0.7069
 5632TIP3    H141091   7.389   2.329  10.668  1.3566 -2.5604 -1.5391
 5632TIP3    H241092   7.289   2.252  10.584 -2.6274 -0.8087  1.3023
 5633TIP3   OH241093   6.561   3.097  11.554  0.0921  0.0569 -0.0721
 5633TIP3    H141094   6.493   3.140  11.606 -0.3910 -1.3269  0.4995
 5633TIP3    H241095   6.517   3.020  11.517  0.4795  0.8788 -2.3812
 5634TIP3   OH241096   1.116   3.339  11.512 -0.3432  0.2014 -0.3069
 5634TIP3    H141097   1.168   3.273  11.559  0.5810  0.9229 -0.2801
 5634TIP3    H241098   1.065   3.288  11.449 -1.1013 -0.7274  0.9924
 5635TIP3   OH241099   0.475   6.915  12.726 -0.3371 -0.0746 -0.6255
 5635TIP3    H141100   0.530   6.924  12.648  0.8679  0.5366  0.2693
 5635TIP3    H241101   0.483   6.999  12.771 -1.6484 -0.1395 -0.2264
 5636TIP3   OH241102   3.795   5.004  12.231  0.2538 -0.2135 -0.0252
 5636TIP3    H141103   3.778   5.010  12.325 -1.2449 -1.9637 -0.1319
 5636TIP3    H241104   3.864   4.939  12.223 -1.1128 -1.6904 -0.2131
 5637TIP3   OH241105   3.807   3.797  12.054 -0.2584  0.3356  0.2685
 5637TIP3    H141106   3.771   3.849  12.126 -0.4921  1.0562 -0.3439
 5637TIP3    H241107   3.753   3.719  12.052 -0.6188  0.5727  0.5200
 5638TIP3   OH241108   3.394   2.125  10.761 -0.8083  0.1588  0.4464
 5638TIP3    H141109   3.370   2.195  10.700 -2.6535  0.1228  1.1049
 5638TIP3    H241110   3.384   2.163  10.848 -3.2923 -1.2693  0.8852
 5639TIP3   OH241111   7.295   4.091  12.084 -0.0676  0.0545 -0.3293
 5639TIP3    H141112   7.306   4.067  12.176 -1.4716 -0.2646 -0.2169
 5639TIP3    H241113   7.205   4.124  12.079 -0.9111 -2.2650 -2.0460
 5640TIP3   OH241114   1.019   3.000  11.594 -0.0325  0.3076 -0.1540
 5640TIP3    H141115   1.031   3.071  11.657 -0.6294  0.7309 -0.5059
 5640TIP3    H241116   0.955   2.941  11.636 -1.0205  0.9858 -0.6736
 5641TIP3   OH241117   7.257   0.094  11.304 -0.1334  0.1602  0.0248
 5641TIP3    H141118   7.294   0.094  11.392 -0.4924  0.0463  0.1772
 5641TIP3    H241119   7.326   0.132  11.249  1.0782 -2.0150 -0.0580
 5642TIP3   OH241120   2.919   1.390  12.685 -0.0652 -0.1623 -0.0878
 5642TIP3    H141121   2.889   1.352  12.767  1.3959  0.5728  0.8174
 5642TIP3    H241122   2.844   1.440  12.653 -0.2143  0.7041  1.5264
 5643TIP3   OH241123   3.350   5.168  11.239 -0.0495  0.1645  0.8881
 5643TIP3    H141124   3.435   5.137  11.268  0.9501  2.9387  1.1886
 5643TIP3    H241125   3.359   5.181  11.144  0.0178  0.9298  0.9986
 5644TIP3   OH241126   6.101   4.558  10.318  0.2908  0.3792 -0.1494
 5644TIP3    H141127   6.086   4.581  10.227 -1.4459  1.8748  0.4531
 5644TIP3    H241128   6.059   4.628  10.368  0.6183 -0.7350  1.7969
 5645TIP3   OH241129   5.279   1.006  11.137  0.5343 -0.3817 -0.2432
 5645TIP3    H141130   5.238   0.940  11.194 -2.9541  0.8628 -1.0485
 5645TIP3    H241131   5.257   1.090  11.179  2.0164  0.3956 -0.9643
 5646TIP3   OH241132   6.060   5.685  10.687 -0.5665 -0.1495  0.5900
 5646TIP3    H141133   5.990   5.641  10.736 -1.3200 -0.2024 -0.5144
 5646TIP3    H241134   6.082   5.624  10.617 -1.9123  1.3538 -1.2270
 5647TIP3   OH241135   4.726   3.418  11.346  0.0699  0.1330  0.3136
 5647TIP3    H141136   4.664   3.452  11.410 -0.2083  2.1134 -0.9297
 5647TIP3    H241137   4.679   3.422  11.263  1.8929  1.9776 -0.7176
 5648TIP3   OH241138   6.602   3.116  11.204  0.6929  0.1806  0.2204
 5648TIP3    H141139   6.584   3.048  11.268  0.8502  0.6932  0.8256
 5648TIP3    H241140   6.642   3.187  11.255  2.8569 -0.2375 -0.7556
 5649TIP3   OH241141   7.229   5.709  13.002  0.4915 -0.2334 -0.0216
 5649TIP3    H141142   7.152   5.740  12.953  0.1043 -0.9609  0.1167
 5649TIP3    H241143   7.194   5.648  13.066  0.6474  2.5779  2.9917
 5650TIP3   OH241144   1.247   7.083  11.935 -0.2019 -0.2926 -0.5408
 5650TIP3    H141145   1.243   7.145  11.862 -2.8134  0.4552  0.1235
 5650TIP3    H241146   1.266   6.999  11.894 -2.4413 -0.0443 -2.2586
 5651TIP3   OH241147   1.507   0.811  12.125  0.1101  0.4485  0.2445
 5651TIP3    H141148   1.569   0.882  12.108 -0.4192  1.2718  1.5743
 5651TIP3    H241149   1.486   0.776  12.038  1.4701  0.9677 -0.3231
 5652TIP3   OH241150   4.874   2.875  11.494 -0.2980  0.0484 -0.2972
 5652TIP3    H141151   4.886   2.956  11.543  2.6798 -0.6956  0.4106
 5652TIP3    H241152   4.952   2.868  11.439  0.0278 -2.7164  0.3453
 5653TIP3   OH241153   2.676   2.168  11.862  0.5599  0.7402  0.5100
 5653TIP3    H141154   2.695   2.239  11.924  0.1576  0.1441  1.3474
 5653TIP3    H241155   2.719   2.194  11.781 -1.2883  2.9433  0.1342
 5654TIP3   OH241156   0.769   7.321  10.646 -0.6668 -0.3836  0.3251
 5654TIP3    H141157   0.764   7.331  10.551  0.3584 -0.2048  0.2750
 5654TIP3    H241158   0.855   7.282  10.661 -1.4185 -1.8158  1.0929
 5655TIP3   OH241159   3.601   5.893  11.288  0.4424  0.2333 -0.0926
 5655TIP3    H141160   3.691   5.925  11.285  0.2490  0.7671 -0.4709
 5655TIP3    H241161   3.607   5.806  11.327  1.0003  0.7029  0.9041
 5656TIP3   OH241162   2.755   2.246  11.232  0.2396  0.6410  0.3653
 5656TIP3    H141163   2.746   2.155  11.203 -4.8619  1.1392 -0.6641
 5656TIP3    H241164   2.804   2.289  11.162  2.3500 -1.1209  0.6587
 5657TIP3   OH241165   6.055   3.842  11.700  0.5387  0.4367 -0.4001
 5657TIP3    H141166   6.146   3.829  11.673  0.4254  1.3052 -1.2706
 5657TIP3    H241167   6.055   3.929  11.740  0.5712 -0.5703  1.9202
 5658TIP3   OH241168   2.830   7.678  12.418 -0.4569  0.2436  0.3270
 5658TIP3    H141169   2.812   7.718  12.504 -1.5478  1.9326 -0.6373
 5658TIP3    H241170   2.820   7.750  12.356 -0.0583 -1.0386 -1.2686
 5659TIP3   OH241171   1.171   4.185  12.546 -0.0220 -0.4817 -0.0103
 5659TIP3    H141172   1.234   4.116  12.524 -0.9297 -1.5594  0.7023
 5659TIP3    H241173   1.199   4.216  12.632 -0.4654 -0.9734  0.3149
 5660TIP3   OH241174   5.099   6.689  12.471 -0.6482  0.3554 -0.1365
 5660TIP3    H141175   5.148   6.748  12.413 -1.0963 -0.7747 -1.7089
 5660TIP3    H241176   5.119   6.601  12.439 -2.0922 -0.2369  0.4892
 5661TIP3   OH241177   0.986   3.440  12.156 -0.2608  0.5746  0.1883
 5661TIP3    H141178   0.952   3.350  12.150 -1.6111  1.1067 -0.5357
 5661TIP3    H241179   0.975   3.464  12.248 -0.3847  0.1884  0.2779
 5662TIP3   OH241180   7.643   6.516  12.418 -0.1937  0.2297 -0.6468
 5662TIP3    H141181   7.658   6.605  12.450  2.6327 -0.3837  0.0380
 5662TIP3    H241182   7.663   6.459  12.493  1.5348 -1.0434 -1.9624
 5663TIP3   OH241183   7.318   2.321  11.338  0.3198  0.5605 -0.2059
 5663TIP3    H141184   7.283   2.406  11.365  0.1519 -0.3618  2.9242
 5663TIP3    H241185   7.245   2.260  11.351  1.7978 -0.7867  2.7059
 5664TIP3   OH241186   3.230   5.050  11.481  0.0051  0.3666 -0.1934
 5664TIP3    H141187   3.259   5.096  11.402  0.0461  0.3020 -0.2161
 5664TIP3    H241188   3.290   5.080  11.549 -0.7425  1.3137  0.0743
 5665TIP3   OH241189   2.250   5.638  12.389  0.1757 -0.2827  0.0364
 5665TIP3    H141190   2.182   5.632  12.322  1.3511 -2.4662 -1.0844
 5665TIP3    H241191   2.227   5.715  12.441 -3.0275 -0.8159 -0.3864
 5666TIP3   OH241192   0.422   6.311  12.079 -0.9478 -0.0822  0.1354
 5666TIP3    H141193   0.413   6.280  12.170 -0.0571  0.0114  0.2712
 5666TIP3    H241194   0.385   6.240  12.026  1.6196 -1.7953  0.4071
 5667TIP3   OH241195   4.720   2.014  11.977  0.0502  0.8226 -0.4595
 5667TIP3    H141196   4.778   1.938  11.977 -1.1043 -0.0942 -0.8857
 5667TIP3    H241197   4.775   2.086  11.946  1.1231  0.1293 -0.2107
 5668TIP3   OH241198   6.632   1.098  12.625  0.2816  0.2117  0.6898
 5668TIP3    H141199   6.566   1.079  12.692 -0.4524 -0.6172 -0.2363
 5668TIP3    H241200   6.682   1.172  12.661 -1.7682  1.5285  0.9756
 5669TIP3   OH241201   4.191   6.686  10.431 -0.2049 -0.3193  0.8068
 5669TIP3    H141202   4.230   6.728  10.508 -0.6750 -1.4282  1.6827
 5669TIP3    H241203   4.099   6.714  10.433 -0.2246 -0.3749  0.6625
 5670TIP3   OH241204   4.895   0.245  11.258 -0.4554 -0.3549 -0.3254
 5670TIP3    H141205   4.956   0.272  11.326 -0.9762 -2.1661  0.9439
 5670TIP3    H241206   4.811   0.285  11.284 -0.0411  1.4948 -1.6475
 5671TIP3   OH241207   2.916   6.483  11.718 -0.0932 -0.0987 -0.1482
 5671TIP3    H141208   2.824   6.487  11.745 -0.0530  0.1307 -0.0411
 5671TIP3    H241209   2.934   6.390  11.707 -1.1958 -0.0612 -3.1351
 5672TIP3   OH241210   6.111   0.819  11.993  0.2131 -0.0579 -0.2815
 5672TIP3    H141211   6.169   0.744  11.984 -0.7482 -0.8873  0.1775
 5672TIP3    H241212   6.025   0.781  12.010 -0.3803  1.1431 -0.4439
 5673TIP3   OH241213   3.997   4.967  11.741 -0.1685 -0.4507  0.2768
 5673TIP3    H141214   3.996   4.964  11.645 -0.0249  0.3854  0.2390
 5673TIP3    H241215   3.908   4.944  11.767  0.1711 -2.2294  0.0191
 5674TIP3   OH241216   4.904   1.927  12.314  0.6193 -0.3077 -0.1330
 5674TIP3    H141217   4.998   1.935  12.329  0.8935  0.6447 -2.1231
 5674TIP3    H241218   4.871   2.016  12.320 -0.0033 -0.5169 -0.4099
 5675TIP3   OH241219   7.512   2.263  12.900 -0.2447 -0.4081 -0.1112
 5675TIP3    H141220   7.419   2.280  12.891  0.1655  1.3669 -1.4895
 5675TIP3    H241221   7.541   2.321  12.970  0.2866  1.1355 -1.5549
 5676TIP3   OH241222   3.401   6.152  10.830  0.3955 -0.6287 -0.3689
 5676TIP3    H141223   3.469   6.219  10.834  0.9137 -1.1662  0.0268
 5676TIP3    H241224   3.370   6.143  10.921  0.2464 -0.8342 -0.4385
 5677TIP3   OH241225   7.601   3.374  11.451 -0.1058 -0.2737  0.2629
 5677TIP3    H141226   7.696   3.386  11.445  0.2413 -2.7879 -0.1779
 5677TIP3    H241227   7.571   3.449  11.502  2.2527  0.0396  1.3104
 5678TIP3   OH241228   6.801   4.497  11.756  0.0685 -0.1641  0.0531
 5678TIP3    H141229   6.795   4.535  11.843  0.5832  0.8249 -0.3307
 5678TIP3    H241230   6.895   4.486  11.741 -0.0653 -1.6696  0.1756
 5679TIP3   OH241231   1.578   3.914  11.168 -0.0110  0.4120  0.1590
 5679TIP3    H141232   1.611   3.906  11.078  1.9598 -1.1161  0.9338
 5679TIP3    H241233   1.651   3.954  11.216 -0.2672 -0.6129  1.4451
 5680TIP3   OH241234   6.208   2.362  11.964 -0.2687  0.3419  0.0135
 5680TIP3    H141235   6.149   2.288  11.980  0.3997 -0.6731 -1.8510
 5680TIP3    H241236   6.257   2.371  12.045 -1.6911 -0.0069  0.9410
 5681TIP3   OH241237   2.817   1.243  11.875  0.0487  0.9696  0.3894
 5681TIP3    H141238   2.767   1.295  11.937 -0.7910 -0.4237  0.9247
 5681TIP3    H241239   2.873   1.187  11.929  0.6531  1.0145 -0.1640
 5682TIP3   OH241240   1.962   4.331  12.777 -0.2930  0.0118  0.1312
 5682TIP3    H141241   1.876   4.294  12.797 -0.6593 -0.1269 -1.5332
 5682TIP3    H241242   1.978   4.305  12.686  2.0665 -1.0378  0.7677
 5683TIP3   OH241243   2.381   1.481  12.407 -0.2330  0.2957 -0.8552
 5683TIP3    H141244   2.384   1.388  12.384 -1.6295 -0.0452  0.1899
 5683TIP3    H241245   2.394   1.483  12.502  0.3018  1.2237 -0.9342
 5684TIP3   OH241246   5.809   6.974  10.703  0.1869  0.1469  0.0740
 5684TIP3    H141247   5.870   7.039  10.670 -0.4703 -0.7748 -3.3061
 5684TIP3    H241248   5.852   6.890  10.685 -1.7021 -0.4926 -1.7959
 5685TIP3   OH241249   1.669   2.248  12.535  0.3908 -0.1693 -0.1999
 5685TIP3    H141250   1.588   2.295  12.516  1.0564  1.7929  1.5233
 5685TIP3    H241251   1.667   2.173  12.476 -2.1495  0.4057 -0.9595
 5686TIP3   OH241252   1.918   4.269  10.827  0.0483 -0.1116 -0.2045
 5686TIP3    H141253   1.952   4.349  10.786 -2.7104  1.2528 -0.0707
 5686TIP3    H241254   1.900   4.296  10.918  1.0257 -1.5201  0.4280
 5687TIP3   OH241255   5.687   6.735  12.442  0.0250  0.1075 -0.1477
 5687TIP3    H141256   5.690   6.785  12.524  0.0572 -0.3617  0.1431
 5687TIP3    H241257   5.595   6.741  12.414 -0.0064  0.1911 -0.0274
 5688TIP3   OH241258   0.235   3.048  12.590 -0.1921  0.1372  0.6458
 5688TIP3    H141259   0.202   3.138  12.584 -1.1136 -0.2625 -1.1352
 5688TIP3    H241260   0.157   2.996  12.608  0.3349 -0.3117  1.6435
 5689TIP3   OH241261   3.184   3.584  12.261  0.2737  0.6152  0.1220
 5689TIP3    H141262   3.240   3.534  12.320 -0.1332 -0.1626 -0.1386
 5689TIP3    H241263   3.243   3.613  12.191  0.7168  1.3752  0.7905
 5690TIP3   OH241264   5.735   4.675  12.372 -0.1602 -0.1689  0.5466
 5690TIP3    H141265   5.750   4.624  12.292  0.0217 -1.4291  1.3502
 5690TIP3    H241266   5.823   4.700  12.401 -0.0564 -1.4178  1.3954
 5691TIP3   OH241267   1.987   4.702  12.141 -0.1108  0.2338 -0.1279
 5691TIP3    H141268   2.071   4.742  12.165 -1.0101  1.4410  1.1877
 5691TIP3    H241269   1.961   4.654  12.220 -0.4925 -0.4331 -0.6554
 5692TIP3   OH241270   4.283   6.257  10.757 -0.6095 -0.6754 -0.0508
 5692TIP3    H141271   4.307   6.346  10.731 -1.1639 -0.4828  0.0776
 5692TIP3    H241272   4.187   6.259  10.762 -0.5766 -0.9408  1.1311
 5693TIP3   OH241273   4.803   3.628  11.736  0.3691 -0.3959 -0.6267
 5693TIP3    H141274   4.733   3.630  11.671  0.4982  0.7332 -0.7471
 5693TIP3    H241275   4.873   3.681  11.698  1.3038 -1.5031 -0.5030
 5694TIP3   OH241276   3.139   0.541  12.583  0.6640 -0.1312  0.2363
 5694TIP3    H141277   3.114   0.524  12.674  0.5709  0.2059  0.2744
 5694TIP3    H241278   3.214   0.600  12.590  0.2238  0.4601  0.0852
 5695TIP3   OH241279   1.984   2.291  11.911 -1.0578  0.0695 -0.1825
 5695TIP3    H141280   2.033   2.223  11.957  0.3848  1.1292 -0.0696
 5695TIP3    H241281   2.041   2.368  11.916 -2.5964  1.2630 -0.3761
 5696TIP3   OH241282   6.586   4.997  10.828 -0.1807 -0.2413 -0.0765
 5696TIP3    H141283   6.590   5.088  10.797 -1.1311  0.2344  1.1076
 5696TIP3    H241284   6.539   4.950  10.759  0.2048  0.1938 -0.6384
 5697TIP3   OH241285   3.714   2.652  11.688  0.1492 -0.2191  0.1719
 5697TIP3    H141286   3.672   2.567  11.703  0.3802 -0.9249 -2.5237
 5697TIP3    H241287   3.661   2.714  11.738 -2.1004 -1.5456 -0.3953
 5698TIP3   OH241288   0.079   6.779  10.963  0.6837  0.1706 -0.4391
 5698TIP3    H141289   0.086   6.857  10.908 -2.0248  0.7547 -0.0671
 5698TIP3    H241290  -0.002   6.737  10.935  0.7409 -1.0893  1.1466
 5699TIP3   OH241291   4.192   2.856  12.720  0.6513  0.1874 -0.2980
 5699TIP3    H141292   4.216   2.808  12.798 -0.4588  0.7701  0.4301
 5699TIP3    H241293   4.268   2.911  12.700  0.5693  0.8001  0.9850
 5700TIP3   OH241294   4.098   0.931  10.915 -0.3186  0.0032 -0.1575
 5700TIP3    H141295   4.079   0.842  10.886  1.7937 -0.6826  0.3623
 5700TIP3    H241296   4.104   0.923  11.011 -0.1209  0.6908 -0.1119
 5701TIP3   OH241297   3.076   4.190  12.489 -0.7924 -0.2925 -0.0516
 5701TIP3    H141298   2.981   4.204  12.481 -0.9762 -0.1384  1.9564
 5701TIP3    H241299   3.086   4.137  12.568  0.9307  2.0944  1.4841
 5702TIP3   OH241300   6.644   3.654  12.000 -0.4985  0.6518 -0.2390
 5702TIP3    H141301   6.735   3.662  12.030 -0.5664 -0.7979  0.4463
 5702TIP3    H241302   6.651   3.635  11.907 -0.1252  1.1718 -0.3211
 5703TIP3   OH241303   5.024   6.069  12.376 -0.0744 -0.6963  0.2201
 5703TIP3    H141304   4.959   6.133  12.404  2.3129  1.0227  2.2564
 5703TIP3    H241305   5.075   6.114  12.308 -0.2652 -1.6046 -0.5512
 5704TIP3   OH241306   5.532   4.156  12.777 -0.2652  0.5915 -0.5475
 5704TIP3    H141307   5.549   4.072  12.820 -1.3398  0.5049 -0.2522
 5704TIP3    H241308   5.469   4.134  12.708  1.2146  0.7714 -2.0162
 5705TIP3   OH241309   5.127   0.824  11.755 -0.1691  0.4528  0.2788
 5705TIP3    H141310   5.141   0.831  11.850  0.8859  0.2654  0.1522
 5705TIP3    H241311   5.111   0.914  11.726 -3.3210  0.2417  1.0006
 5706TIP3   OH241312   2.517   2.115  12.231  0.9510 -0.0217 -0.0406
 5706TIP3    H141313   2.452   2.079  12.292 -1.5719  1.1272 -1.8694
 5706TIP3    H241314   2.520   2.052  12.159  0.7480  0.6546 -0.6489
 5707TIP3   OH241315   3.417   5.184  11.654 -0.4006  0.0256 -0.2281
 5707TIP3    H141316   3.375   5.260  11.694  0.8342  0.8040 -0.3776
 5707TIP3    H241317   3.471   5.220  11.584  0.0476 -1.0092 -0.4268
 5708TIP3   OH241318   5.355   6.999  11.822  0.0451 -0.4288  0.0695
 5708TIP3    H141319   5.272   6.963  11.853  0.2049 -1.0611 -0.2337
 5708TIP3    H241320   5.329   7.063  11.754 -0.2233 -0.1060  0.4711
 5709TIP3   OH241321   3.426   2.020  10.473  0.3563  0.5169 -0.1989
 5709TIP3    H141322   3.435   2.041  10.380 -0.6094 -0.7399 -0.6051
 5709TIP3    H241323   3.475   2.089  10.518  2.0280  0.3693 -1.6850
 5710TIP3   OH241324   2.005   1.955  11.772 -0.3262  1.0329 -0.3390
 5710TIP3    H141325   1.999   2.002  11.855  0.4432  1.7036 -0.6506
 5710TIP3    H241326   2.069   1.886  11.788 -1.0364  0.4366 -0.0458
 5711TIP3   OH241327   5.963   1.666  10.288 -0.4270  0.2654  0.2318
 5711TIP3    H141328   5.891   1.607  10.312 -1.9738  0.3752 -3.4946
 5711TIP3    H241329   5.926   1.754  10.299 -0.0280  0.3928  0.5628
 5712TIP3   OH241330   1.916   6.748  12.284 -0.3875  0.1425  0.1392
 5712TIP3    H141331   1.960   6.720  12.364  1.2475 -2.5289 -1.5378
 5712TIP3    H241332   1.846   6.684  12.270  0.1738 -0.2236 -1.1913
 5713TIP3   OH241333   5.964   6.214  10.815  0.0261  0.0608  0.1028
 5713TIP3    H141334   5.939   6.128  10.849  0.5730  0.4585  1.6003
 5713TIP3    H241335   5.997   6.196  10.726  0.5717 -1.3510  0.5595
 5714TIP3   OH241336   5.868   5.420  11.603  0.5476 -0.0609  0.2768
 5714TIP3    H141337   5.918   5.368  11.665 -0.4005  1.1304  2.1156
 5714TIP3    H241338   5.786   5.439  11.648 -0.5307  0.1469 -1.6757
 5715TIP3   OH241339   4.407   2.591  12.281 -0.6703 -0.3183 -0.4516
 5715TIP3    H141340   4.333   2.614  12.337 -0.3401 -1.1961  0.3887
 5715TIP3    H241341   4.435   2.673  12.242 -0.0614  0.6089  1.7579
 5716TIP3   OH241342   3.218   2.575  12.975 -0.0819 -0.3412 -0.3093
 5716TIP3    H141343   3.167   2.564  13.055 -0.5824  0.2286 -0.5433
 5716TIP3    H241344   3.199   2.664  12.946  1.2450 -0.0097 -0.2667
 5717TIP3   OH241345   0.147   2.306  10.875  0.2680  0.4208  0.3570
 5717TIP3    H141346   0.234   2.297  10.835  0.2751 -1.3273  0.7092
 5717TIP3    H241347   0.133   2.401  10.879  2.2891  0.7645  0.5764
 5718TIP3   OH241348   6.420   7.453  10.752  0.1124  0.0828 -0.3009
 5718TIP3    H141349   6.471   7.529  10.778  1.0293 -0.6830  0.2206
 5718TIP3    H241350   6.455   7.381  10.806  0.7726 -1.1535 -2.2423
 5719TIP3   OH241351   5.973   4.207  12.301  0.4285 -0.4559 -0.0288
 5719TIP3    H141352   6.018   4.133  12.343  0.3805 -0.1939  0.4951
 5719TIP3    H241353   5.946   4.262  12.374  0.2131 -0.0618 -0.4056
 5720TIP3   OH241354   1.284   6.343  11.159  0.1338 -0.1708 -0.0997
 5720TIP3    H141355   1.373   6.345  11.195 -0.9827  1.0430  2.9778
 5720TIP3    H241356   1.290   6.392  11.077  2.1537  0.7499  0.5405
 5721TIP3   OH241357   5.780   6.493  10.755 -0.1151  0.6005 -0.3094
 5721TIP3    H141358   5.795   6.503  10.849 -0.1005  1.7355 -0.4215
 5721TIP3    H241359   5.845   6.550  10.714 -0.2485  0.2622 -1.0057
 5722TIP3   OH241360   3.246   7.213  12.361 -0.0625  0.0445 -0.5663
 5722TIP3    H141361   3.244   7.308  12.346  1.4726  0.0961 -0.5723
 5722TIP3    H241362   3.286   7.177  12.281  0.0057 -0.5406 -0.2718
 5723TIP3   OH241363   6.421   0.972  10.584  0.0106  0.2159  0.5118
 5723TIP3    H141364   6.478   0.935  10.516  0.9035  1.3240  0.6179
 5723TIP3    H241365   6.477   1.034  10.631 -1.4229  1.7883  0.2452
 5724TIP3   OH241366   6.762   6.626  12.091  0.3544  0.2308 -0.2311
 5724TIP3    H141367   6.840   6.581  12.058  0.4724  0.0551  0.2726
 5724TIP3    H241368   6.788   6.658  12.178 -1.2205 -3.0039  1.6202
 5725TIP3   OH241369   2.350   3.531  12.653  0.2896 -0.4889  0.6614
 5725TIP3    H141370   2.438   3.560  12.675  0.1112 -0.5074  1.3989
 5725TIP3    H241371   2.306   3.518  12.737 -1.0995  1.5703  0.3530
 5726TIP3   OH241372   4.228   5.549  10.264 -0.2609  0.3621 -0.4953
 5726TIP3    H141373   4.189   5.462  10.262 -1.1586  0.7595 -0.6894
 5726TIP3    H241374   4.322   5.533  10.268 -0.3740 -0.6103 -1.3401
 5727TIP3   OH241375   2.482   0.213  12.814 -0.3581  0.1480  0.7288
 5727TIP3    H141376   2.509   0.305  12.821  0.1850  0.1398 -0.9263
 5727TIP3    H241377   2.396   0.210  12.856  0.5577  0.9470  2.7724
 5728TIP3   OH241378   0.460   4.912  12.717  0.1517 -0.0956  0.9212
 5728TIP3    H141379   0.368   4.911  12.740 -0.3437 -2.1734 -0.7604
 5728TIP3    H241380   0.503   4.859  12.785 -0.4788 -1.8722  0.0186
 5729TIP3   OH241381   7.137   0.103  11.789 -0.4073 -0.1713  0.1909
 5729TIP3    H141382   7.120   0.142  11.874 -0.0567 -0.9588  0.6333
 5729TIP3    H241383   7.099   0.016  11.794 -0.5286 -0.1685 -0.5156
 5730TIP3   OH241384   3.344   2.193  12.201 -0.1953  0.2945  0.1053
 5730TIP3    H141385   3.379   2.253  12.267  1.7654  1.3459 -1.7672
 5730TIP3    H241386   3.265   2.236  12.169 -1.1197 -0.1854  1.6417
 5731TIP3   OH241387   2.606   3.616  12.719 -0.2936 -0.0290 -0.1266
 5731TIP3    H141388   2.690   3.601  12.762 -0.6879 -0.2295  0.6083
 5731TIP3    H241389   2.623   3.687  12.657  0.0304  1.2159  1.2931
 5732TIP3   OH241390   3.273   1.077  11.439 -0.1978 -0.3888  0.7933
 5732TIP3    H141391   3.288   1.133  11.363  0.1285 -1.6449 -0.0941
 5732TIP3    H241392   3.231   0.999  11.404  1.8965 -1.9564  1.5280
 5733TIP3   OH241393   1.627   5.376  11.267  0.1949  0.3909  0.3050
 5733TIP3    H141394   1.608   5.307  11.331  1.3494 -0.6304 -0.4065
 5733TIP3    H241395   1.552   5.376  11.208  0.5142 -0.7873 -0.1208
 5734TIP3   OH241396   1.220   3.878  10.734 -0.0100 -0.1453  0.1775
 5734TIP3    H141397   1.143   3.859  10.787  0.8502 -0.9172  1.1952
 5734TIP3    H241398   1.218   3.811  10.665 -1.6279  1.4152 -1.3818
 5735TIP3   OH241399   6.312   5.045  13.295 -0.0709  0.0587 -0.0235
 5735TIP3    H141400   6.266   5.021  13.375 -0.7241 -0.7055 -0.6090
 5735TIP3    H241401   6.277   5.131  13.272 -1.5760 -0.6921 -0.6968
 5736TIP3   OH241402   6.247   3.072  11.325 -0.3401 -0.3067 -0.1413
 5736TIP3    H141403   6.172   3.102  11.377  0.8318  1.3555  0.6824
 5736TIP3    H241404   6.290   3.008  11.381 -0.5546 -0.4971 -0.1901
 5737TIP3   OH241405   5.932   1.449  10.679 -0.0981  0.0431 -0.3710
 5737TIP3    H141406   5.968   1.532  10.708  1.2006 -0.3981 -0.6273
 5737TIP3    H241407   5.975   1.432  10.595  1.5788 -2.0334  0.8000
 5738TIP3   OH241408   0.577   6.974  11.415 -0.0784 -0.0832 -0.0062
 5738TIP3    H141409   0.500   6.923  11.388 -0.2773 -0.3665  1.0544
 5738TIP3    H241410   0.554   7.009  11.501  0.4544  0.9684 -0.2808
 5739TIP3   OH241411   0.576   4.983  10.741  0.3034 -0.0126  0.0524
 5739TIP3    H141412   0.545   4.943  10.823  1.9758  1.0415  1.2566
 5739TIP3    H241413   0.638   4.919  10.706 -1.0782 -0.8792 -0.9308
 5740TIP3   OH241414   0.354   3.896  10.551  0.5204 -0.0705 -0.0652
 5740TIP3    H141415   0.263   3.872  10.567  1.2379 -3.0959 -0.0126
 5740TIP3    H241416   0.358   3.909  10.456  0.8709 -4.8890 -0.9731
 5741TIP3   OH241417   0.809   3.160  12.826 -0.3001 -0.4825 -0.3790
 5741TIP3    H141418   0.894   3.200  12.808  0.6501 -2.0153  0.5085
 5741TIP3    H241419   0.745   3.226  12.798  1.1669  0.8628 -0.6895
 5742TIP3   OH241420   0.984   6.195  11.009 -0.0396 -0.4756  0.0868
 5742TIP3    H141421   1.067   6.168  10.969  0.4893 -0.4852  1.1674
 5742TIP3    H241422   0.969   6.131  11.078 -0.7075 -0.1926  0.2072
 5743TIP3   OH241423   6.903   7.089  19.370 -0.8980  0.2307  0.0898
 5743TIP3    H141424   6.966   7.150  19.409  1.9797 -1.3550 -1.7074
 5743TIP3    H241425   6.837   7.145  19.330 -0.6419  2.0096  2.0130
 5744TIP3   OH241426   6.785   1.201  12.314  0.6287  0.1037 -0.3276
 5744TIP3    H141427   6.762   1.112  12.287  1.1882 -0.2435  0.2960
 5744TIP3    H241428   6.704   1.251  12.304 -0.1771 -0.8848  0.9637
 5745TIP3   OH241429   1.172   2.095  12.410 -0.2045  0.6213 -0.3167
 5745TIP3    H141430   1.171   2.046  12.492  2.7495  1.3246  0.2684
 5745TIP3    H241431   1.167   2.029  12.342  2.3068 -0.5169  0.4629
 5746TIP3   OH241432   5.800   0.942  11.693 -0.3260 -0.1464  0.6984
 5746TIP3    H141433   5.760   0.982  11.770 -1.0050  1.9581 -0.6481
 5746TIP3    H241434   5.876   0.996  11.674  0.1036 -0.9165  0.1699
 5747TIP3   OH241435   6.079   0.872  11.126 -0.0358  0.0871  0.5333
 5747TIP3    H141436   6.157   0.878  11.181  0.2968 -0.2619  0.1060
 5747TIP3    H241437   6.031   0.954  11.143  1.6873  1.5245 -1.1021
 5748TIP3   OH241438   1.415   5.848  11.915 -0.1433 -0.3237  0.0106
 5748TIP3    H141439   1.502   5.810  11.925 -0.2871 -0.8620 -0.6928
 5748TIP3    H241440   1.361   5.802  11.979  0.3809  1.0256  1.4772
 5749TIP3   OH241441   7.120   2.932  11.858 -0.1508 -0.4082  0.5046
 5749TIP3    H141442   7.172   2.880  11.797 -0.5664 -1.1847  0.7936
 5749TIP3    H241443   7.099   2.871  11.930 -0.9117  0.0637  0.7010
 5750TIP3   OH241444   5.834   3.784  12.491 -1.0563 -0.7718  0.1652
 5750TIP3    H141445   5.844   3.705  12.439 -0.7178 -1.1174  0.7341
 5750TIP3    H241446   5.807   3.753  12.577  0.2981 -0.3936  0.7710
 5751TIP3   OH241447   1.409   6.672  11.340  0.1477 -0.4567  0.2603
 5751TIP3    H141448   1.468   6.639  11.408  0.7391  1.6810  0.8586
 5751TIP3    H241449   1.323   6.638  11.364  0.7095 -1.5189  0.8277
 5752TIP3   OH241450   2.873   4.507  12.046 -0.3354  0.2136 -0.2210
 5752TIP3    H141451   2.827   4.571  11.992 -0.1730  0.7118  0.2152
 5752TIP3    H241452   2.890   4.433  11.988 -0.7570  0.4604 -0.6627
 5753TIP3   OH241453   5.914   0.210  11.731  0.6986  0.6798 -0.1684
 5753TIP3    H141454   5.910   0.229  11.825 -1.2673 -0.6312  0.0730
 5753TIP3    H241455   6.006   0.190  11.715  0.7895 -1.0201  1.9419
 5754TIP3   OH241456   7.649   7.076  11.044 -0.6082 -0.1329 -0.3053
 5754TIP3    H141457   7.568   7.033  11.072 -1.0656  1.1830  0.4988
 5754TIP3    H241458   7.656   7.057  10.950 -0.5829 -2.2217  0.0736
 5755TIP3   OH241459   5.757   7.314  12.796 -0.0074  0.3098  0.6056
 5755TIP3    H141460   5.732   7.356  12.879 -0.6520  0.7759  0.1826
 5755TIP3    H241461   5.679   7.266  12.769 -0.6256  2.0420 -0.8944
 5756TIP3   OH241462   6.632   6.954  10.841 -0.2407  0.1957  0.2952
 5756TIP3    H141463   6.589   6.950  10.755 -0.6445  1.2674  0.4412
 5756TIP3    H241464   6.703   7.016  10.829  2.2213 -2.5369 -0.3233
 5757TIP3   OH241465   2.093   4.347  13.020 -0.0708 -0.0415 -0.7179
 5757TIP3    H141466   2.022   4.376  12.962 -1.1747 -0.7995  0.2166
 5757TIP3    H241467   2.159   4.417  13.013 -1.5569  1.4563 -0.4443
 5758TIP3   OH241468   7.237   2.626  12.096 -0.0368  0.2884 -0.0319
 5758TIP3    H141469   7.278   2.559  12.041  2.3548  2.2161 -0.7596
 5758TIP3    H241470   7.268   2.606  12.185  2.1892  1.3589 -0.4860
 5759TIP3   OH241471   4.758   4.474  11.346 -0.1376  0.3418 -0.0592
 5759TIP3    H141472   4.777   4.471  11.253  1.4893 -2.0444  0.2729
 5759TIP3    H241473   4.663   4.486  11.351 -0.3128  0.0445 -2.0182
 5760TIP3   OH241474   5.056   3.679  12.852  0.1106 -0.4915 -0.1011
 5760TIP3    H141475   4.975   3.708  12.894  0.9708  2.9210 -0.4623
 5760TIP3    H241476   5.028   3.627  12.778 -1.8543  1.1325 -0.5920
 5761TIP3   OH241477   2.455   6.236  10.824 -0.6497  0.0071 -0.1232
 5761TIP3    H141478   2.443   6.205  10.914  0.7158 -1.4991 -0.4176
 5761TIP3    H241479   2.536   6.195  10.795 -1.5396 -0.2860 -2.3870
 5762TIP3   OH241480   3.735   7.365  12.500  0.0878 -1.0425  0.2809
 5762TIP3    H141481   3.786   7.434  12.457 -0.0110 -1.6152 -0.7767
 5762TIP3    H241482   3.721   7.398  12.589 -0.8330  0.7845 -0.4876
 5763TIP3   OH241483   4.930   2.575  11.179 -0.9547 -0.0298  0.0420
 5763TIP3    H141484   4.989   2.602  11.249 -0.1108  0.1403 -0.7143
 5763TIP3    H241485   4.968   2.493  11.147  0.2824  1.2348 -2.0051
 5764TIP3   OH241486   4.084   1.346  13.339 -0.3977 -0.0714  0.3750
 5764TIP3    H141487   4.011   1.284  13.342 -0.6241  0.2233  2.3581
 5764TIP3    H241488   4.048   1.427  13.375  0.1665  0.9485 -1.2626
 5765TIP3   OH241489   1.136   2.585  12.386  0.4919 -0.2804  0.2408
 5765TIP3    H141490   1.118   2.573  12.292 -1.2515 -0.1087  0.5232
 5765TIP3    H241491   1.059   2.631  12.419  2.1541  1.8739  1.3234
 5766TIP3   OH241492   5.481   7.631  13.043  0.1043 -0.4629 -0.6211
 5766TIP3    H141493   5.390   7.600  13.038 -0.4825  1.2780 -1.6400
 5766TIP3    H241494   5.478   7.718  13.004  1.7766  0.6535  1.5626
 5767TIP3   OH241495   5.462   6.470  10.689  0.1627  0.1450 -0.5894
 5767TIP3    H141496   5.554   6.478  10.663  0.5068 -1.2483  0.0974
 5767TIP3    H241497   5.465   6.446  10.782 -0.6573 -4.5560 -1.5448
 5768TIP3   OH241498   1.618   0.043  12.167  0.1153 -0.0185 -0.4570
 5768TIP3    H141499   1.538   0.079  12.127 -0.8736 -0.0420  1.3583
 5768TIP3    H241500   1.613  -0.051  12.149  0.2952  0.1223 -1.2646
 5769TIP3   OH241501   0.999   2.214  10.700  0.1484  0.1535 -0.1763
 5769TIP3    H141502   0.946   2.245  10.627 -0.5565  0.3039  0.3926
 5769TIP3    H241503   1.022   2.294  10.748  0.3180  0.0205 -0.0361
 5770TIP3   OH241504   2.240   4.197  12.771 -0.2650  0.0562 -0.4376
 5770TIP3    H141505   2.314   4.220  12.826 -0.0568  2.6136 -1.6213
 5770TIP3    H241506   2.226   4.275  12.717 -0.5226 -2.1835 -3.9032
 5771TIP3   OH241507   7.492   4.479  11.941  0.5296  0.7151 -0.6366
 5771TIP3    H141508   7.542   4.413  11.895  1.2930  0.5896  0.3350
 5771TIP3    H241509   7.521   4.472  12.033 -1.9800 -0.0546  0.1739
 5772TIP3   OH241510   6.779   4.733  12.376 -0.4240  0.3801 -0.0479
 5772TIP3    H141511   6.713   4.755  12.309 -0.2692  0.1546 -0.2789
 5772TIP3    H241512   6.754   4.785  12.452 -0.3487  0.9741 -0.4234
 5773TIP3   OH241513   5.570   2.666  10.834  0.4441 -0.3258  0.4869
 5773TIP3    H141514   5.536   2.652  10.923  0.8625  1.9885  1.0642
 5773TIP3    H241515   5.513   2.734  10.797 -0.8197 -2.4166 -1.7288
 5774TIP3   OH241516   6.175   2.760  11.959 -0.6661  0.1143 -0.1771
 5774TIP3    H141517   6.180   2.840  11.907 -0.1290  2.1802  2.7762
 5774TIP3    H241518   6.085   2.758  11.991 -0.4164  0.0794  0.5375
 5775TIP3   OH241519   1.390   6.443  13.221  0.0820 -0.0429  0.0626
 5775TIP3    H141520   1.478   6.450  13.185  0.1816  1.4753  0.5577
 5775TIP3    H241521   1.398   6.378  13.292  0.7805  0.0432  0.0664
 5776TIP3   OH241522   7.191   7.601  10.591 -0.3033 -0.0903  0.0715
 5776TIP3    H141523   7.132   7.574  10.521 -0.9948 -2.5418  1.4862
 5776TIP3    H241524   7.264   7.644  10.546 -0.2892 -2.3431 -2.2791
 5777TIP3   OH241525   1.955   5.476  13.363 -0.2567  0.0208 -0.0353
 5777TIP3    H141526   1.910   5.426  13.294  0.1517  0.0661 -0.3444
 5777TIP3    H241527   1.886   5.527  13.405 -1.0476 -2.2799  1.6212
 5778TIP3   OH241528   7.597   7.547  10.917 -0.5019 -0.4040  0.1492
 5778TIP3    H141529   7.581   7.632  10.877  1.0152 -0.4317 -0.6258
 5778TIP3    H241530   7.626   7.567  11.006 -0.0714 -0.0897 -0.0557
 5779TIP3   OH241531   3.450   5.403  12.206  0.0900  0.4014 -0.4690
 5779TIP3    H141532   3.512   5.332  12.189 -0.8068 -0.3689 -0.5918
 5779TIP3    H241533   3.364   5.362  12.197 -0.4395  1.4993 -0.4903
 5780TIP3   OH241534   4.915   0.461  12.611 -0.0945  0.2388 -0.4559
 5780TIP3    H141535   4.851   0.479  12.543 -1.4661  0.3543  0.8025
 5780TIP3    H241536   4.864   0.458  12.692  1.2894 -1.0867  0.4332
 5781TIP3   OH241537   0.152   5.008  13.089  0.1085  0.7025  0.5281
 5781TIP3    H141538   0.099   4.929  13.098  0.7172  0.2709  0.3480
 5781TIP3    H241539   0.121   5.066  13.159 -1.5895  1.0403 -0.4286
 5782TIP3   OH241540   6.984   6.596  10.634 -0.1008  0.1825  0.2009
 5782TIP3    H141541   7.030   6.593  10.717 -1.0492 -0.7528  0.7131
 5782TIP3    H241542   6.972   6.690  10.616 -0.3358  0.3879  1.3757
 5783TIP3   OH241543   3.327   1.374  11.916 -0.6257 -0.2618 -0.4399
 5783TIP3    H141544   3.342   1.332  11.832 -1.2831 -1.6407  0.0994
 5783TIP3    H241545   3.243   1.419  11.906  0.0794  0.9741 -1.0175
 5784TIP3   OH241546   2.350   3.850  11.463 -0.4150  0.1052  0.4509
 5784TIP3    H141547   2.376   3.879  11.375 -1.4644  0.3370  0.1971
 5784TIP3    H241548   2.369   3.757  11.464  0.8542  0.3414  0.4592
 5785TIP3   OH241549   0.899   2.240  11.030  0.3277 -0.3359 -0.3584
 5785TIP3    H141550   0.957   2.305  10.989 -0.5136  0.3723 -0.4578
 5785TIP3    H241551   0.950   2.205  11.103  0.3229  1.4486  0.5645
 5786TIP3   OH241552   4.855   4.103  11.643 -0.1766  0.4153  0.2805
 5786TIP3    H141553   4.882   4.129  11.555  1.6487 -0.3158  0.5864
 5786TIP3    H241554   4.926   4.047  11.674 -1.0564  0.2086  2.0096
 5787TIP3   OH241555   6.525   7.665  12.647  0.3499  0.5887  0.3011
 5787TIP3    H141556   6.589   7.637  12.713 -0.5512  1.3575  1.5323
 5787TIP3    H241557   6.454   7.705  12.698 -1.4482 -0.8306 -0.9610
 5788TIP3   OH241558   2.433   4.347  12.970 -0.4885  0.5116  0.0432
 5788TIP3    H141559   2.512   4.397  12.949  1.3228 -1.7720  0.9606
 5788TIP3    H241560   2.372   4.411  13.007  0.3370  2.6016 -1.9759
 5789TIP3   OH241561   0.200   2.991  11.993 -0.5851  0.1589 -0.4520
 5789TIP3    H141562   0.109   2.989  12.022 -1.2242  0.0864 -2.2935
 5789TIP3    H241563   0.227   3.082  12.003 -0.2905 -0.1147  1.6236
 5790TIP3   OH241564   1.330   5.881  11.492 -0.3668  0.3330 -0.1578
 5790TIP3    H141565   1.320   5.937  11.415 -3.2651  1.4163  0.8604
 5790TIP3    H241566   1.241   5.851  11.511  0.6155 -1.8915  1.3737
 5791TIP3   OH241567   0.418   0.365  11.514  0.0282 -0.2602  0.3085
 5791TIP3    H141568   0.351   0.411  11.565  1.8147  2.8317  0.1598
 5791TIP3    H241569   0.492   0.354  11.574  0.3454 -1.1889 -0.2330
 5792TIP3   OH241570   2.443   5.917  11.194 -0.2033 -0.0224 -0.2491
 5792TIP3    H141571   2.495   5.845  11.230 -3.0619 -3.0058 -1.5906
 5792TIP3    H241572   2.435   5.980  11.266  1.4613 -1.5444  1.3662
 5793TIP3   OH241573   4.656   1.861  11.074  0.5172 -0.1140  0.1865
 5793TIP3    H141574   4.665   1.871  11.168  0.8513 -2.4497  0.4752
 5793TIP3    H241575   4.724   1.917  11.037 -0.2859  1.6349  1.2458
 5794TIP3   OH241576   0.505   7.680  11.332  0.4890 -0.0012 -0.0311
 5794TIP3    H141577   0.553   7.599  11.317 -1.1372 -1.1072  0.5683
 5794TIP3    H241578   0.525   7.734  11.255  1.2083 -1.1416 -0.6623
 5795TIP3   OH241579   2.401   0.057  11.437 -0.1338 -0.0470  0.3543
 5795TIP3    H141580   2.330   0.037  11.376  0.6297  0.2040 -0.6360
 5795TIP3    H241581   2.448   0.130  11.396  1.3882 -0.9559  0.4228
 5796TIP3   OH241582   4.852   6.515  11.764  0.0135  0.3203 -0.1456
 5796TIP3    H141583   4.948   6.523  11.756  0.0197  0.4887  0.0851
 5796TIP3    H241584   4.838   6.491  11.855 -0.2166  1.2173  0.0613
 5797TIP3   OH241585   6.488   4.179  10.697 -0.5653  0.2235  0.4387
 5797TIP3    H141586   6.520   4.091  10.715 -0.3184  0.3737  0.7465
 5797TIP3    H241587   6.461   4.213  10.782  0.2159  0.7819  0.4781
 5798TIP3   OH241588   4.249   5.501  10.999 -0.3082  0.0756 -0.5666
 5798TIP3    H141589   4.310   5.428  10.994  0.7864  0.9632 -0.3135
 5798TIP3    H241590   4.297   5.571  11.042 -1.6520  0.6503  0.0577
 5799TIP3   OH241591   5.113   6.005  11.863 -0.5506 -0.3753 -0.4825
 5799TIP3    H141592   5.140   5.958  11.941  0.2649 -1.9093 -1.6280
 5799TIP3    H241593   5.186   6.063  11.842  0.3155 -1.7565 -1.4437
 5800TIP3   OH241594   2.843   6.537  12.588 -0.4268 -0.5177  0.8631
 5800TIP3    H141595   2.764   6.567  12.543 -0.6770 -2.3936 -0.0246
 5800TIP3    H241596   2.912   6.596  12.557 -0.9563 -0.6114 -0.5362
 5801TIP3   OH241597   2.235   3.322  12.218  0.4587  0.6693  0.6354
 5801TIP3    H141598   2.226   3.323  12.123  1.0415 -0.5699  0.5541
 5801TIP3    H241599   2.329   3.321  12.234  0.3710  0.9826  1.2374
 5802TIP3   OH241600   1.580   5.019  12.344  0.0217 -0.2598 -0.4795
 5802TIP3    H141601   1.655   4.976  12.386 -0.3498 -0.2946  0.1508
 5802TIP3    H241602   1.511   4.953  12.346  0.2938 -0.6295 -2.0760
 5803TIP3   OH241603   6.749   4.088  11.054  0.2054  0.2330 -0.0320
 5803TIP3    H141604   6.729   3.998  11.028  0.0084  0.8587 -2.2742
 5803TIP3    H241605   6.814   4.079  11.123  1.0144 -1.6178 -0.9454
 5804TIP3   OH241606   0.712   6.826  12.278 -0.0952  0.3431  0.2902
 5804TIP3    H141607   0.710   6.803  12.185 -0.7383  2.4611 -0.2647
 5804TIP3    H241608   0.805   6.832  12.299  0.1120  2.6462 -1.0061
 5805TIP3   OH241609   5.330   0.509  11.917 -0.0629  0.1300  0.7664
 5805TIP3    H141610   5.416   0.544  11.941  0.2752 -0.9636  1.1985
 5805TIP3    H241611   5.342   0.473  11.829 -0.0825  0.0078  0.8135
 5806TIP3   OH241612   1.278   1.498  10.832 -0.0689  0.2531 -0.9569
 5806TIP3    H141613   1.245   1.485  10.921  0.1687 -1.3558 -1.0620
 5806TIP3    H241614   1.282   1.592  10.821  0.2966  0.4890  0.8858
 5807TIP3   OH241615   6.241   4.232  10.548  0.0608 -0.4697  0.5567
 5807TIP3    H141616   6.250   4.250  10.454 -2.1272  0.2002  0.4252
 5807TIP3    H241617   6.330   4.214  10.577  0.8009 -0.7005 -1.6421
 5808TIP3   OH241618   3.681   6.850  13.113  0.7971  0.5476  0.1408
 5808TIP3    H141619   3.770   6.834  13.082 -0.0261 -1.8803 -1.2330
 5808TIP3    H241620   3.659   6.773  13.164 -0.7520  0.7768 -0.1258
 5809TIP3   OH241621   6.257   4.123  11.543 -0.0842 -0.5569  0.1033
 5809TIP3    H141622   6.259   4.069  11.622 -1.9106 -1.0001 -0.0965
 5809TIP3    H241623   6.207   4.071  11.479 -0.0577  0.4774 -0.7959
 5810TIP3   OH241624   4.226   4.975  13.130 -0.2135  0.3449  0.0472
 5810TIP3    H141625   4.145   4.974  13.181  1.3807  1.9914  2.9107
 5810TIP3    H241626   4.211   5.039  13.060 -1.5053  0.3071  0.2754
 5811TIP3   OH241627   2.258   0.191  11.135 -0.2834 -0.0667 -0.0570
 5811TIP3    H141628   2.322   0.258  11.112  1.3895 -0.9537  1.7430
 5811TIP3    H241629   2.217   0.223  11.215  0.4799 -1.0910  0.7818
 5812TIP3   OH241630   3.216   1.117  13.502 -0.2706  0.4717 -0.0886
 5812TIP3    H141631   3.280   1.186  13.484  0.4523 -0.5480 -1.5843
 5812TIP3    H241632   3.165   1.109  13.421 -0.2441 -0.8436  0.0054
 5813TIP3   OH241633   6.987   3.970  11.190  0.0978  0.8647 -0.7637
 5813TIP3    H141634   6.950   3.940  11.273 -0.1279 -0.1817 -1.2216
 5813TIP3    H241635   7.024   3.891  11.151  0.3413  1.3773 -1.5893
 5814TIP3   OH241636   0.577   4.999  12.403 -0.3403 -0.3272  0.1593
 5814TIP3    H141637   0.506   4.947  12.441  0.8856 -0.7898  1.9660
 5814TIP3    H241638   0.595   4.958  12.319 -0.8738 -1.4463  0.5681
 5815TIP3   OH241639   1.363   6.005  11.251 -0.2986  0.1775  0.4246
 5815TIP3    H141640   1.428   6.054  11.303 -0.7331  0.1910  0.9573
 5815TIP3    H241641   1.377   6.036  11.162  1.7240 -1.2037  0.1924
 5816TIP3   OH241642   4.613   0.085  11.845  0.7975  0.4402 -0.6388
 5816TIP3    H141643   4.702   0.121  11.835  0.5969  1.2460  0.3130
 5816TIP3    H241644   4.614   0.005  11.791  1.4789  1.4631 -2.2306
 5817TIP3   OH241645   0.095   1.111  12.179  0.2833 -0.3806 -0.7782
 5817TIP3    H141646   0.190   1.111  12.184  0.2689  1.6088  1.7280
 5817TIP3    H241647   0.070   1.202  12.197 -2.1068 -1.6265  3.9712
 5818TIP3   OH241648   5.943   3.411  11.496  0.3540  0.1552  0.0273
 5818TIP3    H141649   5.868   3.417  11.555  2.0415  0.9015  2.2345
 5818TIP3    H241650   5.928   3.482  11.433 -1.3112 -0.4140 -0.2721
 5819TIP3   OH241651   6.760   0.202  11.423 -0.3559 -0.7194 -0.2834
 5819TIP3    H141652   6.815   0.251  11.484  0.8230  1.2578 -2.7465
 5819TIP3    H241653   6.822   0.163  11.361 -1.5829 -1.0122 -1.3667
 5820TIP3   OH241654   1.365   0.299  12.526  0.0729 -0.1741  0.0544
 5820TIP3    H141655   1.437   0.354  12.494  0.1717 -0.2573  0.1327
 5820TIP3    H241656   1.364   0.225  12.465 -0.6513  0.3575 -0.6127
 5821TIP3   OH241657   1.418   0.429  11.907  0.2363 -0.2824  0.0458
 5821TIP3    H141658   1.403   0.523  11.902 -0.7113 -0.4800 -2.1084
 5821TIP3    H241659   1.512   0.418  11.900  0.4237  0.5065  1.0937
 5822TIP3   OH241660   3.810   7.647  12.240 -0.5479 -0.0300 -0.0235
 5822TIP3    H141661   3.716   7.644  12.223 -0.7139  1.7013  0.3522
 5822TIP3    H241662   3.819   7.703  12.318  0.8008  0.0574 -0.2061
 5823TIP3   OH241663   1.222   0.775  12.264 -0.6963 -0.6728 -0.1654
 5823TIP3    H141664   1.233   0.799  12.356 -1.8202 -1.3175  0.1522
 5823TIP3    H241665   1.308   0.792  12.224 -0.4012  0.2628  0.8437
 5824TIP3   OH241666   6.636   4.445  12.365 -0.0522 -0.0857 -0.0951
 5824TIP3    H141667   6.647   4.436  12.460 -1.6504 -1.8068 -0.0007
 5824TIP3    H241668   6.541   4.452  12.353 -0.1864 -3.0237 -1.7053
 5825TIP3   OH241669   5.914   1.299  12.131  0.1617 -0.5689  0.1498
 5825TIP3    H141670   5.863   1.302  12.212  1.3811 -0.8030  0.9572
 5825TIP3    H241671   5.944   1.389  12.119 -0.6391 -0.3732 -0.4740
 5826TIP3   OH241672   0.291   4.114  10.898 -0.3946 -0.0067  0.0342
 5826TIP3    H141673   0.206   4.074  10.881  0.3341 -1.9991  0.7778
 5826TIP3    H241674   0.338   4.049  10.951  0.3414  2.4730  2.6329
 5827TIP3   OH241675   6.168   2.970  11.795  0.1370 -0.4099 -0.1853
 5827TIP3    H141676   6.250   3.005  11.831 -0.7754  0.3441  1.2375
 5827TIP3    H241677   6.186   2.961  11.701  1.2159  1.6416 -0.2519
 5828TIP3   OH241678   5.623   1.962  11.014  0.2756 -0.3559 -0.4673
 5828TIP3    H141679   5.711   1.959  11.050  0.1633 -1.5565 -0.2512
 5828TIP3    H241680   5.635   1.989  10.923  0.9191 -0.9439 -0.5692
 5829TIP3   OH241681   4.149   5.674  12.250 -0.2660  0.5307  0.5880
 5829TIP3    H141682   4.123   5.615  12.180 -0.2928  1.3609 -0.1220
 5829TIP3    H241683   4.152   5.619  12.329 -0.6779 -0.3150  0.0236
 5830TIP3   OH241684   4.419   6.196  10.306  0.2185  0.0958  1.0370
 5830TIP3    H141685   4.346   6.135  10.307  0.0754  0.2326  2.7577
 5830TIP3    H241686   4.391   6.267  10.365  0.7828  1.3411 -0.1305
 5831TIP3   OH241687   1.057   0.118  11.647 -0.3136 -0.2684 -0.6314
 5831TIP3    H141688   1.049   0.068  11.728  0.5559 -0.6179 -0.7533
 5831TIP3    H241689   1.103   0.198  11.672  0.3475 -0.5725 -0.8497
 5832TIP3   OH241690   1.708   6.556  12.187  0.2231 -0.7488 -0.1525
 5832TIP3    H141691   1.742   6.473  12.154  2.3521 -0.0218  0.0926
 5832TIP3    H241692   1.675   6.536  12.274 -2.0637 -1.9080 -1.1960
 5833TIP3   OH241693   1.100   5.620  13.257 -0.0406 -0.0316 -0.9185
 5833TIP3    H141694   1.027   5.565  13.228  1.6889 -2.8086 -0.3929
 5833TIP3    H241695   1.134   5.658  13.177  0.1612 -1.6890 -1.6599
 5834TIP3   OH241696   0.998   2.888  10.939  0.2065  0.2894  0.0703
 5834TIP3    H141697   0.993   2.832  11.016 -1.6581  0.9266  0.4803
 5834TIP3    H241698   0.908   2.891  10.906  0.5625  1.7268 -0.8638
 5835TIP3   OH241699   3.581   0.332  11.913 -0.1981 -0.5877  0.1041
 5835TIP3    H141700   3.621   0.319  12.000 -1.3335  0.5964  0.8327
 5835TIP3    H241701   3.629   0.406  11.876 -1.0758  0.2562  0.6095
 5836TIP3   OH241702   2.228   7.259  10.541  0.0211  0.0084  0.5672
 5836TIP3    H141703   2.279   7.246  10.621 -3.0533 -1.6359  2.4623
 5836TIP3    H241704   2.204   7.352  10.544  1.7618  0.5028  0.2904
 5837TIP3   OH241705   4.137   0.665  10.890 -0.0810  0.4088 -0.2912
 5837TIP3    H141706   4.200   0.604  10.928 -1.6007 -1.3238 -0.3824
 5837TIP3    H241707   4.099   0.618  10.816 -1.2932  1.4821 -0.3979
 5838TIP3   OH241708   3.839   2.806  11.932  0.2845  0.0573 -0.1543
 5838TIP3    H141709   3.885   2.877  11.976  0.9725 -0.2197 -0.4151
 5838TIP3    H241710   3.752   2.805  11.972  0.2477  1.0723 -0.1769
 5839TIP3   OH241711   4.886   0.793  11.262  0.0603 -0.0463  0.1565
 5839TIP3    H141712   4.848   0.757  11.342 -0.5342 -0.6074 -0.3698
 5839TIP3    H241713   4.953   0.854  11.293  1.7775 -2.2686  1.1010
 5840TIP3   OH241714   1.095   1.131  10.835  0.2058 -0.0069  0.1195
 5840TIP3    H141715   1.046   1.195  10.887  1.9194  0.2801  1.4783
 5840TIP3    H241716   1.101   1.171  10.748  0.8029  1.4928  0.8081
 5841TIP3   OH241717   0.547   2.193  12.112 -0.3419 -0.3547  0.3043
 5841TIP3    H141718   0.593   2.218  12.032 -0.3739  1.5470  0.8560
 5841TIP3    H241719   0.613   2.148  12.164 -0.4966 -2.2817 -1.0376
 5842TIP3   OH241720   4.409   1.534  11.987 -0.3070 -0.0711  0.0935
 5842TIP3    H141721   4.314   1.545  11.983 -0.2161  1.0541  0.5458
 5842TIP3    H241722   4.437   1.599  12.052  0.6228 -1.3472  1.0122
 5843TIP3   OH241723   1.992   7.454  10.909 -0.2777  0.3117  0.3411
 5843TIP3    H141724   2.045   7.397  10.965  0.5668  1.0309  0.3010
 5843TIP3    H241725   2.029   7.541  10.921 -0.4932  0.5941 -0.8359
 5844TIP3   OH241726   2.851   0.566  11.065  0.2399 -0.3310 -0.3033
 5844TIP3    H141727   2.779   0.587  11.005  1.1133 -1.8405 -1.9759
 5844TIP3    H241728   2.836   0.474  11.090  2.1191 -1.0525 -1.5800
 5845TIP3   OH241729   5.044   1.834  11.538  0.4316 -0.6541 -0.5080
 5845TIP3    H141730   5.023   1.845  11.631  3.1450  0.7445  0.0285
 5845TIP3    H241731   4.991   1.900  11.494 -1.3085 -1.7013 -0.0845
 5846TIP3   OH241732   0.968   6.138  13.128 -0.5011 -0.2378  0.0662
 5846TIP3    H141733   0.962   6.055  13.175  0.4730 -0.5010 -0.2634
 5846TIP3    H241734   1.020   6.195  13.186  0.6736 -0.5520 -0.6437
 5847TIP3   OH241735   3.166   3.001  11.916 -0.1443  0.3640 -0.1625
 5847TIP3    H141736   3.220   3.039  11.847 -0.5029  0.4775 -0.3853
 5847TIP3    H241737   3.126   2.924  11.875 -0.4951  0.5307 -0.1386
 5848TIP3   OH241738   7.599   2.569  11.810  0.3659 -0.5447 -0.0352
 5848TIP3    H141739   7.620   2.662  11.801 -0.8632 -0.2053  0.4572
 5848TIP3    H241740   7.674   2.524  11.771  2.0433  0.5926  1.6718
 5849TIP3   OH241741   5.404   0.724  10.975 -0.6572 -0.3261 -0.5229
 5849TIP3    H141742   5.482   0.718  11.030 -0.5200 -1.5795 -0.8288
 5849TIP3    H241743   5.340   0.668  11.018 -0.6116 -1.1624 -1.5104
 5850TIP3   OH241744   6.642   4.807  13.073 -0.0615  0.2120  0.1606
 5850TIP3    H141745   6.659   4.850  13.157 -0.9430  0.8035  0.0506
 5850TIP3    H241746   6.729   4.792  13.036  0.3015  2.4425 -0.0544
 5851TIP3   OH241747   6.015   5.295  11.338  0.0337  0.1391  0.8059
 5851TIP3    H141748   5.961   5.227  11.380  1.2146 -2.3598 -1.3948
 5851TIP3    H241749   6.079   5.246  11.286  0.6973  2.9695 -1.3062
 5852TIP3   OH241750   5.336   0.939  11.521  0.6149 -0.2194  0.0617
 5852TIP3    H141751   5.364   0.880  11.590 -0.0194 -0.8759 -0.2287
 5852TIP3    H241752   5.265   0.991  11.560  0.9283  0.0990  0.2073
 5853TIP3   OH241753   3.323   2.795  13.156 -0.3162 -0.2727 -0.0807
 5853TIP3    H141754   3.387   2.724  13.161 -1.1258 -1.0502 -0.5452
 5853TIP3    H241755   3.252   2.760  13.102 -0.1190  1.3649 -1.5081
 5854TIP3   OH241756   5.348   3.537  12.885 -0.2719 -0.3511  0.3679
 5854TIP3    H141757   5.287   3.564  12.953  0.6224  0.7082  0.7796
 5854TIP3    H241758   5.430   3.519  12.931 -0.0172 -0.9125 -0.2769
 5855TIP3   OH241759   4.937   1.229  11.780  0.5225  0.0347 -0.5719
 5855TIP3    H141760   5.007   1.230  11.844 -0.0695 -2.5902  0.2296
 5855TIP3    H241761   4.875   1.296  11.811  0.7020 -0.5162  1.0701
 5856TIP3   OH241762   5.584   5.155  11.550  0.0431  0.7172  0.2178
 5856TIP3    H141763   5.637   5.111  11.484  0.8921  2.6121 -0.4570
 5856TIP3    H241764   5.644   5.171  11.623 -1.0840 -2.1136  1.9475
 5857TIP3   OH241765   5.954   4.716  12.547  0.1125  0.1598 -0.5694
 5857TIP3    H141766   6.018   4.784  12.529 -0.5165  0.6264 -1.0747
 5857TIP3    H241767   5.915   4.741  12.630  1.7957 -1.0689  0.6656
 5858TIP3   OH241768   2.890   3.952  11.528  0.4856 -0.1695 -0.5466
 5858TIP3    H141769   2.966   3.945  11.470  0.4110  1.2847 -0.8583
 5858TIP3    H241770   2.849   4.035  11.503 -0.3523 -0.2084  0.6482
 5859TIP3   OH241771   6.744   2.898  11.785 -0.1463  0.4260  0.3210
 5859TIP3    H141772   6.776   2.827  11.840 -0.2023  0.4209  0.3464
 5859TIP3    H241773   6.657   2.870  11.758 -0.7940  1.1706  1.5739
 5860TIP3   OH241774   5.696   5.447  12.410  0.2196  0.1209 -0.8418
 5860TIP3    H141775   5.771   5.480  12.360 -0.8792  1.2524 -1.7932
 5860TIP3    H241776   5.726   5.446  12.500  1.4537  0.3536 -1.2308
 5861TIP3   OH241777   2.279   4.748  11.388  0.2804 -0.2053 -0.0371
 5861TIP3    H141778   2.333   4.820  11.422 -0.6870  0.7726 -0.4975
 5861TIP3    H241779   2.235   4.786  11.312 -0.1645 -1.3339 -0.3538
 5862TIP3   OH241780   3.292   0.373  11.983 -0.0905 -0.5394 -0.1506
 5862TIP3    H141781   3.369   0.361  11.927 -1.6044 -2.1742 -2.0378
 5862TIP3    H241782   3.314   0.326  12.063  1.9668  1.4886  0.5727
 5863TIP3   OH241783   2.365   2.119  11.115 -0.3133  0.0092 -0.4598
 5863TIP3    H141784   2.425   2.062  11.067  3.0765  1.1031  2.0652
 5863TIP3    H241785   2.313   2.059  11.169  0.7500 -0.8565 -0.3773
 5864TIP3   OH241786   4.012   2.758  13.063  0.8977  0.1097  0.1997
 5864TIP3    H141787   4.090   2.733  13.014  1.8378  2.3661  0.4385
 5864TIP3    H241788   3.961   2.811  13.002  0.7233  0.6124  0.7633
 5865TIP3   OH241789   0.047   2.069  11.693  0.5959  0.0571 -0.1835
 5865TIP3    H141790   0.101   1.992  11.674 -1.1473 -1.0251 -1.0563
 5865TIP3    H241791   0.092   2.142  11.650  1.3482 -0.7983 -0.8847
 5866TIP3   OH241792   4.412   6.525  10.354 -0.0556 -0.4005  0.3887
 5866TIP3    H141793   4.333   6.577  10.337 -0.2398 -0.5840  0.6629
 5866TIP3    H241794   4.449   6.508  10.268 -1.8796 -2.7597 -0.0338
 5867TIP3   OH241795   6.034   7.675  13.079 -0.1992  0.1432  0.4009
 5867TIP3    H141796   6.023   7.581  13.090 -0.4384 -0.2133 -2.1522
 5867TIP3    H241797   5.954   7.713  13.116 -0.8290 -0.8150  0.0717
 5868TIP3   OH241798   7.183   5.051  11.482 -0.1703  0.1529 -0.0191
 5868TIP3    H141799   7.256   4.998  11.512 -0.0164  1.3939  2.0209
 5868TIP3    H241800   7.211   5.086  11.398  0.8740 -0.6960 -0.0477
 5869TIP3   OH241801   0.409   7.348  12.830  0.5606 -0.0563  0.3482
 5869TIP3    H141802   0.332   7.324  12.882 -1.4135  1.0031 -1.8874
 5869TIP3    H241803   0.407   7.444  12.827  1.1250 -0.0692 -0.9357
 5870TIP3   OH241804   2.758   5.939  11.354 -0.4097 -0.4972 -0.0950
 5870TIP3    H141805   2.741   5.939  11.449  0.3013 -0.6204  0.0373
 5870TIP3    H241806   2.828   5.874  11.343 -1.1020 -1.1386 -0.8221
 5871TIP3   OH241807   0.689   5.426  12.885 -0.0707  0.2848  0.8901
 5871TIP3    H141808   0.679   5.382  12.800 -0.2774  3.4101 -0.8581
 5871TIP3    H241809   0.600   5.431  12.920 -0.5053  1.8929 -0.3594
 5872TIP3   OH241810   0.788   1.977  11.075  0.3538 -0.1904  0.0212
 5872TIP3    H141811   0.706   1.965  11.026  1.7549 -2.6783 -1.8972
 5872TIP3    H241812   0.834   2.046  11.028  0.4134 -0.5115 -0.3938
 5873TIP3   OH241813   4.261   6.416  11.307  0.7448  0.1867  0.3646
 5873TIP3    H141814   4.188   6.428  11.368  0.2040  0.9199 -0.3976
 5873TIP3    H241815   4.293   6.328  11.325 -0.3565 -0.1630  0.6942
 5874TIP3   OH241816   3.661   0.912  12.617  0.0110 -0.0469  0.2106
 5874TIP3    H141817   3.721   0.846  12.652  1.0291 -0.6720 -2.4651
 5874TIP3    H241818   3.610   0.865  12.551 -0.9082  1.3194 -0.1020
 5875TIP3   OH241819   0.262   1.107  13.140  0.2270 -0.5565  0.2660
 5875TIP3    H141820   0.191   1.055  13.102  0.9737 -1.7386  0.4261
 5875TIP3    H241821   0.334   1.099  13.078  0.1409  0.9231 -0.0686
 5876TIP3   OH241822   4.048   5.360  10.241  0.2919  0.0583 -0.2055
 5876TIP3    H141823   3.997   5.294  10.194 -0.2929  0.1407  0.3074
 5876TIP3    H241824   3.983   5.422  10.274  0.6980  0.1027  0.5466
 5877TIP3   OH241825   2.823   3.287  11.389  0.7507  0.1923 -0.1930
 5877TIP3    H141826   2.780   3.314  11.470 -0.8587 -0.4262 -0.8062
 5877TIP3    H241827   2.885   3.357  11.371  3.2690 -0.9622  3.0361
 5878TIP3   OH241828   1.915   6.281  11.573  0.2158  0.5528 -0.1281
 5878TIP3    H141829   1.956   6.242  11.497 -0.6481  0.8042 -0.7372
 5878TIP3    H241830   1.918   6.375  11.557  1.4046  0.7144  0.8777
 5879TIP3   OH241831   6.641   7.325  10.481 -0.4320 -0.3732  0.1256
 5879TIP3    H141832   6.684   7.403  10.517  1.2344 -1.7544  1.3084
 5879TIP3    H241833   6.550   7.351  10.469  0.3969  2.3453 -1.3644
 5880TIP3   OH241834   3.754   6.669  10.837 -0.0118  0.1965 -0.2412
 5880TIP3    H141835   3.802   6.660  10.920 -1.6450  1.0443  0.8510
 5880TIP3    H241836   3.792   6.745  10.795  1.6962 -0.9745 -0.9386
 5881TIP3   OH241837   2.613   0.110  12.593  0.1124  0.4981  0.3107
 5881TIP3    H141838   2.601   0.015  12.600  0.6454  0.4587  0.7567
 5881TIP3    H241839   2.541   0.147  12.643 -0.1420  0.3313  0.0716
 5882TIP3   OH241840   6.033   0.676  10.752 -0.8224 -0.0220 -0.2196
 5882TIP3    H141841   5.985   0.603  10.792 -0.7297  0.1927  0.2869
 5882TIP3    H241842   6.085   0.635  10.683 -0.2827 -0.5328  0.4774
 5883TIP3   OH241843   4.400   5.614  11.179 -0.4740 -0.0125  0.0747
 5883TIP3    H141844   4.467   5.677  11.151  0.5317 -0.9228  0.3548
 5883TIP3    H241845   4.332   5.667  11.220  0.7705  0.8171  1.1221
 5884TIP3   OH241846   0.084   3.518  13.151  0.5590  0.0994  0.0518
 5884TIP3    H141847   0.100   3.611  13.135 -1.7432  0.5683  0.1667
 5884TIP3    H241848   0.064   3.512  13.244 -1.8806 -0.0206 -0.4098
 5885TIP3   OH241849   0.785   0.878  11.481 -0.0192  0.0097 -0.3508
 5885TIP3    H141850   0.816   0.937  11.550 -0.6403  0.0537 -0.1096
 5885TIP3    H241851   0.841   0.899  11.406  0.8104 -0.1943  0.1960
 5886TIP3   OH241852   6.799   6.403  10.522 -0.0375  0.0568  0.0259
 5886TIP3    H141853   6.833   6.469  10.582 -1.3506 -0.1406  1.0242
 5886TIP3    H241854   6.753   6.340  10.578  0.9143 -1.5684 -0.9262
 5887TIP3   OH241855   7.607   1.725  12.482 -0.2755  0.4867 -0.5127
 5887TIP3    H141856   7.560   1.741  12.400  0.5478 -1.9126 -1.5389
 5887TIP3    H241857   7.558   1.655  12.525  2.2272 -2.1540 -1.6488
 5888TIP3   OH241858   4.535   7.644  10.847 -0.3121  0.2083 -0.3955
 5888TIP3    H141859   4.485   7.620  10.768 -2.2179  1.0105  0.5035
 5888TIP3    H241860   4.528   7.740  10.851  0.7264  0.2717  0.1568
 5889TIP3   OH241861   2.960   6.867  12.168  0.0697  0.0164  0.4553
 5889TIP3    H141862   3.044   6.893  12.206  0.7191 -0.3107 -0.7283
 5889TIP3    H241863   2.965   6.894  12.077 -1.1055 -0.0489  0.3604
 5890TIP3   OH241864   0.547   6.962  11.729  0.1407  0.1403 -0.2125
 5890TIP3    H141865   0.509   7.022  11.793 -0.7114 -0.5859 -0.0189
 5890TIP3    H241866   0.639   6.987  11.725 -0.2283  1.5650 -0.2756
 5891TIP3   OH241867   0.296   2.816  10.494  0.1595  0.5922 -0.0432
 5891TIP3    H141868   0.344   2.835  10.413  0.5404 -1.7151 -0.4229
 5891TIP3    H241869   0.214   2.777  10.466 -0.1027  0.6089  0.6722
 5892TIP3   OH241870   3.788   4.287  11.912  0.1283 -0.5645  0.2460
 5892TIP3    H141871   3.768   4.195  11.925 -1.9282 -0.1460  0.3042
 5892TIP3    H241872   3.704   4.332  11.921  1.0688  1.3153  0.1659
 5893TIP3   OH241873   2.358   0.734  11.256 -0.4500  0.4435  0.2657
 5893TIP3    H141874   2.411   0.796  11.306 -0.8377  2.9439 -2.2164
 5893TIP3    H241875   2.333   0.781  11.177 -1.4136 -2.6850 -1.4703
 5894TIP3   OH241876   2.714   0.202  12.263 -0.6710 -0.1643  0.1415
 5894TIP3    H141877   2.682   0.220  12.352 -1.5823 -2.0586  0.2420
 5894TIP3    H241878   2.676   0.271  12.209  0.6784  1.5981  1.3242
 5895TIP3   OH241879   0.619   7.112  11.005  0.0395 -0.4378 -0.0268
 5895TIP3    H141880   0.544   7.066  11.043 -0.9768  0.5253 -0.7901
 5895TIP3    H241881   0.681   7.122  11.078 -0.2820 -1.8048  0.4611
 5896TIP3   OH241882   3.760   2.017  11.809  0.1082 -0.1407  0.2160
 5896TIP3    H141883   3.745   2.106  11.777  0.3579  0.6278  2.1144
 5896TIP3    H241884   3.681   1.996  11.859  1.1731  0.1456  2.1077
 5897TIP3   OH241885   5.819   6.064  13.070 -0.2059  0.6624 -0.1873
 5897TIP3    H141886   5.880   6.129  13.035  0.5749 -0.3188 -0.6817
 5897TIP3    H241887   5.762   6.114  13.129 -0.4509  2.0305 -1.5309
 5898TIP3   OH241888   0.981   2.305  12.517 -0.0610  0.3157 -0.5558
 5898TIP3    H141889   1.065   2.284  12.558  0.1040  0.0695 -1.0143
 5898TIP3    H241890   0.983   2.261  12.433 -0.0940  1.4226 -1.1570
 5899TIP3   OH241891   6.839   7.086  12.122  0.4872  0.2003 -0.0655
 5899TIP3    H141892   6.820   7.010  12.066  0.2480  1.9989 -2.5792
 5899TIP3    H241893   6.785   7.156  12.087 -0.8738  1.1556  3.4576
 5900TIP3   OH241894   4.483   5.349  11.680 -0.6813  0.3019  0.0166
 5900TIP3    H141895   4.548   5.398  11.730 -0.0774  1.9993 -2.2593
 5900TIP3    H241896   4.497   5.376  11.589 -1.9679 -2.3125 -1.0799
 5901TIP3   OH241897   0.615   2.500  11.846  0.2015 -0.1744 -0.4010
 5901TIP3    H141898   0.614   2.560  11.920  0.2742 -1.4717  0.7100
 5901TIP3    H241899   0.524   2.495  11.817  0.0247 -0.2764  0.1539
 5902TIP3   OH241900   1.789   5.835  11.227 -0.5542 -0.6633  0.1462
 5902TIP3    H141901   1.781   5.901  11.296 -0.9039  0.9755 -1.3887
 5902TIP3    H241902   1.724   5.860  11.162  1.7080 -0.3382 -2.1806
 5903TIP3   OH241903   3.503   3.374  12.858  0.1316 -0.2509  0.3859
 5903TIP3    H141904   3.420   3.415  12.882 -0.0126 -1.1104  1.3952
 5903TIP3    H241905   3.479   3.305  12.796  0.1933  0.0493  0.0223
 5904TIP3   OH241906   3.065   2.907  12.297  0.3975  0.4571  0.5833
 5904TIP3    H141907   3.046   2.911  12.391  1.4127 -4.4893  1.2937
 5904TIP3    H241908   2.983   2.878  12.258  0.2072  1.7227 -0.0046
 5905TIP3   OH241909   7.197   1.994  11.549  0.2096 -0.8498 -0.3557
 5905TIP3    H141910   7.158   1.973  11.464  0.9669 -0.0871 -0.9039
 5905TIP3    H241911   7.163   1.927  11.608 -0.4131 -1.3264 -1.2341
 5906TIP3   OH241912   4.884   7.500  11.546 -0.6177  0.2242 -0.0745
 5906TIP3    H141913   4.911   7.420  11.591  0.0087  0.3553 -0.2181
 5906TIP3    H241914   4.872   7.473  11.454 -1.8999 -0.0443  0.1482
 5907TIP3   OH241915   1.555   3.354  11.769  0.6537  0.4089  0.0793
 5907TIP3    H141916   1.623   3.409  11.807  0.3446  0.7411  0.1599
 5907TIP3    H241917   1.476   3.408  11.772  0.3516 -0.0279  0.1313
 5908TIP3   OH241918   2.778   6.185  10.890 -0.3158  0.1380  0.2825
 5908TIP3    H141919   2.770   6.258  10.951  0.8849  0.9302 -0.4673
 5908TIP3    H241920   2.763   6.107  10.943 -1.9937  0.9289  1.0230
 5909TIP3   OH241921   1.635   2.951  11.719 -0.0452  0.5834  0.0051
 5909TIP3    H141922   1.672   2.881  11.665  0.5294  0.8173  0.0854
 5909TIP3    H241923   1.687   3.028  11.698 -0.2833  0.8456  0.3610
 5910TIP3   OH241924   3.802   0.779  12.284 -0.3248 -0.0554  0.3679
 5910TIP3    H141925   3.738   0.742  12.344 -0.2080 -0.1701  0.4200
 5910TIP3    H241926   3.883   0.733  12.302 -0.4038 -0.4393 -0.2182
 5911TIP3   OH241927   7.407   7.654  11.870 -0.1730 -0.3068 -0.3321
 5911TIP3    H141928   7.337   7.589  11.862 -0.6733 -0.1235  1.9254
 5911TIP3    H241929   7.469   7.615  11.931  0.7785  0.3138 -0.8777
 5912TIP3   OH241930   3.509   6.294  12.092  0.1175 -0.2755  0.2566
 5912TIP3    H141931   3.431   6.316  12.142 -0.9942 -0.9400 -1.0922
 5912TIP3    H241932   3.569   6.367  12.106 -0.5363 -0.0031  1.7355
 5913TIP3   OH241933   4.084   0.595  11.146 -0.1079 -0.6862 -0.6980
 5913TIP3    H141934   4.125   0.627  11.226 -0.0583  0.6561 -1.2216
 5913TIP3    H241935   4.095   0.667  11.083 -3.2987 -0.1616 -0.8666
 5914TIP3   OH241936   6.926   6.871  10.592 -0.4732 -0.3238 -0.4425
 5914TIP3    H141937   6.851   6.928  10.579 -0.4476 -0.6498 -2.3030
 5914TIP3    H241938   6.991   6.901  10.529 -0.8716 -3.0006 -2.3488
 5915TIP3   OH241939   2.006   5.398  11.221 -0.2858 -0.0572  0.0523
 5915TIP3    H141940   2.053   5.324  11.182  0.3147  0.9183 -1.1455
 5915TIP3    H241941   2.063   5.473  11.206 -1.3581  0.8331  0.3033
 5916TIP3   OH241942   6.109   4.148  13.208 -0.0856 -0.5853  0.0423
 5916TIP3    H141943   6.082   4.239  13.202 -1.6984 -1.0371  0.0343
 5916TIP3    H241944   6.028   4.098  13.198  0.8981 -2.0617 -1.0586
 5917TIP3   OH241945   4.935   4.116  12.884 -0.1958  0.0866 -0.1482
 5917TIP3    H141946   4.926   4.209  12.903 -0.8265  0.0813 -0.3964
 5917TIP3    H241947   4.853   4.077  12.916  0.6733 -0.6242  1.3624
 5918TIP3   OH241948   1.166   4.389  10.804 -0.0704 -0.3019 -0.2358
 5918TIP3    H141949   1.097   4.357  10.747  0.5129 -1.5133 -0.3009
 5918TIP3    H241950   1.229   4.317  10.808  1.7196  1.1329 -1.0464
 5919TIP3   OH241951   4.688   4.273  11.795  0.4650  0.3770  0.0755
 5919TIP3    H141952   4.734   4.190  11.789  0.8340  0.5952 -0.1505
 5919TIP3    H241953   4.748   4.337  11.756 -0.0112  0.6703 -0.1879
 5920TIP3   OH241954   6.896   5.797  11.901 -0.8453 -0.6891 -1.0587
 5920TIP3    H141955   6.869   5.877  11.946 -2.2454 -0.9013 -1.4670
 5920TIP3    H241956   6.991   5.792  11.915 -0.8926  0.4961 -0.1769
 5921TIP3   OH241957   3.021   1.875  11.295  0.2950  0.1286 -0.4003
 5921TIP3    H141958   3.046   1.794  11.338 -1.8280  0.2009  1.1119
 5921TIP3    H241959   2.974   1.847  11.217  0.3437 -0.0606 -0.3619
 5922TIP3   OH241960   5.197   0.784  10.542  0.2131 -0.3748 -0.3090
 5922TIP3    H141961   5.220   0.839  10.467  0.2884 -0.3311 -0.2551
 5922TIP3    H241962   5.264   0.805  10.608  0.3623 -0.6876 -0.3626
 5923TIP3   OH241963   3.096   6.708  11.221 -0.0762 -0.2873 -0.2891
 5923TIP3    H141964   3.174   6.756  11.250 -0.5266  0.2644  0.0367
 5923TIP3    H241965   3.077   6.648  11.293 -0.9769  0.8229  0.4465
 5924TIP3   OH241966   6.890   1.058  10.507  0.2963 -0.1147 -0.6209
 5924TIP3    H141967   6.935   1.133  10.547  0.1174 -1.3287  2.1001
 5924TIP3    H241968   6.826   1.097  10.448  0.6690  1.8702  0.2038
 5925TIP3   OH241969   5.798   4.646  10.979 -0.0232  0.4477 -0.2696
 5925TIP3    H141970   5.740   4.584  11.025 -0.8359  0.9813 -0.5512
 5925TIP3    H241971   5.829   4.705  11.047 -1.0690  1.1180 -0.3625
 5926TIP3   OH241972   5.864   2.320  10.779 -0.7223  0.0190 -0.1584
 5926TIP3    H141973   5.783   2.346  10.734 -0.2054  1.1559 -0.4797
 5926TIP3    H241974   5.852   2.349  10.869 -0.3953  0.8664 -0.3750
 5927TIP3   OH241975   4.118   6.035  11.045  0.1652  0.7380 -0.3057
 5927TIP3    H141976   4.123   5.956  10.992 -2.2329  0.6635 -0.5692
 5927TIP3    H241977   4.121   6.107  10.982  0.2058  0.7686 -0.2691
 5928TIP3   OH241978   7.092   1.663  11.353  0.0713 -0.7255 -0.1063
 5928TIP3    H141979   7.052   1.618  11.427 -0.5228 -0.1549 -0.0694
 5928TIP3    H241980   7.035   1.739  11.338 -0.2804 -1.2714 -1.6600
 5929TIP3   OH241981   0.879   7.237  11.862  0.2628 -0.8706 -0.1664
 5929TIP3    H141982   0.914   7.307  11.806 -2.3667 -0.9573 -2.0939
 5929TIP3    H241983   0.794   7.269  11.891  0.4891 -1.9044  1.7850
 5930TIP3   OH241984   2.451   4.201  11.060  0.2557  0.6183  0.1140
 5930TIP3    H141985   2.401   4.255  10.998 -0.7677 -0.7058 -0.2507
 5930TIP3    H241986   2.484   4.128  11.008  0.9192  0.4391  0.7661
 5931TIP3   OH241987   5.891   5.045  12.625  0.6518  0.0595 -0.1980
 5931TIP3    H141988   5.876   5.112  12.691  2.2209  0.2120  0.0425
 5931TIP3    H241989   5.971   5.001  12.653  0.0925 -1.4044 -0.7728
 5932TIP3   OH241990   4.987   3.195  11.080 -0.0154 -0.5405 -0.4125
 5932TIP3    H141991   4.987   3.290  11.092  0.6742 -0.7075  1.0049
 5932TIP3    H241992   4.895   3.173  11.064 -0.7696  0.0049  2.5744
 5933TIP3   OH241993   1.209   3.062  10.955 -0.4034 -0.2260  0.2495
 5933TIP3    H141994   1.188   3.103  11.039 -2.2112 -1.5951  0.5127
 5933TIP3    H241995   1.137   3.001  10.938 -0.2637  0.2121 -2.4610
 5934TIP3   OH241996   2.206   5.635  11.234  0.1511 -0.2213 -0.5030
 5934TIP3    H141997   2.154   5.709  11.201 -1.7600 -0.8011  1.0014
 5934TIP3    H241998   2.246   5.669  11.314 -0.1171 -0.5843 -0.2151
 5935TIP3   OH241999   5.377   2.683  10.558  0.0390  0.0999 -0.1884
 5935TIP3    H142000   5.416   2.605  10.519 -0.5980 -0.8935  1.0981
 5935TIP3    H242001   5.448   2.747  10.559  1.2879 -1.2542  0.9248
 5936TIP3   OH242002   5.186   2.900  13.118 -0.7633  0.3874  0.3579
 5936TIP3    H142003   5.213   2.903  13.210  2.1204  0.3666 -0.3656
 5936TIP3    H242004   5.166   2.990  13.095  0.4983  0.7264  0.5269
 5937TIP3   OH242005   4.011   2.115  11.363 -0.2094 -0.2432  0.0718
 5937TIP3    H142006   4.082   2.103  11.426  1.5894 -1.3074 -2.0217
 5937TIP3    H242007   3.989   2.208  11.368 -0.7562 -0.4335  2.8202
 5938TIP3   OH242008   6.059   7.110  10.588 -0.8968  0.4055 -0.4806
 5938TIP3    H142009   6.027   7.068  10.508 -1.6347 -2.1429  1.0227
 5938TIP3    H242010   6.154   7.114  10.577 -1.0473  0.8269 -1.7803
 5939TIP3   OH242011   0.832   1.495  10.244  0.3313 -0.0564  0.0551
 5939TIP3    H142012   0.797   1.542  10.319  0.1856 -0.3848  0.1966
 5939TIP3    H242013   0.759   1.490  10.182 -0.0459 -1.1895  0.5624
 5940TIP3   OH242014   4.350   2.177  11.116  0.1669  0.6728 -0.5190
 5940TIP3    H142015   4.344   2.269  11.142 -1.9740  0.5694 -0.4805
 5940TIP3    H242016   4.266   2.158  11.075  0.2887 -1.4560  0.0934
 5941TIP3   OH242017   5.099   1.970  11.277  0.1278  0.1905 -0.0905
 5941TIP3    H142018   5.060   2.032  11.338 -0.7568 -0.3336 -0.1020
 5941TIP3    H242019   5.189   1.959  11.307 -0.2322  0.1089  0.9815
 5942TIP3   OH242020   3.284   2.900  12.737  0.0545 -0.1845 -0.2930
 5942TIP3    H142021   3.237   2.856  12.667  2.0804 -1.3896 -0.9809
 5942TIP3    H242022   3.238   2.875  12.817 -1.4184  0.0377 -1.0416
 5943TIP3   OH242023   4.289   6.213  12.459 -0.3111  0.1720  0.4996
 5943TIP3    H142024   4.259   6.124  12.475 -1.1441  0.3499 -0.0014
 5943TIP3    H242025   4.377   6.216  12.497  0.4450 -1.3772 -0.9811
 5944TIP3   OH242026   3.048   4.368  11.545 -0.0673  0.6357  0.2972
 5944TIP3    H142027   3.090   4.393  11.463  0.4600  2.8534  1.1595
 5944TIP3    H242028   2.955   4.366  11.524  0.0399  1.4004 -0.3359
 5945TIP3   OH242029   7.480   7.309  10.343  0.6358  0.3581  0.6588
 5945TIP3    H142030   7.534   7.247  10.391 -0.6341 -1.8126 -0.5604
 5945TIP3    H242031   7.542   7.363  10.294  1.8136  0.8472  2.5839
 5946TIP3   OH242032   1.347   3.275  11.962 -0.3955  0.0582  0.2727
 5946TIP3    H142033   1.433   3.290  12.001 -0.5007 -0.8945  0.8983
 5946TIP3    H242034   1.309   3.363  11.954  0.1971  0.3970  1.0099
 5947TIP3   OH242035   4.770   5.611  13.049 -0.4149  0.2442 -0.5180
 5947TIP3    H142036   4.837   5.646  13.108 -0.4689  0.8136 -0.7871
 5947TIP3    H242037   4.736   5.535  13.094  1.2377 -0.7668 -0.8771
 5948TIP3   OH242038   1.552   6.357  10.726 -0.2113 -0.5887 -0.0901
 5948TIP3    H142039   1.632   6.387  10.769 -0.0225 -0.9662 -0.1715
 5948TIP3    H242040   1.536   6.270  10.765 -1.0600 -0.1560  0.5671
 5949TIP3   OH242041   3.132   5.917  10.504  0.1385 -0.3903 -0.0090
 5949TIP3    H142042   3.055   5.910  10.561  0.5458 -2.1822  0.3802
 5949TIP3    H242043   3.097   5.948  10.421 -1.0914 -1.5405  0.0367
 5950TIP3   OH242044   2.811   2.374  12.010  0.7935 -0.0262  0.4845
 5950TIP3    H142045   2.854   2.335  12.085  0.1355 -0.5304  0.6043
 5950TIP3    H242046   2.883   2.411  11.958  1.1969  1.1009  1.7777
 5951TIP3   OH242047   7.291   2.820  10.700 -0.2668 -0.5235  0.3222
 5951TIP3    H142048   7.223   2.864  10.752  0.5824  2.4213 -0.9084
 5951TIP3    H242049   7.248   2.801  10.616  0.3366  1.2751 -0.4305
 5952TIP3   OH242050   2.090   1.019  12.465 -0.3243  0.4387  0.0300
 5952TIP3    H142051   2.174   1.023  12.511  0.1596  0.8155 -0.8688
 5952TIP3    H242052   2.113   0.995  12.376 -1.2534 -0.2424 -0.0380
 5953TIP3   OH242053   6.441   1.003  12.800  0.0119  0.3191 -0.3585
 5953TIP3    H142054   6.355   1.022  12.838 -0.5041 -0.8122 -0.9111
 5953TIP3    H242055   6.476   0.932  12.854 -0.1870 -0.4364 -1.1874
 5954TIP3   OH242056   1.175   6.358  13.053  0.5944 -0.1148 -0.1525
 5954TIP3    H142057   1.117   6.434  13.061  0.2061 -0.2248 -1.7014
 5954TIP3    H242058   1.239   6.370  13.123 -1.8035 -0.4773  2.2684
 5955TIP3   OH242059   7.670   1.698  13.131  0.0812  0.1096 -0.0498
 5955TIP3    H142060   7.704   1.643  13.202 -0.2383  1.6995  1.4161
 5955TIP3    H242061   7.590   1.654  13.103 -0.0453 -0.3255  0.9245
 5956TIP3   OH242062   5.952   3.111  18.727 -0.5066  0.0191 -0.0765
 5956TIP3    H142063   5.941   3.095  18.634 -1.6808 -1.8292  0.3296
 5956TIP3    H242064   5.868   3.148  18.755 -0.6538 -0.7155  0.4806
 5957TIP3   OH242065   3.317   7.164  11.857 -0.8783  0.3070 -0.3203
 5957TIP3    H142066   3.380   7.202  11.796 -1.7942  1.8667 -0.3372
 5957TIP3    H242067   3.236   7.157  11.806 -0.8248 -1.4822 -0.2392
 5958TIP3   OH242068   3.013   5.846  11.308 -0.1403 -0.1471 -0.2891
 5958TIP3    H142069   3.052   5.797  11.236  1.2228  0.5746 -0.0761
 5958TIP3    H242070   3.033   5.938  11.288 -2.0306  0.2868 -0.3193
 5959TIP3   OH242071   6.744   5.075  11.457  0.3195  0.0710  0.2264
 5959TIP3    H142072   6.690   5.061  11.535  0.8001  0.7650  0.7035
 5959TIP3    H242073   6.723   5.165  11.430 -0.4064 -0.4268 -0.8977
 5960TIP3   OH242074   0.458   2.395  10.509  0.0674 -0.6761 -0.4532
 5960TIP3    H142075   0.533   2.427  10.459  0.0691 -2.3318 -1.6219
 5960TIP3    H242076   0.414   2.335  10.448 -1.2482 -1.0099  0.7869
 5961TIP3   OH242077   3.749   7.155  10.591  0.1037  0.1726 -0.1088
 5961TIP3    H142078   3.720   7.241  10.559  1.8646  0.3103 -1.5113
 5961TIP3    H242079   3.845   7.160  10.588  0.3005 -1.0698  1.9999
 5962TIP3   OH242080   6.800   3.543  11.397  0.4353 -0.4798  0.5603
 5962TIP3    H142081   6.718   3.495  11.399 -0.5694  1.1094 -0.1786
 5962TIP3    H242082   6.811   3.575  11.487 -1.7991  2.4384 -0.0525
 5963TIP3   OH242083   5.857   0.652  11.694 -0.0851  0.2499 -0.8667
 5963TIP3    H142084   5.799   0.603  11.637 -1.0615  0.9783 -0.5281
 5963TIP3    H242085   5.843   0.744  11.671  0.6883  0.4616 -0.5511
 5964TIP3   OH242086   7.137   5.074  11.788 -0.0717 -0.0544 -0.2833
 5964TIP3    H142087   7.114   5.140  11.721  1.0137  0.4447 -0.1875
 5964TIP3    H242088   7.114   4.990  11.747 -1.4181  0.3522 -0.4390
 5965TIP3   OH242089   1.067   3.618  12.384  0.1110 -0.2337 -0.0065
 5965TIP3    H142090   1.053   3.527  12.410 -1.4730  0.6192  2.4666
 5965TIP3    H242091   1.155   3.638  12.413  0.2950 -0.8293 -0.1434
 5966TIP3   OH242092   1.773   2.868  11.080 -0.3431  0.3227 -0.0285
 5966TIP3    H142093   1.703   2.909  11.029 -1.9504 -0.2896  1.5696
 5966TIP3    H242094   1.786   2.783  11.039 -2.0483 -0.4140  0.8775
 5967TIP3   OH242095   5.497   2.373  11.512 -0.2546 -0.2560 -0.2334
 5967TIP3    H142096   5.441   2.325  11.451 -0.5225  0.3063 -0.4381
 5967TIP3    H242097   5.523   2.451  11.465 -2.1656  1.2416  1.0406
 5968TIP3   OH242098   0.329   0.368  12.776 -0.0670  0.3908  0.5645
 5968TIP3    H142099   0.333   0.331  12.687 -2.2530  0.6564  0.3007
 5968TIP3    H242100   0.272   0.307  12.824 -0.5890  1.3586  1.1940
 5969TIP3   OH242101   4.572   7.219  12.422  0.4992  0.4442  0.2105
 5969TIP3    H142102   4.543   7.301  12.383  2.2562 -0.4124 -3.2780
 5969TIP3    H242103   4.567   7.155  12.351 -0.7258 -2.5627  2.7356
 5970TIP3   OH242104   7.282   1.742  12.810 -0.7495 -0.9214  0.4282
 5970TIP3    H142105   7.345   1.671  12.814 -0.1102 -0.5360 -1.5113
 5970TIP3    H242106   7.280   1.767  12.717 -1.3612  1.2258  0.9618
 5971TIP3   OH242107   3.069   3.208  12.272 -0.3370  0.2143  0.0041
 5971TIP3    H142108   3.083   3.129  12.325  0.0716 -0.7034 -1.3993
 5971TIP3    H242109   3.150   3.218  12.223 -0.7752  0.9255 -0.5853
 5972TIP3   OH242110   5.938   1.916  11.103 -0.1993  0.1592  0.2336
 5972TIP3    H142111   5.936   1.934  11.009  0.3421 -1.4938 -0.1284
 5972TIP3    H242112   6.031   1.916  11.125 -0.2334 -1.1273  0.4070
 5973TIP3   OH242113   7.369   0.709  10.449 -0.0621  0.0975 -0.5014
 5973TIP3    H142114   7.337   0.799  10.460  3.3609  1.4669 -0.2958
 5973TIP3    H242115   7.438   0.701  10.516 -0.7979 -3.0299  0.0216
 5974TIP3   OH242116   1.918   7.136  10.951  0.1819 -0.4362 -0.4346
 5974TIP3    H142117   2.006   7.148  10.988  0.4158  1.4998 -1.5082
 5974TIP3    H242118   1.887   7.055  10.991  1.0178  0.6960  2.8310
 5975TIP3   OH242119   5.402   6.769  11.185  0.7760 -0.1859 -0.8534
 5975TIP3    H142120   5.425   6.728  11.268  0.5897  0.6500 -0.3783
 5975TIP3    H242121   5.466   6.734  11.123  0.7585 -1.0193 -0.4262
 5976TIP3   OH242122   5.178   4.475  11.054  0.0837 -0.0259  0.8143
 5976TIP3    H142123   5.158   4.464  10.961  1.1733 -1.9835  0.7658
 5976TIP3    H242124   5.269   4.506  11.055  0.4082 -0.9566  1.2214
 5977TIP3   OH242125   4.145   1.850  11.550 -0.0874  0.4576 -0.1290
 5977TIP3    H142126   4.170   1.937  11.581 -0.6070  0.9975 -1.2024
 5977TIP3    H242127   4.075   1.823  11.610  0.0533  0.7808  0.1900
 5978TIP3   OH242128   6.883   5.208  12.110 -0.4378  0.7047  0.2412
 5978TIP3    H142129   6.862   5.300  12.099 -0.9730  0.5942  0.3154
 5978TIP3    H242130   6.860   5.168  12.025 -2.4674  0.2369  0.9560
 5979TIP3   OH242131   6.922   3.208  10.695 -0.4119 -0.0617 -0.4990
 5979TIP3    H142132   6.877   3.128  10.668 -0.1387 -0.0393 -1.0422
 5979TIP3    H242133   7.011   3.198  10.662 -0.3820  0.4719 -0.5996
 5980TIP3   OH242134   3.148   3.342  11.946  0.1680  0.0250 -0.1755
 5980TIP3    H142135   3.189   3.365  11.862 -1.5351  0.3725 -0.9777
 5980TIP3    H242136   3.054   3.351  11.929 -0.2166  2.4977  2.4433
 5981TIP3   OH242137   1.700   1.822  11.802 -0.2942  0.0053 -0.3439
 5981TIP3    H142138   1.761   1.819  11.876 -0.6691  1.4367  0.0545
 5981TIP3    H242139   1.665   1.733  11.797 -0.7256  0.0040  1.6025
 5982TIP3   OH242140   1.893   7.233  12.382  0.2509  0.4236  0.3707
 5982TIP3    H142141   1.976   7.247  12.428 -0.0474  1.9915  0.5005
 5982TIP3    H242142   1.909   7.264  12.293 -0.0850  0.3714  0.2918
 5983TIP3   OH242143   1.453   6.693  12.954 -0.4155 -0.1169 -0.3583
 5983TIP3    H142144   1.439   6.605  12.988 -1.2544  0.7150  1.6538
 5983TIP3    H242145   1.535   6.722  12.994 -0.3593  0.1607 -0.6696
 5984TIP3   OH242146   7.395   3.812  12.125  0.1744 -0.0481 -0.0577
 5984TIP3    H142147   7.311   3.817  12.170  1.0223  0.3758  1.5708
 5984TIP3    H242148   7.382   3.863  12.045 -1.0175  0.2804  0.3205
 5985TIP3   OH242149   3.320   1.533  11.176 -0.5882 -0.0696 -0.3062
 5985TIP3    H142150   3.306   1.589  11.252 -0.4844 -0.2790 -0.1309
 5985TIP3    H242151   3.303   1.589  11.101 -0.6843  0.1407 -0.1273
 5986TIP3   OH242152   1.453   4.874  11.541 -0.1663  0.8043  0.3281
 5986TIP3    H142153   1.495   4.919  11.614  2.4812 -0.1609 -0.5164
 5986TIP3    H242154   1.518   4.812  11.509 -1.4873  0.6683 -2.4162
 5987TIP3   OH242155   3.435   5.905  12.772 -0.5998 -0.1836  0.4317
 5987TIP3    H142156   3.378   5.831  12.754  1.8097 -1.9919 -0.2775
 5987TIP3    H242157   3.434   5.913  12.868 -1.1390 -0.9199  0.4979
 5988TIP3   OH242158   3.577   5.772  12.097 -0.1860 -0.1962  0.5666
 5988TIP3    H142159   3.583   5.703  12.163  2.2827 -0.5562  0.0681
 5988TIP3    H242160   3.547   5.849  12.145 -1.3850 -1.2035  1.4662
 5989TIP3   OH242161   2.573   6.666  11.956  0.3776  0.0141 -0.0066
 5989TIP3    H142162   2.615   6.741  11.914  0.6388  0.7706  1.5425
 5989TIP3    H242163   2.637   6.635  12.020 -0.8322  0.3000  1.3917
 5990TIP3   OH242164   3.862   0.148  11.745 -0.1642  0.7666 -0.5896
 5990TIP3    H142165   3.797   0.137  11.675  1.2220  1.0081 -1.9946
 5990TIP3    H242166   3.853   0.070  11.799  0.2222 -0.5774 -2.3668
 5991TIP3   OH242167   6.869   5.174  11.818  0.4276  0.3340  0.2477
 5991TIP3    H142168   6.919   5.103  11.858  1.0438  0.2135 -0.6956
 5991TIP3    H242169   6.924   5.203  11.745 -0.9438  0.0773 -0.9349
 5992TIP3   OH242170   2.265   0.283  12.072  0.2905  0.2093  0.4465
 5992TIP3    H142171   2.202   0.351  12.049  0.9996  0.5034 -0.7205
 5992TIP3    H242172   2.346   0.330  12.090  0.0592 -0.1069  2.5916
 5993TIP3   OH242173   3.406   2.605  12.563  0.5143  0.0119  0.5712
 5993TIP3    H142174   3.426   2.545  12.636  0.7500 -0.6034  0.0135
 5993TIP3    H242175   3.312   2.594  12.548  0.2249  1.0129  1.5351
 5994TIP3   OH242176   5.954   4.990  11.749 -0.4024  0.3383  0.1772
 5994TIP3    H142177   6.031   4.945  11.783 -0.2584  0.0650 -0.5024
 5994TIP3    H242178   5.976   5.083  11.754  0.1059  0.2466 -0.3245
 5995TIP3   OH242179   5.214   4.553  12.877  0.0045 -0.1110 -0.0083
 5995TIP3    H142180   5.183   4.643  12.886  0.5084 -0.0312  1.1977
 5995TIP3    H242181   5.243   4.546  12.787 -0.1892  0.8885 -0.1604
 5996TIP3   OH242182   6.364   7.507  12.413  0.0733 -0.3956  0.3740
 5996TIP3    H142183   6.360   7.600  12.438 -2.2477  0.2392 -1.8711
 5996TIP3    H242184   6.272   7.481  12.402  0.7125 -2.0134 -2.0744
 5997TIP3   OH242185   3.501   3.851  11.839 -0.6498 -0.1517  0.2057
 5997TIP3    H142186   3.502   3.826  11.932  0.1276 -1.4563 -0.1372
 5997TIP3    H242187   3.569   3.917  11.832 -3.3590  3.0558  1.3102
 5998TIP3   OH242188   2.398   7.165  12.933 -0.3880  0.1617  0.2632
 5998TIP3    H142189   2.407   7.260  12.935 -0.2565  0.1472  0.3605
 5998TIP3    H242190   2.469   7.135  12.876 -1.1865  0.2155 -0.7996
 5999TIP3   OH242191   6.120   2.731  11.372  0.3721 -0.7268  0.2406
 5999TIP3    H142192   6.089   2.788  11.302  2.5368  0.1714 -0.0678
 5999TIP3    H242193   6.045   2.675  11.393 -0.5920 -0.4409 -2.1874
 6000TIP3   OH242194   7.056   6.056  10.463  0.2618 -0.0155  0.1490
 6000TIP3    H142195   7.057   6.143  10.422 -0.3655 -0.0483  0.0501
 6000TIP3    H242196   6.993   6.006  10.411  1.7012 -1.0001 -0.7163
 6001TIP3   OH242197   1.346   7.327  12.811  0.1040 -0.2838  0.3872
 6001TIP3    H142198   1.282   7.370  12.869 -0.7033 -0.9065 -0.0158
 6001TIP3    H242199   1.293   7.297  12.737  1.2342  1.2928 -1.1416
 6002TIP3   OH242200   1.777   1.135  10.961  0.3448  0.0733  0.3212
 6002TIP3    H142201   1.803   1.084  10.885  2.0563  1.4807 -0.1043
 6002TIP3    H242202   1.812   1.086  11.036  0.2842 -0.3589  0.0688
 6003TIP3   OH242203   3.889   1.336  12.646  0.2412  0.2360 -0.0134
 6003TIP3    H142204   3.961   1.399  12.640  1.5726 -1.2528 -0.3183
 6003TIP3    H242205   3.819   1.374  12.593  1.0695  1.3833 -0.3118
 6004TIP3   OH242206   1.641   6.347  12.842  0.3808  0.1582 -0.2015
 6004TIP3    H142207   1.735   6.364  12.855  0.6359  0.1718 -1.9055
 6004TIP3    H242208   1.636   6.256  12.813 -0.3258 -0.4110  1.5686
 6005TIP3   OH242209   5.975   1.112  11.396 -0.2664  0.0804 -0.2739
 6005TIP3    H142210   5.913   1.119  11.323 -2.5685  0.3408  1.5999
 6005TIP3    H242211   5.964   1.193  11.445 -0.4683 -1.0108  1.5847
 6006TIP3   OH242212   2.813   2.844  12.208  0.5152  0.1591  0.5304
 6006TIP3    H142213   2.762   2.868  12.131 -1.2424 -1.6707  1.0318
 6006TIP3    H242214   2.776   2.897  12.279  1.0729  0.7132  0.4068
 6007TIP3   OH242215   2.400   6.220  11.090 -0.5329  0.4389  0.2721
 6007TIP3    H142216   2.330   6.156  11.107 -0.0309  0.0582  0.9699
 6007TIP3    H242217   2.420   6.256  11.177  1.8151 -1.2247  0.4838
 6008TIP3   OH242218   4.961   0.688  10.460  0.0355 -0.3860 -0.0066
 6008TIP3    H142219   5.031   0.709  10.522  0.1602 -1.1925  0.1345
 6008TIP3    H242220   4.983   0.601  10.427 -0.9499 -0.6932  0.1075
 6009TIP3   OH242221   3.191   5.620  12.460  0.1351 -0.2379 -0.2814
 6009TIP3    H142222   3.185   5.553  12.392 -2.2013  0.1417 -0.5423
 6009TIP3    H242223   3.155   5.578  12.538 -1.6273  0.7122 -0.5192
 6010TIP3   OH242224   1.164   0.889  11.502 -0.1443 -0.0709  0.3337
 6010TIP3    H142225   1.195   0.927  11.584  0.9687 -2.1018  0.9374
 6010TIP3    H242226   1.244   0.863  11.456 -0.7920  0.1116 -0.9365
 6011TIP3   OH242227   4.785   1.218  12.102 -0.2735 -0.0961  0.1655
 6011TIP3    H142228   4.763   1.156  12.171  0.3125 -0.1799  0.2792
 6011TIP3    H242229   4.848   1.278  12.143 -0.8225  0.5743  0.0615
 6012TIP3   OH242230   7.377   5.503  10.409  0.0733 -0.2273  0.4328
 6012TIP3    H142231   7.440   5.553  10.462 -1.3686  0.2472  1.7829
 6012TIP3    H242232   7.304   5.486  10.469 -3.3109  3.3551 -2.1867
 6013TIP3   OH242233   6.785   4.048  10.383  0.8720 -0.0044 -0.5936
 6013TIP3    H142234   6.734   3.966  10.380  0.5426  0.1622  0.1984
 6013TIP3    H242235   6.720   4.116  10.395  1.1571  0.3775 -1.1636
 6014TIP3   OH242236   3.661   0.172  10.808  0.1450  0.9465  0.3318
 6014TIP3    H142237   3.714   0.252  10.809 -1.0144  1.7608 -0.4280
 6014TIP3    H242238   3.590   0.189  10.870 -0.7222  0.9696 -0.6382
 6015TIP3   OH242239   7.212   3.182  11.070  0.3253 -0.1678  0.0780
 6015TIP3    H142240   7.151   3.253  11.048 -0.1172 -1.1100 -2.0211
 6015TIP3    H242241   7.214   3.180  11.165 -3.2167 -0.2982  0.2679
 6016TIP3   OH242242   6.940   0.272  11.621  0.3356  0.2572 -0.2308
 6016TIP3    H142243   6.962   0.362  11.645 -1.5670  0.7306 -0.0658
 6016TIP3    H242244   7.009   0.219  11.661 -0.5862  1.3224  3.1511
 6017TIP3   OH242245   3.093   7.438  10.996  0.0053 -0.1413 -0.0838
 6017TIP3    H142246   3.159   7.369  11.002 -0.0062 -0.1436  0.0276
 6017TIP3    H242247   3.133   7.512  11.042 -0.5573 -0.5191  1.0330
 6018TIP3   OH242248   1.842   6.270  12.245  0.0675  0.0822  0.0531
 6018TIP3    H142249   1.848   6.182  12.208  2.7659 -0.0232  0.5215
 6018TIP3    H242250   1.829   6.256  12.339  0.9460  0.1275  0.1948
 6019TIP3   OH242251   6.062   6.686  12.689 -0.0475 -0.4944  0.2018
 6019TIP3    H142252   6.103   6.677  12.775  0.2801  2.8855  0.5480
 6019TIP3    H242253   5.975   6.649  12.699 -0.7490  1.5617  2.6813
 6020TIP3   OH242254   6.412   3.499  12.017 -0.4175  0.8521 -0.5825
 6020TIP3    H142255   6.472   3.548  12.073 -0.1472  1.0723 -1.0636
 6020TIP3    H242256   6.357   3.567  11.976  0.1887  0.7792 -1.5190
 6021TIP3   OH242257   2.670   1.642  11.650 -0.4241  0.0330 -0.2596
 6021TIP3    H142258   2.731   1.715  11.640  1.3477 -1.2161  0.7689
 6021TIP3    H242259   2.694   1.581  11.580 -1.0649 -0.0925 -0.3700
 6022TIP3   OH242260   2.196   6.264  11.992 -0.5275  0.3094  0.1190
 6022TIP3    H142261   2.197   6.179  12.037 -0.0708  0.4613  0.4012
 6022TIP3    H242262   2.124   6.257  11.929 -0.2628 -0.4261 -0.1152
 6023TIP3   OH242263   6.991   0.789  11.085  0.1262  0.4370  0.2607
 6023TIP3    H142264   7.021   0.868  11.129  1.1332  0.7326 -0.9025
 6023TIP3    H242265   7.044   0.783  11.006  0.4636 -1.7071  0.5721
 6024TIP3   OH242266   1.337   7.471  12.080  0.0553  0.4722  0.2692
 6024TIP3    H142267   1.303   7.544  12.028  0.1923  0.2940 -0.0697
 6024TIP3    H242268   1.258   7.422  12.105 -0.0029  0.5076  0.1556
 6025TIP3   OH242269   4.963   1.267  11.500 -0.2315  0.4520 -0.4555
 6025TIP3    H142270   5.020   1.333  11.538  0.5911 -0.9305  0.8523
 6025TIP3    H242271   4.877   1.283  11.539 -0.4486  1.6728 -1.3612
 6026TIP3   OH242272   7.068   1.765  11.695 -0.0697  0.0231 -0.0616
 6026TIP3    H142273   7.126   1.776  11.770 -0.0590 -1.5682  0.2018
 6026TIP3    H242274   7.067   1.671  11.679 -1.8286  0.1015 -0.6676
 6027TIP3   OH242275   1.323   6.522  11.858 -0.0374 -0.2095  0.4661
 6027TIP3    H142276   1.270   6.599  11.877 -2.1934 -1.5464  0.3002
 6027TIP3    H242277   1.413   6.554  11.853 -0.7310  2.0760  1.4712
 6028TIP3   OH242278   7.339   0.671  12.547  0.2782  0.0597 -0.0225
 6028TIP3    H142279   7.262   0.669  12.605 -0.0880  1.1445 -0.4336
 6028TIP3    H242280   7.304   0.698  12.462  1.4070  3.6032  0.4421
 6029TIP3   OH242281   3.608   4.406  12.446  0.2313 -0.0689  0.2657
 6029TIP3    H142282   3.645   4.334  12.496 -0.1146 -0.8606 -0.5822
 6029TIP3    H242283   3.622   4.483  12.501 -0.8396 -0.9946  1.9518
 6030TIP3   OH242284   7.104   0.428  12.335 -0.6599 -0.1875 -0.4156
 6030TIP3    H142285   7.100   0.334  12.318 -1.4103 -0.2186 -0.0813
 6030TIP3    H242286   7.099   0.436  12.430 -1.2368  0.2187 -0.4731
 6031TIP3   OH242287   3.320   4.689  12.982 -0.3928 -0.7183  0.0739
 6031TIP3    H142288   3.225   4.683  12.975 -0.4390  0.9839 -1.1725
 6031TIP3    H242289   3.349   4.599  12.996 -2.4109 -0.9517  4.1878
 6032TIP3   OH242290   0.703   2.545  11.289 -0.0292  0.1727 -0.7212
 6032TIP3    H142291   0.745   2.632  11.289 -0.7659  0.5369 -1.1425
 6032TIP3    H242292   0.662   2.538  11.375  1.6848 -0.5983  0.0865
 6033TIP3   OH242293   7.404   1.380  10.403  0.1333 -0.2080 -1.0557
 6033TIP3    H142294   7.449   1.296  10.414  0.8440  0.4052  1.5463
 6033TIP3    H242295   7.326   1.359  10.352  1.0344 -2.1571 -1.7481
 6034TIP3   OH242296   7.547   4.194  12.637 -0.7529  0.5117 -0.2764
 6034TIP3    H142297   7.634   4.164  12.609 -1.4715  0.1257 -2.2540
 6034TIP3    H242298   7.518   4.127  12.699 -0.1118  0.0063 -0.4993
 6035TIP3   OH242299   3.712   6.102  12.762  0.0306  0.2868 -0.0033
 6035TIP3    H142300   3.797   6.078  12.724  0.9161  0.4927  1.7326
 6035TIP3    H242301   3.700   6.194  12.739 -0.0043  0.0953 -0.7564
 6036TIP3   OH242302   3.712   1.205  11.797 -0.7127  0.4078  0.3163
 6036TIP3    H142303   3.748   1.195  11.709 -0.6216 -0.7500  0.4746
 6036TIP3    H242304   3.746   1.131  11.846 -0.7367  1.0561  1.3530
 6037TIP3   OH242305   5.860   3.214  10.923 -0.3819  1.0219 -0.6910
 6037TIP3    H142306   5.801   3.143  10.948 -0.5037  1.2888 -0.1929
 6037TIP3    H242307   5.921   3.220  10.997 -0.1313  1.1723 -0.9107
 6038TIP3   OH242308   1.764   2.367  12.042 -0.0674 -0.1042 -0.0724
 6038TIP3    H142309   1.723   2.295  12.090  1.4423 -0.4002  0.8562
 6038TIP3    H242310   1.833   2.325  11.991 -1.0314  0.3420 -1.8397
 6039TIP3   OH242311   0.564   6.380  10.414 -0.4355 -0.1009 -0.0360
 6039TIP3    H142312   0.637   6.321  10.396 -0.8149 -0.5609 -0.0773
 6039TIP3    H242313   0.494   6.323  10.444 -1.1879  0.1785 -1.1884
 6040TIP3   OH242314   0.673   1.450  12.809 -0.4255 -0.3731  0.2684
 6040TIP3    H142315   0.672   1.544  12.827 -2.1071 -0.3091  0.0402
 6040TIP3    H242316   0.764   1.431  12.787 -0.5196  1.8218 -2.7283
 6041TIP3   OH242317   6.918   4.310  10.289  0.5360  0.6309 -0.2783
 6041TIP3    H142318   6.892   4.221  10.312  1.3033  0.1875 -1.0464
 6041TIP3    H242319   6.941   4.351  10.372  0.2909  0.0689  0.0714
 6042TIP3   OH242320   0.883   0.892  10.905 -0.6473  0.6258 -0.3630
 6042TIP3    H142321   0.935   0.829  10.854 -1.7475 -1.1938  0.6421
 6042TIP3    H242322   0.943   0.964  10.922  1.6338 -1.3490  0.7159
 6043TIP3   OH242323   7.186   0.286  10.856 -0.3664 -0.1368  0.0027
 6043TIP3    H142324   7.225   0.361  10.901 -2.8860  1.3538 -0.0897
 6043TIP3    H242325   7.226   0.287  10.769 -0.9032  1.6216 -0.2678
 6044TIP3   OH242326   4.600   2.488  11.095 -0.0764  0.6413  0.1012
 6044TIP3    H142327   4.559   2.467  11.011  0.1434  3.0140 -0.6668
 6044TIP3    H242328   4.640   2.574  11.081  0.0313  1.0690  2.6249
 6045TIP3   OH242329   3.452   4.818  12.747  0.5575 -0.5529  0.4599
 6045TIP3    H142330   3.524   4.872  12.780  0.5101 -1.5589  2.3030
 6045TIP3    H242331   3.413   4.779  12.825 -3.5102  1.7088 -0.2057
 6046TIP3   OH242332   2.824   6.316  13.037 -0.2635 -0.3267 -0.1887
 6046TIP3    H142333   2.841   6.234  12.991 -0.1709 -0.4111 -0.0044
 6046TIP3    H242334   2.825   6.382  12.968 -1.1095 -0.5777 -0.4470
 6047TIP3   OH242335   3.296   5.426  11.088 -0.1391  0.1990 -0.2486
 6047TIP3    H142336   3.376   5.474  11.111 -1.4383  1.1147  2.8391
 6047TIP3    H242337   3.276   5.373  11.165 -2.2090 -0.4367 -1.1466
 6048TIP3   OH242338   4.759   1.308  10.582 -0.4454  0.4892  0.2270
 6048TIP3    H142339   4.743   1.373  10.650 -0.2455 -0.5232  1.2744
 6048TIP3    H242340   4.672   1.276  10.558 -0.4307 -1.9697  2.8920
 6049TIP3   OH242341   0.447   7.284  11.402  0.0896  0.0867 -0.0392
 6049TIP3    H142342   0.530   7.279  11.354 -0.0493  1.0816 -0.4097
 6049TIP3    H242343   0.414   7.372  11.383 -1.2421 -0.4293 -0.2050
 6050TIP3   OH242344   1.421   3.716  12.416 -0.0132 -0.0202 -0.4340
 6050TIP3    H142345   1.358   3.680  12.478 -0.1223  1.7076  0.5061
 6050TIP3    H242346   1.488   3.648  12.409  1.2889  0.5743  3.4970
 6051TIP3   OH242347   2.340   5.542  13.062  0.5148  0.3996 -0.1604
 6051TIP3    H142348   2.262   5.541  13.117 -0.3914  1.6804 -1.3313
 6051TIP3    H242349   2.369   5.633  13.063  1.6464  0.0480 -0.2169
 6052TIP3   OH242350   6.322   3.884  11.701 -0.3185  0.3724 -0.0550
 6052TIP3    H142351   6.368   3.806  11.669 -0.7075  0.8496 -1.9148
 6052TIP3    H242352   6.384   3.925  11.761  1.1601  0.2591 -1.4302
 6053TIP3   OH242353   6.269   1.650  13.049 -0.0352  0.8927 -0.3779
 6053TIP3    H142354   6.332   1.669  13.118  0.0192  0.1353 -0.2085
 6053TIP3    H242355   6.194   1.706  13.068  0.6010  1.8452 -0.6130
 6054TIP3   OH242356   1.822   1.033  11.673  0.0662  0.0715  0.0974
 6054TIP3    H142357   1.870   1.001  11.750  3.2142  0.4592 -1.5222
 6054TIP3    H242358   1.774   1.109  11.705  0.0119 -0.6999  1.9955
 6055TIP3   OH242359   0.902   0.471  13.454 -0.3787 -0.1718  0.2960
 6055TIP3    H142360   0.898   0.397  13.394 -0.3653 -1.0845  1.3934
 6055TIP3    H242361   0.995   0.477  13.478 -0.4295  0.0179  0.4496
 6056TIP3   OH242362   5.178   5.140  11.314  0.0433 -0.5724 -0.2543
 6056TIP3    H142363   5.209   5.121  11.225 -0.8568  0.4811 -0.8268
 6056TIP3    H242364   5.084   5.123  11.311  0.1331 -1.2997  0.7334
 6057TIP3   OH242365   5.214   1.651  13.107 -0.8212  0.3429 -0.0949
 6057TIP3    H142366   5.217   1.635  13.201 -0.2780  1.4861  0.0901
 6057TIP3    H242367   5.258   1.574  13.069  2.2250  1.4977  0.7970
 6058TIP3   OH242368   5.103   4.733  10.837  0.0375  0.4785 -0.0936
 6058TIP3    H142369   5.199   4.734  10.826  0.1829  1.0864  1.0916
 6058TIP3    H242370   5.078   4.825  10.838 -0.6224  0.3146 -0.8145
 6059TIP3   OH242371   6.045   7.605  12.005 -0.5612 -0.1265 -0.2235
 6059TIP3    H142372   6.050   7.579  12.097 -0.8244 -0.0256 -0.1805
 6059TIP3    H242373   5.953   7.630  11.992 -0.9086 -1.6651 -0.9201
 6060TIP3   OH242374   0.476   7.109  10.109  0.0320 -0.6455  0.1493
 6060TIP3    H142375   0.546   7.088  10.047  1.1719  2.6357  0.1543
 6060TIP3    H242376   0.510   7.081  10.194  1.0545  0.1794  0.0362
 6061TIP3   OH242377   6.075   7.466  11.761  0.5899  0.3012 -0.1500
 6061TIP3    H142378   6.166   7.457  11.734  0.2533 -0.4667 -1.0978
 6061TIP3    H242379   6.079   7.493  11.853  1.7662  1.3042 -0.4738
 6062TIP3   OH242380   6.941   6.936  12.850 -0.4160 -0.3212  0.1446
 6062TIP3    H142381   6.950   6.848  12.815  1.0997 -0.5728  1.0868
 6062TIP3    H242382   6.947   6.925  12.945  0.7850  0.8855  0.2348
 6063TIP3   OH242383   2.775   4.789  10.903 -0.3523  0.2275  0.4071
 6063TIP3    H142384   2.801   4.704  10.938 -0.9380  0.1702  0.6979
 6063TIP3    H242385   2.841   4.807  10.836  0.1991 -0.1161  0.8440
 6064TIP3   OH242386   1.349   3.914  11.754  0.2225 -0.8001  0.9363
 6064TIP3    H142387   1.427   3.935  11.702 -0.0288  0.6543  1.1206
 6064TIP3    H242388   1.377   3.927  11.844 -0.3693  0.2119  0.9791
 6065TIP3   OH242389   7.552   4.245  11.857  0.0742  0.1524 -0.0935
 6065TIP3    H142390   7.557   4.170  11.797 -0.3900 -0.2175  0.3201
 6065TIP3    H242391   7.497   4.214  11.929  0.4215  0.6738  0.4049
 6066TIP3   OH242392   3.297   0.142  10.446  0.0745  0.4239  0.3568
 6066TIP3    H142393   3.307   0.124  10.353 -3.3119  2.5772 -0.5619
 6066TIP3    H242394   3.238   0.074  10.478  0.7235  0.0663  0.8341
 6067TIP3   OH242395   3.081   3.174  11.351 -0.3972 -0.3861  0.0458
 6067TIP3    H142396   3.088   3.269  11.338 -1.1982  0.0195  2.1641
 6067TIP3    H242397   2.989   3.160  11.373 -0.3168 -1.7041 -0.3663
 6068TIP3   OH242398   1.385   4.518  12.351 -0.3320 -0.5487  0.4394
 6068TIP3    H142399   1.321   4.447  12.346 -0.6509 -0.1911 -1.9972
 6068TIP3    H242400   1.340   4.594  12.315  1.5558 -0.4449 -1.9848
 6069TIP3   OH242401   3.428   0.756  11.881 -0.3153 -0.1945  0.0526
 6069TIP3    H142402   3.491   0.703  11.832 -0.6234 -0.3561 -0.1720
 6069TIP3    H242403   3.356   0.696  11.899  0.3551 -0.5321  1.8605
 6070TIP3   OH242404   1.528   4.728  11.157  0.3014  0.3531  0.1846
 6070TIP3    H142405   1.575   4.654  11.196 -0.1987 -0.3688 -0.5552
 6070TIP3    H242406   1.451   4.740  11.213 -1.0978 -1.5073 -1.2337
 6071TIP3   OH242407   2.211   3.624  12.003 -0.1627  0.3679  0.6056
 6071TIP3    H142408   2.297   3.585  12.012 -0.5196 -0.2551  1.4115
 6071TIP3    H242409   2.176   3.626  12.092  0.2985  3.6209  0.8438
 6072TIP3   OH242410   4.834   3.108  11.686 -0.0016 -0.4244  0.4169
 6072TIP3    H142411   4.821   3.202  11.695  1.3273 -0.2128  0.3430
 6072TIP3    H242412   4.834   3.074  11.775 -0.0417 -0.2843  0.4693
 6073TIP3   OH242413   2.858   0.255  11.166  0.2671  0.0075  0.1366
 6073TIP3    H142414   2.876   0.282  11.256 -3.6943  1.9545  0.5651
 6073TIP3    H242415   2.865   0.160  11.168  1.5130  0.0787  2.1545
 6074TIP3   OH242416   3.691   3.822  12.494  0.0064  0.5731  0.3561
 6074TIP3    H142417   3.667   3.840  12.403 -0.6933 -0.8319  0.2426
 6074TIP3    H242418   3.676   3.729  12.506  0.2228  0.6954  1.8856
 6075TIP3   OH242419   5.895   2.403  12.075 -0.3364  0.5743  0.4591
 6075TIP3    H142420   5.956   2.329  12.071  0.8732  1.5273  0.6711
 6075TIP3    H242421   5.839   2.392  11.999  0.4905  0.0017 -0.0884
 6076TIP3   OH242422   3.127   5.895  11.799 -0.6559  0.3893  0.2494
 6076TIP3    H142423   3.222   5.890  11.792 -0.7543 -0.3927 -0.7029
 6076TIP3    H242424   3.099   5.943  11.721 -1.0892  0.1236  0.2390
 6077TIP3   OH242425   5.871   1.055  10.486 -0.0015 -0.1259  0.3770
 6077TIP3    H142426   5.834   1.139  10.457  1.6121  0.3111 -0.5136
 6077TIP3    H242427   5.954   1.079  10.528 -0.1734 -1.1747  1.3609
 6078TIP3   OH242428   2.501   3.355  12.268  0.0898 -0.0567  0.9026
 6078TIP3    H142429   2.471   3.341  12.358  0.2089 -0.2065  0.9194
 6078TIP3    H242430   2.586   3.399  12.278  0.4691 -0.7642  0.8800
 6079TIP3   OH242431   6.167   3.861  10.355  0.6352  0.0434 -0.1512
 6079TIP3    H142432   6.261   3.877  10.356  1.0860 -2.2258 -0.3454
 6079TIP3    H242433   6.127   3.947  10.343  2.5659  1.4068  2.3557
 6080TIP3   OH242434   5.771   4.222  11.904  0.1206 -0.4450 -0.0436
 6080TIP3    H142435   5.745   4.238  11.994 -1.7251 -2.3151 -0.1716
 6080TIP3    H242436   5.742   4.301  11.857  0.5956  0.3006  0.8796
 6081TIP3   OH242437   7.154   3.744  10.396 -0.2455 -0.0428  0.3291
 6081TIP3    H142438   7.193   3.675  10.341 -0.8277  1.3899 -2.0041
 6081TIP3    H242439   7.195   3.825  10.366 -3.6586  1.3550 -1.1314
 6082TIP3   OH242440   1.655   4.484  11.260 -0.0597 -0.1584 -0.2823
 6082TIP3    H142441   1.671   4.409  11.316  0.1213 -0.3662 -0.6145
 6082TIP3    H242442   1.737   4.498  11.214 -0.9313 -1.5700 -2.3954
 6083TIP3   OH242443   3.211   4.563  10.864 -0.6833  0.1414  0.2136
 6083TIP3    H142444   3.290   4.509  10.866 -2.2747 -2.3502  0.4321
 6083TIP3    H242445   3.217   4.617  10.943  1.0357  0.4374 -0.0764
 6084TIP3   OH242446   4.161   5.823  10.891  0.0208  0.1922 -0.2106
 6084TIP3    H142447   4.238   5.848  10.840  0.6171 -1.7224 -0.2906
 6084TIP3    H242448   4.159   5.728  10.888 -1.8855  0.1675  0.5048
 6085TIP3   OH242449   0.746   3.154  11.707  0.3637 -0.6823 -0.4684
 6085TIP3    H142450   0.810   3.086  11.730  0.7997 -0.2809 -0.4800
 6085TIP3    H242451   0.793   3.236  11.720 -0.7194 -0.3074  1.2775
 6086TIP3   OH242452   0.579   0.473  10.989  0.4011 -0.2484  0.9750
 6086TIP3    H142453   0.585   0.566  11.014 -0.4094  0.4400 -1.1598
 6086TIP3    H242454   0.670   0.443  10.990  1.0639  1.4192 -1.1041
 6087TIP3   OH242455   0.919   7.521  12.043 -0.2155  0.7219 -0.1687
 6087TIP3    H142456   0.870   7.536  12.124  0.9189  2.0115  0.3221
 6087TIP3    H242457   0.854   7.530  11.973 -1.0424  0.4235  0.5456
 6088TIP3   OH242458   6.916   0.368  10.565 -0.0144 -0.1829  0.0233
 6088TIP3    H142459   6.962   0.299  10.516 -0.3620 -0.6467  0.3366
 6088TIP3    H242460   6.859   0.320  10.626  0.2777  0.3834  0.7550
 6089TIP3   OH242461   4.966   0.423  10.410  0.2715 -0.0767 -0.2824
 6089TIP3    H142462   5.034   0.397  10.348 -0.4979 -2.7995 -0.1059
 6089TIP3    H242463   5.010   0.425  10.495  0.4471 -0.3446 -0.3669
 6090TIP3   OH242464   2.585   0.759  12.876 -0.1717  0.0274  0.1645
 6090TIP3    H142465   2.665   0.714  12.903 -0.2289  0.8876  1.8821
 6090TIP3    H242466   2.515   0.696  12.894 -0.1368  0.3204  1.3887
 6091TIP3   OH242467   4.776   2.738  11.034  0.2621 -0.3685 -0.0295
 6091TIP3    H142468   4.832   2.815  11.041 -0.5818  0.3448 -0.8607
 6091TIP3    H242469   4.830   2.666  11.066  1.9027  0.1661 -1.4378
 6092TIP3   OH242470   1.490   5.753  11.232  0.3046  0.5486 -0.1450
 6092TIP3    H142471   1.447   5.838  11.223  0.5790  0.8452  1.1415
 6092TIP3    H242472   1.525   5.735  11.145 -0.6716  1.2446 -0.7065
 6093TIP3   OH242473   6.700   4.636  12.758 -0.0822  0.0625 -0.0976
 6093TIP3    H142474   6.724   4.643  12.851  0.0174 -1.5184  0.0303
 6093TIP3    H242475   6.702   4.542  12.741  0.0090  0.3473 -1.7453
 6094TIP3   OH242476   1.906   4.788  11.858 -1.0102 -0.6202  0.1239
 6094TIP3    H142477   1.925   4.778  11.951  3.0694  1.2580 -0.2597
 6094TIP3    H242478   1.886   4.881  11.848 -1.9615 -0.9082 -0.8559
 6095TIP3   OH242479   0.670   4.144  11.256  0.2098  0.9095 -0.1472
 6095TIP3    H142480   0.717   4.067  11.289 -1.9851 -0.0703  0.9181
 6095TIP3    H242481   0.673   4.135  11.161  1.8404  0.7066 -0.0988
 6096TIP3   OH242482   6.421   4.595  11.948 -0.0835  0.0289  0.0610
 6096TIP3    H142483   6.457   4.622  11.863  1.9183 -1.3482  0.3822
 6096TIP3    H242484   6.341   4.547  11.925  0.7179 -0.8131 -1.1275
 6097TIP3   OH242485   4.173   5.350  12.226 -0.7745 -0.3992  0.5349
 6097TIP3    H142486   4.152   5.269  12.179 -3.4790 -0.0048  0.8680
 6097TIP3    H242487   4.259   5.376  12.193  0.4055 -3.5922  0.7460
 6098TIP3   OH242488   2.127   3.898  10.589  0.0379  0.6061 -0.1051
 6098TIP3    H142489   2.045   3.948  10.591 -0.7258 -0.5947 -0.3497
 6098TIP3    H242490   2.103   3.812  10.623  1.3288  0.3960  0.3300
 6099TIP3   OH242491   7.607   5.244  11.285 -0.0321 -0.3436 -0.2087
 6099TIP3    H142492   7.512   5.239  11.274  0.1172 -0.5065 -1.6683
 6099TIP3    H242493   7.625   5.191  11.362 -1.1069 -0.5199 -0.0620
 6100TIP3   OH242494   2.814   6.236  10.556  0.0326 -0.1182  0.0667
 6100TIP3    H142495   2.869   6.269  10.485  1.3506 -1.9704  0.1410
 6100TIP3    H242496   2.873   6.228  10.631 -0.6650 -0.8467  0.5611
 6101TIP3   OH242497   1.429   6.057  11.696  0.6188 -0.0694 -0.5930
 6101TIP3    H142498   1.419   6.026  11.786  0.4764 -0.4246 -0.7295
 6101TIP3    H242499   1.380   5.993  11.643 -0.3624  0.8248 -0.7991
 6102TIP3   OH242500   0.108   5.159  12.660 -0.6042 -0.0568 -0.2085
 6102TIP3    H142501   0.172   5.230  12.670  0.4118 -0.9727  0.0338
 6102TIP3    H242502   0.023   5.201  12.674 -0.1930  1.4796 -1.9302
 6103TIP3   OH242503   0.888   5.210  10.965  0.4774  0.0794 -0.2915
 6103TIP3    H142504   0.802   5.196  11.004  0.6780  0.7597  0.4214
 6103TIP3    H242505   0.869   5.235  10.874 -0.0904  0.3795 -0.0963
 6104TIP3   OH242506   2.387   3.864  11.167 -0.0236  0.4297 -0.4237
 6104TIP3    H142507   2.476   3.880  11.138 -0.1206  1.2722 -0.2901
 6104TIP3    H242508   2.333   3.876  11.088 -0.1636  1.5185 -0.1904
 6105TIP3   OH242509   3.605   3.805  10.986  0.3258  0.4348  0.4560
 6105TIP3    H142510   3.579   3.734  10.927  0.7973 -0.2333  1.0412
 6105TIP3    H242511   3.523   3.852  11.004  0.1758  0.6883 -0.7502
 6106TIP3   OH242512   1.650   1.339  11.257 -0.2777  0.1218  0.0171
 6106TIP3    H142513   1.686   1.427  11.268 -0.9742  0.3090  0.9051
 6106TIP3    H242514   1.599   1.345  11.176  1.1393  0.0127 -0.9289
 6107TIP3   OH242515   2.774   6.934  11.037 -0.2306  0.4777  0.0541
 6107TIP3    H142516   2.796   7.027  11.026  0.3912  0.2164 -1.0511
 6107TIP3    H242517   2.726   6.911  10.957  0.0970 -0.2819  0.0660
 6108TIP3   OH242518   6.101   5.482  10.473  0.3398  0.4481  0.2084
 6108TIP3    H142519   6.180   5.431  10.491  1.0712  1.7803  0.9180
 6108TIP3    H242520   6.043   5.421  10.426  1.5083 -0.7537  0.2714
 6109TIP3   OH242521   1.884   3.368  10.635  0.5808  0.0794 -0.1670
 6109TIP3    H142522   1.840   3.339  10.715 -0.2522  1.5142 -0.0667
 6109TIP3    H242523   1.964   3.315  10.630  0.5887 -0.1111  1.5571
 6110TIP3   OH242524   1.681   5.560  13.033 -0.3374  0.2482  0.7767
 6110TIP3    H142525   1.724   5.564  12.948 -1.6661 -0.0419  0.0496
 6110TIP3    H242526   1.605   5.618  13.025  0.3233  1.3908  2.2810
 6111TIP3   OH242527   1.547   2.302  10.589 -0.5550  0.0088  0.0429
 6111TIP3    H142528   1.611   2.344  10.532 -0.4292 -1.5479 -1.0363
 6111TIP3    H242529   1.473   2.363  10.591  0.2302  0.9872 -0.1693
 6112TIP3   OH242530   2.659   6.914  12.502 -0.1664 -0.0803  0.1936
 6112TIP3    H142531   2.570   6.931  12.532 -0.4506  0.7038 -1.0422
 6112TIP3    H242532   2.709   6.901  12.582 -1.2441  0.1688  0.9276
 6113TIP3   OH242533   3.753   2.690  10.976 -0.0740 -0.0330  0.1878
 6113TIP3    H142534   3.784   2.766  10.928  0.3152 -0.8124 -0.8232
 6113TIP3    H242535   3.792   2.615  10.931 -0.1460 -0.8224  1.3838
 6114TIP3   OH242536   5.702   1.559  10.382 -0.2599 -0.4612  0.6969
 6114TIP3    H142537   5.642   1.485  10.375 -0.3965 -0.1996 -1.7013
 6114TIP3    H242538   5.646   1.634  10.403 -0.6015 -0.4381 -0.2898
 6115TIP3   OH242539   3.442   5.511  10.842  0.0470  0.0337 -0.1016
 6115TIP3    H142540   3.465   5.536  10.931 -0.8050 -0.2751  0.2114
 6115TIP3    H242541   3.526   5.488  10.802  0.6735  1.9495  0.0250
 6116TIP3   OH242542   4.151   2.511  11.244  0.3262 -0.6155 -0.2053
 6116TIP3    H142543   4.212   2.556  11.184 -0.6430 -0.9849 -1.5168
 6116TIP3    H242544   4.206   2.448  11.291  1.3553  0.5930  0.2840
 6117TIP3   OH242545   0.570   2.939  11.059 -0.1198  0.3451 -0.0831
 6117TIP3    H142546   0.483   2.954  11.022 -0.4346 -0.4453  0.3079
 6117TIP3    H242547   0.629   2.940  10.984 -0.4983  0.6837 -0.3760
 6118TIP3   OH242548   2.048   4.317  11.675 -0.3101  0.1481 -0.1082
 6118TIP3    H142549   2.089   4.290  11.757  0.7835  1.9256 -0.0306
 6118TIP3    H242550   2.018   4.406  11.691 -1.5831 -0.0567 -1.1382
 6119TIP3   OH242551   1.938   4.284  11.423 -0.1234 -0.3549  0.2449
 6119TIP3    H142552   1.890   4.328  11.494  1.3466 -0.2707  1.2268
 6119TIP3    H242553   2.022   4.261  11.462  0.4870 -0.8646 -1.3136
 6120TIP3   OH242554   4.601   6.577  13.018 -1.0801 -0.2121 -0.3479
 6120TIP3    H142555   4.627   6.526  13.094 -1.0472 -0.1410 -0.3109
 6120TIP3    H242556   4.682   6.586  12.967 -0.7180  1.0619  0.3777
 6121TIP3   OH242557   0.058   7.348  11.372 -0.4085 -0.2204  0.0255
 6121TIP3    H142558   0.065   7.325  11.279  2.1738  0.7708 -0.1238
 6121TIP3    H242559   0.071   7.443  11.374  0.1457 -0.2997  1.4376
 6122TIP3   OH242560   7.167   0.887  11.670  0.5554 -0.5014 -0.5111
 6122TIP3    H142561   7.089   0.833  11.658  1.1454 -1.5001 -0.0070
 6122TIP3    H242562   7.144   0.949  11.740  0.2978 -0.9532 -0.1956
 6123TIP3   OH242563   4.032   4.551  11.911 -0.0915  0.2725  0.4150
 6123TIP3    H142564   3.974   4.616  11.872 -0.1500  0.0993  0.2149
 6123TIP3    H242565   4.119   4.591  11.905 -0.0491  0.0856 -0.2336
 6124TIP3   OH242566   6.866   2.110  10.569 -0.2614 -0.0636 -0.1710
 6124TIP3    H142567   6.805   2.161  10.622 -0.8019 -2.6178  1.9112
 6124TIP3    H242568   6.825   2.107  10.482 -0.8746  1.8145  0.0031
 6125TIP3   OH242569   2.357   7.393  11.012  0.2035  0.7015 -0.0670
 6125TIP3    H142570   2.372   7.437  10.928  0.3664  1.5274  0.3848
 6125TIP3    H242571   2.384   7.457  11.078  1.6336 -0.5175  0.5925
 6126TIP3   OH242572   5.099   6.071  13.029 -0.3569  0.4316  0.1678
 6126TIP3    H142573   5.145   6.059  12.946  1.0392  0.6087  0.8864
 6126TIP3    H242574   5.015   6.028  13.017  0.8695 -1.9562 -0.4471
 6127TIP3   OH242575   5.162   1.895  11.778  0.5032  0.2271 -0.0987
 6127TIP3    H142576   5.121   1.881  11.863 -0.2038 -1.5238 -0.6724
 6127TIP3    H242577   5.170   1.990  11.770 -0.9231  0.4979  1.2224
 6128TIP3   OH242578   1.425   6.797  12.155 -0.0010  0.4640  0.0365
 6128TIP3    H142579   1.364   6.789  12.081 -0.0168  0.5095  0.0449
 6128TIP3    H242580   1.413   6.715  12.204  2.2460 -1.0347 -1.7059
 6129TIP3   OH242581   2.680   3.676  11.988 -0.2846  0.3093 -0.2260
 6129TIP3    H142582   2.763   3.723  11.984 -0.3465  0.7990  2.6064
 6129TIP3    H242583   2.613   3.742  11.968 -0.0694 -0.2377 -3.2283
 6130TIP3   OH242584   1.536   4.111  12.586  0.1046 -0.3817 -0.3779
 6130TIP3    H142585   1.477   4.129  12.659 -0.9566  3.0668 -1.9120
 6130TIP3    H242586   1.624   4.116  12.624 -0.4225  1.3160  0.7237
 6131TIP3   OH242587   1.078   0.536  10.379  0.6179 -0.2196  0.2562
 6131TIP3    H142588   1.096   0.445  10.353 -0.0003  0.1282 -1.4647
 6131TIP3    H242589   1.164   0.578  10.381  0.8708 -0.7481  0.7106
 6132TIP3   OH242590   1.189   2.590  11.727 -0.2177  0.0762  0.5243
 6132TIP3    H142591   1.237   2.665  11.691  0.0502 -0.0002  0.7147
 6132TIP3    H242592   1.106   2.589  11.680  0.0066  0.1580  0.1195
 6133TIP3   OH242593   2.223   3.989  13.215  0.1721 -0.4836  0.4352
 6133TIP3    H142594   2.195   3.905  13.181  0.5052 -0.6010  0.4497
 6133TIP3    H242595   2.311   3.974  13.249  1.3740  0.4772 -2.0025
 6134TIP3   OH242596   6.969   7.329  11.997 -0.8882  0.7639  0.2160
 6134TIP3    H142597   6.957   7.386  12.073  1.3821  0.5879  0.7746
 6134TIP3    H242598   6.977   7.241  12.035 -2.5687  0.2522 -0.5055
 6135TIP3   OH242599   2.449   2.805  11.793 -0.1054 -0.8198  0.9967
 6135TIP3    H142600   2.415   2.751  11.721  2.7438 -1.6221  0.1108
 6135TIP3    H242601   2.399   2.887  11.787  0.1262 -0.7753 -2.0459
 6136TIP3   OH242602   1.584   0.797  10.755 -0.7695  0.4066  0.0542
 6136TIP3    H142603   1.501   0.804  10.708 -1.1394 -0.7430  0.5255
 6136TIP3    H242604   1.562   0.815  10.846 -0.7036 -0.9855  0.3541
 6137TIP3   OH242605   6.517   1.578  11.354 -0.1438 -0.2762  0.0808
 6137TIP3    H142606   6.483   1.573  11.444 -0.8824 -1.5251 -0.2395
 6137TIP3    H242607   6.469   1.510  11.307  0.4578  0.1607 -1.1959
 6138TIP3   OH242608   2.454   0.019  11.742 -0.6706  0.1907  0.3815
 6138TIP3    H142609   2.540   0.050  11.715 -1.0421 -0.4002 -1.6433
 6138TIP3    H242610   2.409  -0.002  11.660 -1.6549 -2.3821  1.4535
 6139TIP3   OH242611   0.898   1.528  11.290  0.0957 -0.1686  0.0530
 6139TIP3    H142612   0.897   1.447  11.239 -0.1832 -0.4768  0.5394
 6139TIP3    H242613   0.818   1.573  11.264  0.6392  0.3330 -0.8061
 6140TIP3   OH242614   0.576   2.632  12.091  0.2186 -0.9645 -0.2376
 6140TIP3    H142615   0.572   2.723  12.121 -1.0249 -0.9058 -0.5204
 6140TIP3    H242616   0.531   2.582  12.160 -0.8141 -1.0975 -0.9878
 6141TIP3   OH242617   4.443   0.985  12.255 -0.2550 -0.4391  0.4862
 6141TIP3    H142618   4.509   0.935  12.303 -2.3814 -1.6676  2.3045
 6141TIP3    H242619   4.399   0.920  12.200  3.0293  1.0679 -4.7185
 6142TIP3   OH242620   0.730   1.074  12.756  0.0064 -0.4655 -0.1548
 6142TIP3    H142621   0.807   1.126  12.779 -0.8198  0.5208  0.4586
 6142TIP3    H242622   0.718   1.014  12.829 -0.9897  0.7885  0.7613
 6143TIP3   OH242623   6.912   3.900  10.793  0.2052  0.3647  0.1252
 6143TIP3    H142624   6.867   3.984  10.787  1.1625  0.9064  0.3979
 6143TIP3    H242625   6.961   3.893  10.711  1.8069  1.0816  0.9611
 6144TIP3   OH242626   3.138   5.100  12.163  0.3029  0.2991 -0.2018
 6144TIP3    H142627   3.189   5.020  12.174  0.1606  0.4973  2.3272
 6144TIP3    H242628   3.064   5.073  12.108  0.7843 -1.0641 -0.2248
 6145TIP3   OH242629   2.241   5.371  10.868  0.4715  0.1271  0.2819
 6145TIP3    H142630   2.212   5.423  10.793 -0.5796  0.1869  0.7162
 6145TIP3    H242631   2.292   5.432  10.922  0.6030  0.2764 -0.0121
 6146TIP3   OH242632   5.652   4.877  11.406  0.8462  0.1190  0.0191
 6146TIP3    H142633   5.686   4.835  11.485  1.1746 -0.1290 -0.2506
 6146TIP3    H242634   5.561   4.850  11.401  0.3892  1.3219  1.1184
 6147TIP3   OH242635   3.513   1.834  12.391  0.6021 -0.1531 -0.0154
 6147TIP3    H142636   3.537   1.854  12.301  1.7629  1.2892  0.5741
 6147TIP3    H242637   3.423   1.866  12.400  0.7567  0.4198 -0.4601
 6148TIP3   OH242638   5.813   0.181  12.931  0.0563  0.3863 -0.4124
 6148TIP3    H142639   5.879   0.232  12.979  0.6104 -0.0539 -0.7021
 6148TIP3    H242640   5.756   0.247  12.892 -0.5170  0.7628  0.9852
 6149TIP3   OH242641   1.821   4.056  12.640  0.0927 -0.6253  0.3116
 6149TIP3    H142642   1.884   4.114  12.597 -1.2824  0.7615  0.0491
 6149TIP3    H242643   1.869   4.020  12.715  0.9086  1.2303  0.7502
 6150TIP3   OH242644   0.319   2.968  10.948 -0.1322 -0.8918 -0.1586
 6150TIP3    H142645   0.246   3.016  10.988  2.2976  3.1938 -0.1088
 6150TIP3    H242646   0.303   2.975  10.854  0.1743 -0.0127 -0.1491
 6151TIP3   OH242647   4.035   4.370  11.500 -0.0926 -0.2468  0.0870
 6151TIP3    H142648   4.108   4.341  11.555  0.0904  0.9553  0.4968
 6151TIP3    H242649   4.008   4.454  11.537 -1.4859 -0.5103 -0.2591
 6152TIP3   OH242650   4.979   3.423  11.220 -0.1469 -0.3054  0.1462
 6152TIP3    H142651   5.032   3.498  11.248 -0.6169  0.6819 -1.4420
 6152TIP3    H242652   4.892   3.442  11.254 -0.7012  0.8588 -1.7732
 6153TIP3   OH242653   1.995   2.047  11.480  0.1265  0.2546 -0.0979
 6153TIP3    H142654   2.024   2.001  11.558  1.1174 -0.0031 -0.6075
 6153TIP3    H242655   1.903   2.021  11.470  0.2044 -0.2877  0.5533
 6154TIP3   OH242656   6.551   0.062  11.136 -0.4919 -0.0976  0.1715
 6154TIP3    H142657   6.630   0.113  11.119  0.9640 -2.0542  0.6516
 6154TIP3    H242658   6.495   0.120  11.188  1.3552  0.7795  1.2650
 6155TIP3   OH242659   5.841   4.827  11.212  0.3159 -0.1986  0.2725
 6155TIP3    H142660   5.847   4.910  11.165  1.8073 -0.0877  0.6355
 6155TIP3    H242661   5.755   4.831  11.255 -0.1165  0.6505 -0.6199
 6156TIP3   OH242662   5.632   7.115  10.546 -0.7179  0.0134  0.3158
 6156TIP3    H142663   5.695   7.088  10.613 -0.7551 -2.2879 -0.4793
 6156TIP3    H242664   5.601   7.200  10.575  1.7897  0.6488  1.4171
 6157TIP3   OH242665   6.472   0.079  13.160  0.3837  0.1101  0.2743
 6157TIP3    H142666   6.528   0.022  13.213  2.4030  0.4787 -1.2967
 6157TIP3    H242667   6.441   0.146  13.220 -1.0589 -1.8741  1.8997
 6158TIP3   OH242668   0.902   5.541  11.697 -0.2007 -0.1341 -0.2335
 6158TIP3    H142669   0.908   5.500  11.784 -1.1978 -1.8513 -0.9162
 6158TIP3    H242670   0.920   5.634  11.713 -1.6585 -0.1641  2.0185
 6159TIP3   OH242671   7.490   4.260  10.598  0.4700 -0.1487 -0.2705
 6159TIP3    H142672   7.584   4.280  10.600 -0.0136  2.3491  0.2475
 6159TIP3    H242673   7.479   4.188  10.660  1.9537 -0.0885  0.0970
 6160TIP3   OH242674   1.082   6.591  13.242  0.1925  0.2319 -0.2982
 6160TIP3    H142675   1.055   6.579  13.333  1.0979  0.5422  0.0117
 6160TIP3    H242676   1.167   6.634  13.247 -0.3651  1.4978 -1.3203
 6161TIP3   OH242677   4.784   1.262  11.246 -0.5804 -0.0705  0.6292
 6161TIP3    H142678   4.873   1.244  11.215 -0.1665  0.6993  1.3437
 6161TIP3    H242679   4.796   1.313  11.326 -1.6221 -1.8206  1.9733
 6162TIP3   OH242680   0.036   2.203  12.743 -0.6230  0.1075 -0.7295
 6162TIP3    H142681   0.101   2.165  12.802 -1.1253  0.7044  0.2349
 6162TIP3    H242682  -0.040   2.221  12.799 -0.3759  2.6492 -1.0564
 6163TIP3   OH242683   6.450   2.815  12.783 -0.1741  0.1207 -0.0545
 6163TIP3    H142684   6.537   2.832  12.747  0.8341 -1.2824  1.5537
 6163TIP3    H242685   6.465   2.746  12.848 -2.1985  1.1418  1.5753
 6164TIP3   OH242686   5.661   6.158  12.081 -0.2027 -0.6142 -0.5257
 6164TIP3    H142687   5.719   6.105  12.136 -2.3512 -1.6110  0.9338
 6164TIP3    H242688   5.692   6.143  11.992  0.0913 -3.3733 -0.0629
 6165TIP3   OH242689   7.471   6.499  10.708 -0.6454  0.0722 -0.1710
 6165TIP3    H142690   7.564   6.519  10.694 -0.8080 -0.1262 -1.7960
 6165TIP3    H242691   7.470   6.411  10.745 -0.1751  0.3763  0.6023
 6166TIP3   OH242692   2.794   1.299  12.377 -0.4468 -0.4635 -0.6308
 6166TIP3    H142693   2.757   1.212  12.387 -0.9358 -0.3472 -1.3028
 6166TIP3    H242694   2.719   1.358  12.388 -0.0395 -0.0992  0.2835
 6167TIP3   OH242695   4.468   1.855  11.531  0.0478 -0.3472  0.3640
 6167TIP3    H142696   4.415   1.802  11.591 -1.9765  0.4585 -0.6252
 6167TIP3    H242697   4.411   1.870  11.455  2.5078 -1.3679 -1.8492
 6168TIP3   OH242698   0.050   1.391  12.233 -0.8703 -0.2030 -0.0886
 6168TIP3    H142699   0.114   1.456  12.204 -0.0140 -1.3925 -0.9717
 6168TIP3    H242700  -0.028   1.409  12.181 -0.7182  0.2648 -0.1560
 6169TIP3   OH242701   6.531   6.231  18.637  0.1157 -0.4964  0.2166
 6169TIP3    H142702   6.549   6.325  18.633 -0.9587 -0.2932 -0.1072
 6169TIP3    H242703   6.436   6.225  18.650  0.0211 -1.5491 -0.8323
 6170TIP3   OH242704   0.514   6.705  10.433  0.3364  0.7032 -0.3087
 6170TIP3    H142705   0.471   6.742  10.355  0.9433  1.6992 -0.1960
 6170TIP3    H242706   0.512   6.611  10.419 -0.2379  0.8308 -1.1786
 6171TIP3   OH242707   6.530   0.289  10.850 -0.1543  0.1314  0.1187
 6171TIP3    H142708   6.549   0.332  10.933 -0.1945 -0.8094  0.6244
 6171TIP3    H242709   6.450   0.332  10.819 -0.4772  0.0781  0.8628
 6172TIP3   OH242710   6.465   1.741  10.481  0.1752  0.0147  0.0112
 6172TIP3    H142711   6.471   1.702  10.568 -0.3845  0.2679  0.1729
 6172TIP3    H242712   6.375   1.724  10.453 -0.2875  1.6454  0.3382
 6173TIP3   OH242713   5.463   3.114  10.804 -0.5338 -0.7563 -0.8755
 6173TIP3    H142714   5.509   3.184  10.758  0.6142 -2.4211 -2.4134
 6173TIP3    H242715   5.472   3.136  10.896 -0.3759  1.1997 -1.3139
 6174TIP3   OH242716   5.203   1.909  12.436  0.3527 -0.2592  0.1819
 6174TIP3    H142717   5.217   1.994  12.477  0.2543 -0.4054  0.5250
 6174TIP3    H242718   5.175   1.852  12.508  1.6836 -0.9134  0.2088
 6175TIP3   OH242719   0.988   2.515  11.255  0.4648  0.1090 -0.2527
 6175TIP3    H142720   1.061   2.459  11.227  0.5768 -0.6462  1.3908
 6175TIP3    H242721   0.918   2.453  11.277 -0.2628  0.7675 -0.6772
 6176TIP3   OH242722   4.486   6.658  10.981 -0.1615 -0.1367  0.0510
 6176TIP3    H142723   4.514   6.679  11.070  0.5344  0.3666 -0.2760
 6176TIP3    H242724   4.404   6.610  10.992  1.1832 -2.4011  1.1143
 6177TIP3   OH242725   6.364   7.573  12.079  0.3776  0.5642  0.1873
 6177TIP3    H142726   6.432   7.507  12.091  0.6395  0.5692 -1.1476
 6177TIP3    H242727   6.287   7.524  12.049 -0.1046  0.6139  1.2681
 6178TIP3   OH242728   5.125   3.327  11.629  0.1867  0.4242  0.2919
 6178TIP3    H142729   5.214   3.337  11.595  0.4716 -0.1836  0.8474
 6178TIP3    H242730   5.078   3.278  11.561 -0.1020  1.8667 -0.5986
 6179TIP3   OH242731   4.327   2.756  11.417  0.2828  0.1679  0.2714
 6179TIP3    H142732   4.360   2.703  11.490  0.3816  2.1066  1.7021
 6179TIP3    H242733   4.392   2.742  11.348  0.7151 -0.9660  0.8698
 6180TIP3   OH242734   2.531   7.124  11.148 -0.1447  0.3312  0.2681
 6180TIP3    H142735   2.516   7.217  11.133 -1.9921  0.1183  0.4525
 6180TIP3    H242736   2.503   7.082  11.066 -2.3695 -0.2339  1.2364
 6181TIP3   OH242737   3.846   2.924  11.626 -0.2385 -0.5511 -0.1512
 6181TIP3    H142738   3.915   2.987  11.644 -1.6660  1.0659 -0.0671
 6181TIP3    H242739   3.825   2.887  11.712 -1.8022  1.5296  0.4350
 6182TIP3   OH242740   2.594   1.996  13.065  0.2092  0.3236  0.2756
 6182TIP3    H142741   2.615   1.993  13.158  3.7682  0.0170 -0.3897
 6182TIP3    H242742   2.579   2.088  13.046 -1.7737  0.2548  1.3185
 6183TIP3   OH242743   3.421   0.524  12.837 -0.4045 -0.3403 -0.0561
 6183TIP3    H142744   3.469   0.454  12.792  1.2270  0.4988  0.2896
 6183TIP3    H242745   3.397   0.585  12.767 -1.1777 -0.8596 -0.2569
 6184TIP3   OH242746   3.032   3.178  12.777 -0.6384  0.7154  0.1559
 6184TIP3    H142747   2.991   3.117  12.838 -2.0905  1.3041 -0.1830
 6184TIP3    H242748   2.959   3.232  12.745 -0.1017 -0.1153 -2.7202
 6185TIP3   OH242749   7.052   0.125  10.423 -0.0797  0.1977 -0.1686
 6185TIP3    H142750   7.098   0.043  10.403  0.0239 -0.4417  2.3319
 6185TIP3    H242751   7.114   0.194  10.400  0.6890 -0.5136 -0.2577
 6186TIP3   OH242752   3.056   5.187  10.966 -0.7699  0.2900  0.3820
 6186TIP3    H142753   3.078   5.278  10.945 -0.3905 -0.0205 -0.5910
 6186TIP3    H242754   2.961   5.183  10.959 -0.6646  0.2063 -1.2782
 6187TIP3   OH242755   3.326   3.124  11.703 -0.2039  0.0460  0.1265
 6187TIP3    H142756   3.312   3.214  11.730  0.2482 -0.1984  1.2316
 6187TIP3    H242757   3.401   3.128  11.643 -0.6308  0.4857 -0.3780
 6188TIP3   OH242758   0.650   1.085  12.246  0.1691 -0.1483  0.3083
 6188TIP3    H142759   0.643   1.012  12.307  1.7283 -0.5419  0.0685
 6188TIP3    H242760   0.686   1.157  12.298  0.3226 -0.1068  0.1482
 6189TIP3   OH242761   2.258   6.286  11.625 -0.0423 -0.1805  0.2808
 6189TIP3    H142762   2.298   6.323  11.703  2.7157  0.5325 -1.3544
 6189TIP3    H242763   2.303   6.203  11.612 -1.7720 -1.1909  0.4028
 6190TIP3   OH242764   5.820   0.511  10.314  0.2955  0.0039 -0.5082
 6190TIP3    H142765   5.804   0.551  10.399  0.3119  0.3033 -0.6460
 6190TIP3    H242766   5.908   0.539  10.290 -0.3830  1.4239 -1.4538
 6191TIP3   OH242767   0.144   6.352  11.828  0.2922 -0.0430 -0.0555
 6191TIP3    H142768   0.157   6.372  11.736  1.8721 -0.0125  0.1473
 6191TIP3    H242769   0.200   6.277  11.845 -1.0330 -0.9412  0.5803
 6192TIP3   OH242770   3.538   6.809  10.995  0.4540 -0.1047 -0.2863
 6192TIP3    H142771   3.576   6.738  10.944 -0.1845  0.7615 -2.0410
 6192TIP3    H242772   3.448   6.817  10.962 -0.1489  0.1982  1.3162
 6193TIP3   OH242773   7.645   0.619  11.767 -0.2430  0.3326  0.1632
 6193TIP3    H142774   7.562   0.617  11.719  0.4144 -2.6695 -1.0721
 6193TIP3    H242775   7.696   0.688  11.725 -1.1767  0.4667 -0.7874
 6194TIP3   OH242776   5.238   5.892  12.094 -0.4149  0.0357  0.3469
 6194TIP3    H142777   5.234   5.798  12.075 -0.6238  0.0441  0.3542
 6194TIP3    H242778   5.330   5.914  12.081 -0.6740  0.2047 -1.4381
 6195TIP3   OH242779   6.450   0.652  10.665  0.2717  0.1485  0.4353
 6195TIP3    H142780   6.404   0.569  10.680  0.1624  0.0600 -0.3945
 6195TIP3    H242781   6.453   0.662  10.570 -0.2543  1.4070  0.5327
 6196TIP3   OH242782   5.336   1.229  12.752  0.3758 -0.3784 -0.1639
 6196TIP3    H142783   5.408   1.171  12.774  0.5229  0.6370  2.2996
 6196TIP3    H242784   5.262   1.199  12.805  0.3544  1.3988  0.9094
 6197TIP3   OH242785   1.812   1.808  13.143  0.0405 -0.1173 -0.4175
 6197TIP3    H142786   1.851   1.880  13.193 -3.1772  0.5587  1.4279
 6197TIP3    H242787   1.844   1.729  13.186  1.3805  0.2625 -0.6627
 6198TIP3   OH242788   3.447   6.858  12.454 -0.2850 -0.2659  0.3360
 6198TIP3    H142789   3.542   6.862  12.445 -0.4639  0.7175 -1.8555
 6198TIP3    H242790   3.429   6.767  12.479  1.2124 -0.5707  0.4013
 6199TIP3   OH242791   6.641   4.286  10.497  0.4972 -0.1349 -0.6919
 6199TIP3    H142792   6.601   4.240  10.572 -0.6088 -0.1090 -1.2414
 6199TIP3    H242793   6.675   4.367  10.534 -1.2161  0.4962 -0.4124
 6200TIP3   OH242794   5.668   2.042  10.740  0.2329 -0.5710 -0.1750
 6200TIP3    H142795   5.657   2.123  10.691 -1.4127 -0.7693 -0.1903
 6200TIP3    H242796   5.611   1.979  10.696  1.1203 -1.6184  0.1210
 6201TIP3   OH242797   3.573   3.254  11.849  0.1527  0.2378  0.0682
 6201TIP3    H142798   3.549   3.191  11.916 -0.4200 -0.6226 -0.9157
 6201TIP3    H242799   3.652   3.218  11.809 -1.5345 -1.2762 -2.1901
 6202TIP3   OH242800   7.425   1.089  10.792 -0.0226 -0.5349  0.0346
 6202TIP3    H142801   7.388   1.153  10.853  1.4202 -0.7507  1.2037
 6202TIP3    H242802   7.417   1.005  10.838 -1.3596 -1.1562 -1.2349
 6203TIP3   OH242803   2.435   6.433  12.208 -0.0158  0.4343 -0.7344
 6203TIP3    H142804   2.511   6.482  12.178  0.0489  0.9012  0.1400
 6203TIP3    H242805   2.376   6.499  12.245  0.0055 -0.1100  0.3275
 6204TIP3   OH242806   1.605   5.166  12.724 -0.3226  0.0445 -0.6417
 6204TIP3    H142807   1.559   5.179  12.641 -2.6719 -0.8551  0.4173
 6204TIP3    H242808   1.538   5.132  12.783  1.6332 -0.8764  1.1940
 6205TIP3   OH242809   5.338   2.124  12.212  0.1760  0.0540  0.0572
 6205TIP3    H142810   5.265   2.185  12.202 -0.0171 -0.2487 -0.4228
 6205TIP3    H242811   5.357   2.095  12.122 -0.8047 -1.8201  0.3998
 6206TIP3   OH242812   2.369   6.059  13.320 -0.7354  0.2395 -0.3764
 6206TIP3    H142813   2.322   6.142  13.314 -0.6430  0.3811  0.7026
 6206TIP3    H242814   2.437   6.074  13.385 -1.2940 -0.9428  0.5191
 6207TIP3   OH242815   0.431   1.101  12.909 -0.1111  0.3095 -0.1034
 6207TIP3    H142816   0.444   1.015  12.871 -1.1384  1.0133 -2.1772
 6207TIP3    H242817   0.506   1.152  12.880 -0.1308  0.4596  0.1026
 6208TIP3   OH242818   6.723   5.876  12.145 -0.1396  0.4002 -0.5226
 6208TIP3    H142819   6.683   5.808  12.091 -1.4695 -0.5428  1.5210
 6208TIP3    H242820   6.758   5.828  12.221 -0.0469  1.8757  0.3959
 6209TIP3   OH242821   4.871   4.589  10.837  0.0409 -0.1361  0.4855
 6209TIP3    H142822   4.796   4.639  10.807 -1.8706 -1.3716  2.8733
 6209TIP3    H242823   4.947   4.643  10.814 -1.6102  1.6269 -1.0997
 6210TIP3   OH242824   4.255   2.045  12.159  0.4445  0.4366  0.6351
 6210TIP3    H142825   4.232   2.022  12.249  0.5308  1.5912  0.9613
 6210TIP3    H242826   4.185   2.104  12.131  0.0806 -0.3984 -0.2815
 6211TIP3   OH242827   6.592   0.328  12.733 -0.2551  0.4406 -0.5083
 6211TIP3    H142828   6.641   0.390  12.678 -0.2983  1.2979  0.3998
 6211TIP3    H242829   6.501   0.357  12.726 -0.3524  0.1365 -0.5186
 6212TIP3   OH242830   4.796   2.873  10.662 -0.4728  0.4878  0.3741
 6212TIP3    H142831   4.830   2.902  10.746  0.8477  0.4349 -0.1245
 6212TIP3    H242832   4.867   2.887  10.600 -1.3228  0.2676 -0.6935
 6213TIP3   OH242833   1.270   2.641  11.984  0.1484  0.6369 -0.4487
 6213TIP3    H142834   1.265   2.554  12.023  1.1934  0.7951  0.0644
 6213TIP3    H242835   1.262   2.625  11.889  0.2119  0.0053 -0.3526
 6214TIP3   OH242836   7.204   6.850  11.710  0.2487 -0.3202 -0.3983
 6214TIP3    H142837   7.230   6.905  11.784  1.3402 -1.6229  0.2234
 6214TIP3    H242838   7.116   6.819  11.733  0.8630 -1.2967  0.7225
 6215TIP3   OH242839   1.055   0.267  12.040 -0.2258 -0.3601  0.4048
 6215TIP3    H142840   1.050   0.349  12.089  1.6898  0.0209  0.0503
 6215TIP3    H242841   1.071   0.294  11.950  2.5778 -1.0702  0.6089
 6216TIP3   OH242842   7.587   2.157  10.991 -0.0107  0.1920 -0.1009
 6216TIP3    H142843   7.556   2.118  10.909  2.6999 -2.2458 -0.1288
 6216TIP3    H242844   7.673   2.192  10.969  0.1853  0.6973  1.4182
 6217TIP3   OH242845   5.731   2.250  11.053  0.7331  0.3304 -0.4839
 6217TIP3    H142846   5.736   2.243  11.148  0.3560 -2.0265 -0.5676
 6217TIP3    H242847   5.638   2.264  11.035  0.5491 -0.8217 -0.5255
 6218TIP3   OH242848   5.186   3.578  11.700 -0.0495  0.1754 -0.2645
 6218TIP3    H142849   5.168   3.488  11.671  0.3847 -0.4455  1.3267
 6218TIP3    H242850   5.108   3.627  11.674 -1.2684 -1.1239  0.7533
 6219TIP3   OH242851   4.396   3.795  11.379 -0.3423  0.8799 -0.1949
 6219TIP3    H142852   4.346   3.855  11.323 -0.2591 -0.2780 -1.5465
 6219TIP3    H242853   4.332   3.759  11.440 -1.1864 -0.4987 -1.8324
 6220TIP3   OH242854   4.450   4.510  11.345  0.0641  0.5489 -0.6760
 6220TIP3    H142855   4.434   4.582  11.406  1.8439  1.3073 -1.0491
 6220TIP3    H242856   4.446   4.432  11.400  2.0674  1.2479  0.5905
 6221TIP3   OH242857   4.767   5.415  12.288 -0.3304  0.0272  0.3020
 6221TIP3    H142858   4.792   5.481  12.224 -3.8029 -0.4534 -1.8358
 6221TIP3    H242859   4.801   5.447  12.371  3.6882  1.1300 -1.5193
 6222TIP3   OH242860   5.473   0.294  11.515 -0.1864 -0.2546  1.0048
 6222TIP3    H142861   5.552   0.241  11.529  0.1839 -0.0902 -0.3393
 6222TIP3    H242862   5.440   0.266  11.430 -0.8697  0.5736  0.9835
 6223TIP3   OH242863   5.689   4.247  12.175  0.1183  0.6380  0.1143
 6223TIP3    H142864   5.726   4.250  12.263 -3.3204 -0.3763  1.7431
 6223TIP3    H242865   5.680   4.154  12.155  0.6961  0.8506 -1.3008
 6224TIP3   OH242866   7.464   7.662  12.281  0.1876 -0.2289  0.0092
 6224TIP3    H142867   7.542   7.612  12.305  0.5503  0.6851  0.7969
 6224TIP3    H242868   7.453   7.646  12.187  0.5218 -1.4534  0.1646
 6225TIP3   OH242869   2.090   2.656  11.657 -0.0065  0.8746 -0.3284
 6225TIP3    H142870   2.184   2.654  11.638  0.3011 -1.3534  0.9622
 6225TIP3    H242871   2.049   2.617  11.580  0.5812 -1.7639  0.5695
 6226TIP3   OH242872   6.880   4.207  10.824  0.1033  0.2073  0.7647
 6226TIP3    H142873   6.806   4.170  10.873 -0.6139  0.1449 -0.3263
 6226TIP3    H242874   6.848   4.292  10.794  1.7860  1.9371  3.3909
 6227TIP3   OH242875   5.343   1.677  11.760 -0.3917  0.6464 -0.5359
 6227TIP3    H142876   5.314   1.670  11.851  0.6764  1.2337 -0.1340
 6227TIP3    H242877   5.294   1.752  11.725  1.0295  2.0533  0.3313
 6228TIP3   OH242878   0.753   7.609  10.733 -0.0230 -0.1539 -0.7965
 6228TIP3    H142879   0.740   7.525  10.688 -1.1670 -0.4693  0.0838
 6228TIP3    H242880   0.702   7.601  10.814  0.7069  1.0019 -0.1983
 6229TIP3   OH242881   3.503   0.625  10.729 -0.2677  0.5692 -0.1857
 6229TIP3    H142882   3.436   0.568  10.692 -0.2481  0.3733  0.0728
 6229TIP3    H242883   3.508   0.699  10.669  0.0394  0.0740 -0.7814
 6230TIP3   OH242884   0.846   2.029  12.725 -0.1941 -0.6062  0.0755
 6230TIP3    H142885   0.940   2.021  12.742  0.1252  0.5348 -1.0065
 6230TIP3    H242886   0.839   2.097  12.658 -1.7917 -0.7523  0.0462
 6231TIP3   OH242887   4.547   6.848  10.772  0.6066 -0.6658  0.6327
 6231TIP3    H142888   4.642   6.858  10.764  0.5346 -0.5284 -0.1008
 6231TIP3    H242889   4.535   6.780  10.838  1.2181 -0.9748  0.4250
 6232TIP3   OH242890   0.265   6.397  12.919  0.2329 -0.3422 -0.0880
 6232TIP3    H142891   0.196   6.453  12.955 -0.1935 -0.8871 -0.0452
 6232TIP3    H242892   0.295   6.345  12.993  0.5729 -0.2275 -0.1436
 6233TIP3   OH242893   3.651   5.990  11.624 -0.1365 -0.0086 -0.5150
 6233TIP3    H142894   3.622   6.048  11.694 -0.3812  2.0942 -2.2467
 6233TIP3    H242895   3.572   5.969  11.576  0.1629 -0.6221 -0.7479
 6234TIP3   OH242896   7.404   2.176  10.422  0.5756  0.6032 -0.0903
 6234TIP3    H142897   7.439   2.092  10.453 -0.5585  0.0383 -0.2960
 6234TIP3    H242898   7.312   2.158  10.403  0.5081  1.7096 -0.8786
 6235TIP3   OH242899   3.912   1.835  11.333 -0.2679 -0.0989  0.0058
 6235TIP3    H142900   3.851   1.803  11.399 -0.4858 -0.3247 -0.3062
 6235TIP3    H242901   3.954   1.911  11.375  1.0661 -1.4069  1.1763
 6236TIP3   OH242902   0.326   3.497  12.493 -0.2818  0.2102  0.6636
 6236TIP3    H142903   0.237   3.461  12.496 -0.1354 -0.1217  3.1126
 6236TIP3    H242904   0.381   3.425  12.523  0.7819  0.5535 -0.4236
 6237TIP3   OH242905   4.773   0.197  12.826  0.0546 -0.2309  0.3685
 6237TIP3    H142906   4.771   0.292  12.835 -1.7580  0.2427 -3.1101
 6237TIP3    H242907   4.696   0.166  12.875 -2.6290  0.8569 -2.7736
 6238TIP3   OH242908   3.765   5.898  13.006 -0.3935  1.0948 -0.1834
 6238TIP3    H142909   3.743   5.877  12.915  0.4652  0.9998 -0.3804
 6238TIP3    H242910   3.681   5.902  13.051 -0.9734  2.5919 -1.2953
 6239TIP3   OH242911   3.029   4.761  10.731 -0.1803  0.3596 -0.1232
 6239TIP3    H142912   3.074   4.685  10.769 -0.5094  0.6039  0.7883
 6239TIP3    H242913   3.088   4.835  10.748 -0.3019  0.4634 -0.1550
 6240TIP3   OH242914   1.200   4.747  12.974 -0.0019  0.0989 -0.0613
 6240TIP3    H142915   1.168   4.837  12.975  0.2739  0.1970  0.7202
 6240TIP3    H242916   1.266   4.744  13.044 -2.3343 -1.5385  2.2515
 6241TIP3   OH242917   4.265   2.718  12.944  0.2758 -0.2195 -0.5679
 6241TIP3    H142918   4.312   2.657  12.887  1.7765  1.2705 -1.0313
 6241TIP3    H242919   4.320   2.727  13.021  0.1537  0.6076 -0.5628
 6242TIP3   OH242920   1.538   1.557  12.789 -0.4889 -0.1961  0.2488
 6242TIP3    H142921   1.598   1.632  12.794 -0.3509 -0.3662  1.2944
 6242TIP3    H242922   1.596   1.481  12.785 -0.6247 -0.3411  0.9297
 6243TIP3   OH242923   1.544   6.068  10.794 -0.3543 -0.7306 -0.2354
 6243TIP3    H142924   1.546   6.027  10.708 -1.5808 -0.1186 -0.5739
 6243TIP3    H242925   1.634   6.060  10.826  1.0238  1.7882 -2.9176
 6244TIP3   OH242926   1.839   0.806  12.760  0.1732  0.5569  0.2780
 6244TIP3    H142927   1.846   0.838  12.850 -1.7912 -0.8957  1.0305
 6244TIP3    H242928   1.801   0.878  12.711 -0.6092  0.6921  1.0717
 6245TIP3   OH242929   3.170   5.349  11.447  0.1150 -0.8209  0.5843
 6245TIP3    H142930   3.171   5.294  11.525 -1.0592 -0.6280  0.7471
 6245TIP3    H242931   3.119   5.299  11.383 -1.2344  0.1821  0.8311
 6246TIP3   OH242932   5.254   5.443  12.488  0.0192 -0.2409  0.4430
 6246TIP3    H142933   5.313   5.386  12.438  0.5071  1.1644 -0.6493
 6246TIP3    H242934   5.311   5.494  12.544 -0.1639  0.8794 -0.3649
 6247TIP3   OH242935   4.610   0.517  11.653 -0.2334 -0.2473 -0.1769
 6247TIP3    H142936   4.570   0.602  11.635  1.2817  0.3087 -1.1577
 6247TIP3    H242937   4.690   0.517  11.601  1.4351 -0.9942  2.1882
 6248TIP3   OH242938   6.588   3.949  10.764 -0.0026  0.5120  0.0578
 6248TIP3    H142939   6.596   3.868  10.714  1.4558  1.2122 -0.8942
 6248TIP3    H242940   6.625   3.928  10.850  0.8460  0.3047 -0.3523
 6249TIP3   OH242941   1.372   5.441  11.671 -0.6683 -0.4988  0.5672
 6249TIP3    H142942   1.424   5.509  11.627  1.9908 -2.6454  0.1257
 6249TIP3    H242943   1.289   5.441  11.625  0.8557 -0.4945 -2.4049
 6250TIP3   OH242944   3.813   4.510  11.243  0.0835 -0.6248 -0.0643
 6250TIP3    H142945   3.878   4.549  11.185 -1.1539 -0.7117 -1.5776
 6250TIP3    H242946   3.852   4.428  11.273  1.0540 -0.2051 -0.1493
 6251TIP3   OH242947   6.602   7.159  11.153 -0.3930  0.3374 -0.5032
 6251TIP3    H142948   6.566   7.178  11.066 -1.1827  0.3815 -0.1719
 6251TIP3    H242949   6.578   7.068  11.169 -0.8593  0.5363 -0.0433
 6252TIP3   OH242950   6.748   1.704  12.162  0.2917  0.4862  0.0458
 6252TIP3    H142951   6.686   1.635  12.137  1.3626 -0.6779  0.4887
 6252TIP3    H242952   6.734   1.716  12.256  0.9075  0.0261  0.2023
 6253TIP3   OH242953   7.153   6.714  11.385 -0.5942 -0.2782 -0.3693
 6253TIP3    H142954   7.171   6.645  11.449 -0.3235 -0.5603 -0.7436
 6253TIP3    H242955   7.058   6.714  11.377 -0.7537  0.7870  1.1503
 6254TIP3   OH242956   6.718   5.787  13.088 -0.0774 -0.2655  0.0807
 6254TIP3    H142957   6.776   5.826  13.023 -1.2746  0.0534 -0.8330
 6254TIP3    H242958   6.691   5.704  13.050  0.7093 -0.9866  1.0401
 6255TIP3   OH242959   2.544   4.002  10.861 -0.3017  0.1594 -0.3024
 6255TIP3    H142960   2.634   4.000  10.829 -0.8408 -0.3103 -1.8478
 6255TIP3    H242961   2.491   3.977  10.786 -1.6582 -0.6186  0.8568
 6256TIP3   OH242962   6.685   3.707  10.665  0.4174 -0.7679  0.0194
 6256TIP3    H142963   6.688   3.612  10.668  1.9790 -0.9999 -3.6321
 6256TIP3    H242964   6.772   3.735  10.694  0.4800 -0.5757 -0.3402
 6257TIP3   OH242965   3.268   7.528  12.322 -0.6228  0.0579  0.5812
 6257TIP3    H142966   3.247   7.575  12.403 -0.1424  1.9796 -0.3411
 6257TIP3    H242967   3.207   7.564  12.258 -0.2134 -0.5887 -0.1785
 6258TIP3   OH242968   5.364   1.880  10.958  0.3538 -0.4322 -0.0081
 6258TIP3    H142969   5.456   1.903  10.971 -0.1221  1.1061  0.8481
 6258TIP3    H242970   5.352   1.800  11.008  1.8247 -2.1586 -2.2366
 6259TIP3   OH242971   7.439   6.925  12.438 -0.1187  0.0343 -0.0335
 6259TIP3    H142972   7.516   6.883  12.476 -0.8493 -1.6055 -0.3011
 6259TIP3    H242973   7.401   6.859  12.380 -0.8456  1.3651 -1.1442
 6260TIP3   OH242974   2.543   4.646  11.604  0.2029  0.3120 -0.1479
 6260TIP3    H142975   2.578   4.717  11.552 -0.6983 -0.0517 -1.2817
 6260TIP3    H242976   2.452   4.638  11.577 -0.0316 -0.5191  0.7980
 6261TIP3   OH242977   0.880   6.936  10.929 -0.3587  0.8334  0.0045
 6261TIP3    H142978   0.807   6.946  10.868 -1.1506  1.2128  0.9834
 6261TIP3    H242979   0.860   6.857  10.978  1.0865 -0.3865 -1.2652
 6262TIP3   OH242980   0.674   4.487  12.193 -0.5438  0.1486 -0.1415
 6262TIP3    H142981   0.631   4.402  12.179  2.1089 -1.1500 -0.8951
 6262TIP3    H242982   0.635   4.519  12.275 -0.3289 -2.6809  1.1988
 6263TIP3   OH242983   5.428   4.532  11.184  0.5612  0.2597  0.2049
 6263TIP3    H142984   5.446   4.463  11.247  0.2780  0.4003  0.4433
 6263TIP3    H242985   5.464   4.611  11.224 -1.5057  0.7671  1.2266
 6264TIP3   OH242986   7.119   2.823  10.483 -0.1927  0.2768 -0.1002
 6264TIP3    H142987   7.098   2.914  10.461 -0.5845  0.0108 -0.8784
 6264TIP3    H242988   7.092   2.773  10.406 -1.1465 -0.6477  0.7833
 6265TIP3   OH242989   0.801   1.430  11.571  0.1336  0.1269 -0.1900
 6265TIP3    H142990   0.769   1.481  11.497 -1.6568  0.1977  0.5767
 6265TIP3    H242991   0.842   1.353  11.531 -1.0998 -0.0082 -1.2573
 6266TIP3   OH242992   5.924   4.782  12.804 -0.2282 -0.2626  0.0853
 6266TIP3    H142993   5.877   4.829  12.873  0.6981 -1.5496  1.6893
 6266TIP3    H242994   5.944   4.697  12.844  2.0944 -0.3279 -1.0586
 6267TIP3   OH242995   4.716   6.241  11.948  0.4966 -0.1188 -0.6776
 6267TIP3    H142996   4.742   6.300  12.019 -0.9946 -1.0964  0.7410
 6267TIP3    H242997   4.666   6.172  11.991  2.7229 -2.8710 -2.1475
 6268TIP3   OH242998   3.659   0.667  12.034 -0.5060 -0.5826  0.1675
 6268TIP3    H142999   3.578   0.711  12.011 -0.1150 -0.2936 -0.7035
 6268TIP3    H243000   3.695   0.717  12.107 -0.7999 -0.3448  0.1475
 6269TIP3   OH243001   3.154   0.686  11.986 -0.1355  0.1394 -0.1109
 6269TIP3    H143002   3.086   0.658  11.925  1.6958 -1.3878 -1.5931
 6269TIP3    H243003   3.180   0.606  12.032  1.7755  0.3013 -0.8090
 6270TIP3   OH243004   7.388   2.551  12.338  0.0258  0.3269  0.0122
 6270TIP3    H143005   7.413   2.462  12.361 -1.3904 -0.5329 -1.5863
 6270TIP3    H243006   7.460   2.605  12.372  3.0449 -1.7655 -2.4875
 6271TIP3   OH243007   6.081   1.412  11.293 -0.1376  0.4531  0.2891
 6271TIP3    H143008   6.116   1.495  11.260 -1.0078  0.3957 -0.8115
 6271TIP3    H243009   6.025   1.380  11.223  1.3240 -1.8281  0.0462
 6272TIP3   OH243010   1.169   0.242  13.185  0.0469 -0.0475  0.2407
 6272TIP3    H143011   1.180   0.147  13.179  1.4530  0.1402 -0.4989
 6272TIP3    H243012   1.084   0.253  13.228 -0.6586 -1.6246 -0.6655
 6273TIP3   OH243013   6.030   1.180  10.916 -0.2721  0.2710  0.1057
 6273TIP3    H143014   6.054   1.223  10.998 -0.5796 -1.0637  0.9177
 6273TIP3    H243015   5.943   1.215  10.895 -1.4240 -1.3550  1.8299
 6274TIP3   OH243016   4.270   3.128  11.273 -0.1532 -0.1208  0.0812
 6274TIP3    H143017   4.260   3.161  11.362 -0.7806 -1.0867  0.3828
 6274TIP3    H243018   4.194   3.071  11.260 -0.2255  0.2346 -1.1758
 6275TIP3   OH243019   5.214   5.598  12.040  0.2097  0.1581  0.1895
 6275TIP3    H143020   5.235   5.564  12.127  0.0285 -0.9014 -0.1670
 6275TIP3    H243021   5.160   5.529  12.000 -1.0229  1.3007 -0.1945
 6276TIP3   OH243022   6.808   1.322  11.347  0.4457  0.4183  0.4119
 6276TIP3    H143023   6.787   1.281  11.263 -0.4311  1.0919  0.2848
 6276TIP3    H243024   6.903   1.318  11.353  0.4209 -1.1323  0.1617
 6277TIP3   OH243025   4.844   4.407  11.594 -0.5127  0.3504  0.0623
 6277TIP3    H143026   4.801   4.438  11.514 -3.3801 -0.8214  1.0052
 6277TIP3    H243027   4.841   4.312  11.588  0.5288  0.2455  0.9292
 6278TIP3   OH243028   5.230   6.081  12.782 -0.0891  0.1727 -0.3904
 6278TIP3    H143029   5.259   6.168  12.754 -0.4782  0.1731 -0.8137
 6278TIP3    H243030   5.255   6.023  12.710 -1.7349  0.2863 -1.1007
 6279TIP3   OH243031   3.340   2.949  12.474  0.7032 -0.5565 -0.0235
 6279TIP3    H143032   3.251   2.928  12.443  1.0299  0.2017 -1.5898
 6279TIP3    H243033   3.329   2.968  12.567 -1.4889  3.2904 -0.8632
 6280TIP3   OH243034   4.065   3.808  11.972  0.4989  0.7684  0.4208
 6280TIP3    H143035   3.976   3.802  12.007  1.0640 -0.6888  1.7527
 6280TIP3    H243036   4.068   3.742  11.903  0.6799  0.3850  0.7821
 6281TIP3   OH243037   2.472   6.970  11.907 -0.0617  0.5031 -0.2726
 6281TIP3    H143038   2.443   6.938  11.822  0.7426 -0.0806 -0.3387
 6281TIP3    H243039   2.567   6.966  11.903 -0.0257 -0.5022  1.0203
 6282TIP3   OH243040   3.991   5.069  11.080 -0.4264  0.2934  0.2541
 6282TIP3    H143041   3.895   5.062  11.078 -0.4504  0.1790  1.3337
 6282TIP3    H243042   4.021   5.002  11.019 -1.0615  1.6378 -1.6305
 6283TIP3   OH243043   2.527   4.557  12.081  0.5337  0.0171 -0.1538
 6283TIP3    H143044   2.520   4.587  12.171 -0.3010 -0.4482 -0.0506
 6283TIP3    H243045   2.441   4.576  12.043  0.3863 -1.1127 -0.4234
 6284TIP3   OH243046   5.930   2.001  10.808  0.2720  0.3203  0.1331
 6284TIP3    H143047   5.961   2.079  10.856 -0.1124  0.4389  0.1881
 6284TIP3    H243048   5.844   2.025  10.776  1.2596  0.9407 -2.2689
 6285TIP3   OH243049   5.386   1.142  12.041 -0.2407 -0.5641  0.1987
 6285TIP3    H143050   5.425   1.224  12.071  1.6906 -1.1743 -0.4352
 6285TIP3    H243051   5.462   1.086  12.021 -1.4922 -2.2446 -0.0700
 6286TIP3   OH243052   6.345   7.473  11.714 -0.2533 -0.0240  0.4399
 6286TIP3    H143053   6.350   7.567  11.730  0.3698  0.3084 -1.5039
 6286TIP3    H243054   6.430   7.440  11.743 -0.1500  0.1475  0.3337
 6287TIP3   OH243055   3.869   4.248  11.295 -0.0645 -0.0705 -0.5946
 6287TIP3    H143056   3.927   4.296  11.355 -2.2875  1.2910  0.6114
 6287TIP3    H243057   3.849   4.167  11.342 -1.5781  0.8690  0.4745
 6288TIP3   OH243058   7.112   7.544  10.334  0.3019 -0.2902  0.2715
 6288TIP3    H143059   7.021   7.530  10.306  0.7046 -0.3328 -1.0636
 6288TIP3    H243060   7.158   7.465  10.308  0.7122 -0.3386  1.0919
 6289TIP3   OH243061   4.462   6.381  12.070 -0.4172 -0.2735 -0.4246
 6289TIP3    H143062   4.448   6.405  11.979 -0.7643 -1.8299 -0.8183
 6289TIP3    H243063   4.401   6.308  12.085  0.2940 -0.6519  0.7715
 6290TIP3   OH243064   3.114   1.293  11.046  0.4324  0.7276 -0.7004
 6290TIP3    H143065   3.092   1.203  11.022  0.5972  0.7666 -1.0131
 6290TIP3    H243066   3.135   1.335  10.962 -1.8674  1.6778 -0.8846
 6291TIP3   OH243067   0.523   7.173  13.188 -0.0007  0.4595 -0.4019
 6291TIP3    H143068   0.551   7.264  13.179 -1.5523  0.9553 -0.4819
 6291TIP3    H243069   0.432   7.178  13.217 -0.9816 -1.0089 -2.8380
 6292TIP3   OH243070   3.683   6.164  11.123  0.2550 -0.4689 -0.5051
 6292TIP3    H143071   3.662   6.255  11.142 -0.6247 -0.9369  0.9261
 6292TIP3    H243072   3.709   6.164  11.031  0.9463  1.3231 -0.3417
 6293TIP3   OH243073   0.677   6.912  10.737  0.2411  0.3425  0.3854
 6293TIP3    H143074   0.601   6.968  10.752  1.4911  2.2052  0.0617
 6293TIP3    H243075   0.697   6.923  10.644  0.9925 -0.0167  0.4991
 6294TIP3   OH243076   4.255   0.346  11.403 -0.5687  0.0470  0.1755
 6294TIP3    H143077   4.279   0.438  11.405  0.5008 -0.2310  1.2522
 6294TIP3    H243078   4.196   0.334  11.477 -0.5956 -0.1630  0.1212
 6295TIP3   OH243079   4.509   5.058  11.127 -0.3654 -0.6389 -0.1956
 6295TIP3    H143080   4.517   5.048  11.222  0.3535 -2.0967 -0.3759
 6295TIP3    H243081   4.482   5.149  11.114 -0.4085 -0.4034  1.3968
 6296TIP3   OH243082   6.568   6.084  10.857  0.1722  0.3134 -0.2451
 6296TIP3    H143083   6.544   6.030  10.932 -1.3400  0.3275 -0.6962
 6296TIP3    H243084   6.649   6.045  10.825  0.4902 -0.0880  0.9955
 6297TIP3   OH243085   4.119   7.302  11.499 -0.3386  0.9124  0.2347
 6297TIP3    H143086   4.128   7.384  11.450  2.5858  0.8647  0.5696
 6297TIP3    H243087   4.204   7.259  11.491 -0.7673 -0.5764  2.7681
 6298TIP3   OH243088   6.650   3.438  10.730 -0.1211 -0.1374  0.3987
 6298TIP3    H143089   6.588   3.389  10.783  0.7874 -1.7372  0.0373
 6298TIP3    H243090   6.731   3.437  10.780 -0.0432  0.8695  0.3063
 6299TIP3   OH243091   2.428   3.503  10.990  0.1153  0.6569  0.2511
 6299TIP3    H143092   2.474   3.582  10.962 -1.2328  2.0673  1.7471
 6299TIP3    H243093   2.383   3.529  11.071 -0.5178 -1.6080  0.6986
 6300TIP3   OH243094   6.581   3.383  11.397  0.1384 -0.5825  0.2506
 6300TIP3    H143095   6.501   3.421  11.361 -0.3384 -2.8716 -1.3618
 6300TIP3    H243096   6.551   3.330  11.472  0.0939 -1.4408 -0.3542
 6301TIP3   OH243097   1.139   1.867  11.685  0.2129  0.5742  0.3380
 6301TIP3    H143098   1.179   1.783  11.707 -2.4860 -0.9991 -0.3873
 6301TIP3    H243099   1.123   1.909  11.769 -0.3760 -0.6372  0.8557
 6302TIP3   OH243100   6.006   0.597  11.193  0.8273 -0.0706  0.0756
 6302TIP3    H143101   6.006   0.680  11.145 -0.7497  0.0044  0.1266
 6302TIP3    H243102   5.944   0.542  11.144  0.1407 -0.4226  1.2960
 6303TIP3   OH243103   2.541   3.742  12.369 -0.2507  0.3095  0.1539
 6303TIP3    H143104   2.547   3.662  12.317 -0.3151  0.2057  0.3053
 6303TIP3    H243105   2.605   3.802  12.329  1.6915 -0.6776  1.5688
 6304TIP3   OH243106   5.573   2.585  13.726 -0.3155  0.7171 -0.0901
 6304TIP3    H143107   5.638   2.640  13.682  1.0392 -1.4457 -0.9752
 6304TIP3    H243108   5.499   2.583  13.666 -0.5449  1.8249  0.1266
 6305TIP3   OH243109   6.422   3.562  11.279 -0.2036 -0.6182 -0.1312
 6305TIP3    H143110   6.339   3.527  11.247 -0.6173 -0.9585  1.2510
 6305TIP3    H243111   6.399   3.643  11.324  0.4248  0.0869 -1.0274
 6306TIP3   OH243112   3.680   3.655  11.548  0.5808 -0.6094  0.4137
 6306TIP3    H143113   3.747   3.711  11.588 -0.4976  1.6010 -0.7054
 6306TIP3    H243114   3.701   3.656  11.455  0.5938 -2.2308  0.3729
 6307TIP3   OH243115   7.379   2.469  11.919  0.0394  0.1927  0.3089
 6307TIP3    H143116   7.329   2.427  11.849 -1.3821  1.4471  0.5149
 6307TIP3    H243117   7.449   2.516  11.874 -1.6605  2.1299 -0.4933
 6308TIP3   OH243118   2.655   6.223  11.577 -0.2221 -0.2866 -0.0559
 6308TIP3    H143119   2.708   6.231  11.498 -0.2544  1.6719  0.0738
 6308TIP3    H243120   2.628   6.313  11.597 -0.5292 -0.7779  1.9622
 6309TIP3   OH243121   3.996   6.311  10.491  0.2064 -0.2568  0.0622
 6309TIP3    H143122   3.984   6.367  10.568  0.8723 -2.1686  1.6311
 6309TIP3    H243123   4.059   6.359  10.437 -1.1825  1.6959  0.0583
 6310TIP3   OH243124   0.139   5.702  10.644  0.4877 -0.2754  0.3507
 6310TIP3    H143125   0.179   5.788  10.636  0.3854 -0.3847 -1.8855
 6310TIP3    H243126   0.213   5.642  10.653  0.5761 -0.0423  1.3703
 6311TIP3   OH243127   7.388   5.578  12.827 -0.1029  0.8248 -0.4970
 6311TIP3    H143128   7.321   5.524  12.785  0.9626 -0.3306 -0.7669
 6311TIP3    H243129   7.349   5.606  12.909 -1.0491  0.4769 -0.8162
 6312TIP3   OH243130   7.589   1.421  10.814  0.0157  0.0659 -0.0710
 6312TIP3    H143131   7.617   1.464  10.895 -1.0951  1.1049 -0.2243
 6312TIP3    H243132   7.494   1.413  10.823  0.1282 -2.0687 -0.2043
 6313TIP3   OH243133   6.526   0.022  10.840  0.4897 -0.0191 -0.1442
 6313TIP3    H143134   6.516   0.037  10.934 -1.3470  0.5112 -0.3829
 6313TIP3    H243135   6.528   0.109  10.801  0.7139 -0.2454 -0.6511
 6314TIP3   OH243136   3.963   7.346  11.739 -0.6512 -0.4938 -0.3452
 6314TIP3    H143137   3.905   7.420  11.718  1.0193  1.2067  0.6884
 6314TIP3    H243138   4.037   7.356  11.679 -1.1839 -2.4450 -1.4234
 6315TIP3   OH243139   7.434   3.313  11.998  0.6633  0.0073 -0.5814
 6315TIP3    H143140   7.401   3.324  12.087  1.3879  1.6012 -0.4797
 6315TIP3    H243141   7.404   3.225  11.972 -1.8432  0.5264  0.2475
 6316TIP3   OH243142   3.769   4.614  12.843  0.1332 -0.3432  0.7309
 6316TIP3    H143143   3.856   4.640  12.811 -1.4932  1.2316 -3.0297
 6316TIP3    H243144   3.729   4.696  12.872 -2.1533  0.4455 -3.6530
 6317TIP3   OH243145   3.538   2.906  13.306 -0.1906 -0.1493 -0.1202
 6317TIP3    H143146   3.473   2.838  13.290 -1.8200  1.1453  0.6848
 6317TIP3    H243147   3.622   2.864  13.287 -1.1638 -2.2020 -0.1403
 6318TIP3   OH243148   2.730   1.414  12.059  0.0869 -0.4068 -0.1429
 6318TIP3    H143149   2.642   1.396  12.091  0.7185 -0.0923  1.8928
 6318TIP3    H243150   2.723   1.498  12.013 -0.0495  1.6118  3.2517
 6319TIP3   OH243151   1.261   2.841  11.651  0.0133  0.4586 -0.0917
 6319TIP3    H143152   1.196   2.904  11.619 -0.7272 -0.5577 -0.6432
 6319TIP3    H243153   1.305   2.887  11.722 -2.2530  0.7176  1.2476
 6320TIP3   OH243154   2.704   0.729  11.317  0.2781 -0.1732 -0.1160
 6320TIP3    H143155   2.779   0.683  11.277  0.0268  0.7870 -1.7656
 6320TIP3    H243156   2.657   0.767  11.243 -2.5913 -1.7599  0.7347
 6321TIP3   OH243157   6.716   4.474  13.139  0.6682 -0.0791 -0.6020
 6321TIP3    H143158   6.743   4.543  13.078 -1.9080  1.0236 -0.6307
 6321TIP3    H243159   6.724   4.393  13.088  2.6461  0.2954 -0.9459
 6322TIP3   OH243160   2.460   7.041  10.482  0.7349  0.0198  0.2425
 6322TIP3    H143161   2.426   6.961  10.440 -0.7541  1.4982 -1.5334
 6322TIP3    H243162   2.382   7.093  10.501  1.7110  1.2866  0.9364
 6323TIP3   OH243163   2.163   5.323  12.269  0.5326 -0.3690 -0.5583
 6323TIP3    H143164   2.226   5.296  12.201  2.2026  0.2734  0.6752
 6323TIP3    H243165   2.139   5.412  12.245  0.8788 -0.2528 -0.4799
 6324TIP3   OH243166   7.060   5.578  10.106  0.4526 -0.0042 -0.5720
 6324TIP3    H143167   7.141   5.530  10.124 -0.6119 -1.7226 -0.0690
 6324TIP3    H243168   7.006   5.516  10.057 -1.2425  0.4176  0.6756
 6325TIP3   OH243169   0.603   0.743  11.245  0.0521  0.2862  0.2470
 6325TIP3    H143170   0.651   0.661  11.256  0.1349  0.4286  0.9751
 6325TIP3    H243171   0.543   0.746  11.320 -0.2518  0.6841 -0.0064
 6326TIP3   OH243172   6.379   0.100  12.851  0.2164  0.3729  0.0087
 6326TIP3    H143173   6.298   0.151  12.847  0.0593  0.2429  1.2146
 6326TIP3    H243174   6.390   0.080  12.944 -0.4180 -2.8449 -0.4864
 6327TIP3   OH243175   4.738   2.141  12.374 -0.0005  0.0499  0.0343
 6327TIP3    H143176   4.679   2.101  12.311 -0.2771 -0.0410  0.3474
 6327TIP3    H243177   4.691   2.137  12.457  0.3928  0.0925  0.2626
 6328TIP3   OH243178   2.062   1.468  10.482 -0.4078 -0.1693  0.0011
 6328TIP3    H143179   2.080   1.492  10.391  3.2027 -0.8330  0.3667
 6328TIP3    H243180   1.999   1.532  10.512  1.3722  2.6771 -1.8568
 6329TIP3   OH243181   5.505   3.864  12.612  0.3315 -0.7269  0.2619
 6329TIP3    H143182   5.510   3.937  12.552  0.7639 -1.0877 -0.1564
 6329TIP3    H243183   5.412   3.842  12.618  0.4021 -1.6013 -1.4039
 6330TIP3   OH243184   4.577   7.249  11.434  0.5295 -0.3595  0.2806
 6330TIP3    H143185   4.629   7.185  11.384 -0.4338 -1.8589  1.1229
 6330TIP3    H243186   4.621   7.254  11.519  0.3384 -0.2466  0.3725
 6331TIP3   OH243187   3.511   3.525  11.840  0.4936  0.2085 -0.3473
 6331TIP3    H143188   3.598   3.566  11.845  0.8913 -0.5842 -0.6129
 6331TIP3    H243189   3.528   3.432  11.851 -0.4495  0.1359  0.7244
 6332TIP3   OH243190   5.493   2.953  11.930 -0.6078  0.2371  0.1255
 6332TIP3    H143191   5.506   2.930  12.023 -1.7716 -0.6722  0.0920
 6332TIP3    H243192   5.480   2.869  11.887  1.4900  0.5139 -1.1754
 6333TIP3   OH243193   3.171   7.640  11.265 -0.0342 -0.1776 -0.1694
 6333TIP3    H143194   3.211   7.707  11.321  1.1342 -0.8197 -0.2133
 6333TIP3    H243195   3.169   7.561  11.319 -0.6702 -0.3213 -0.3907
 6334TIP3   OH243196   1.180   4.848  11.582 -0.3053 -0.0278  0.0860
 6334TIP3    H143197   1.170   4.757  11.611 -0.1223  0.2094  0.9204
 6334TIP3    H243198   1.270   4.853  11.548 -0.2831 -0.1302  0.1314
 6335TIP3   OH243199   0.900   3.183  12.152  0.2304 -0.9155 -0.0187
 6335TIP3    H143200   0.846   3.106  12.133 -0.5768 -0.4194  0.2251
 6335TIP3    H243201   0.952   3.158  12.229 -2.2769 -0.1918  2.0558
 6336TIP3   OH243202   3.117   3.572  12.679  0.2822  0.8464 -0.9285
 6336TIP3    H143203   3.072   3.655  12.663 -0.2571  0.3526 -2.0782
 6336TIP3    H243204   3.147   3.578  12.770  1.2662  2.7639 -1.3182
 6337TIP3   OH243205   4.780   7.520  12.816  0.0485 -0.0060  0.4328
 6337TIP3    H143206   4.705   7.463  12.800  0.8258 -0.3832 -2.6061
 6337TIP3    H243207   4.846   7.463  12.856 -0.7329 -0.0229  1.7494
 6338TIP3   OH243208   5.877   7.346  10.996  0.0584  0.0813 -0.0838
 6338TIP3    H143209   5.868   7.440  11.013  1.0775  0.1239  0.3115
 6338TIP3    H243210   5.821   7.330  10.920 -0.9145  0.8047  0.4520
 6339TIP3   OH243211   2.013   0.300  11.620  0.0699 -0.2356  0.3097
 6339TIP3    H143212   1.997   0.215  11.662 -0.0477 -0.5099 -0.2844
 6339TIP3    H243213   2.085   0.338  11.670 -0.3613 -0.3630  1.0413
 6340TIP3   OH243214   7.410   4.134  12.958  0.1217 -0.0047 -0.5473
 6340TIP3    H143215   7.336   4.183  12.924  0.1613  0.9470  0.6435
 6340TIP3    H243216   7.432   4.072  12.889 -2.1564 -0.7420 -0.6842
 6341TIP3   OH243217   6.451   3.033  12.038 -0.0652  0.2448 -0.0016
 6341TIP3    H143218   6.493   2.960  12.084  1.4860  1.3045  0.3595
 6341TIP3    H243219   6.374   3.053  12.091 -0.3423 -0.9129  0.0646
 6342TIP3   OH243220   6.250   5.271  11.472  0.1783  0.2662  0.5213
 6342TIP3    H143221   6.167   5.316  11.457 -0.3397 -0.9738 -0.5323
 6342TIP3    H243222   6.231   5.208  11.542 -0.0147 -0.6157 -0.3140
 6343TIP3   OH243223   5.884   1.335  11.112  0.3936  0.3768  0.0243
 6343TIP3    H143224   5.814   1.327  11.177 -1.6344  3.7218 -1.5372
 6343TIP3    H243225   5.841   1.319  11.028  2.6761 -2.4480 -0.7918
 6344TIP3   OH243226   6.808   5.425  11.246 -0.3807  0.0642  0.0689
 6344TIP3    H143227   6.725   5.430  11.199  0.6672  1.0056 -1.7923
 6344TIP3    H243228   6.795   5.480  11.324 -1.7100 -0.4198  0.2213
 6345TIP3   OH243229   0.657   1.656  11.267  0.0131 -0.0767  0.1168
 6345TIP3    H143230   0.593   1.590  11.293  1.9945 -2.1227  0.1590
 6345TIP3    H243231   0.605   1.730  11.238 -2.3350 -0.8723  1.9711
 6346TIP3   OH243232   4.080   2.438  10.760 -0.5229  0.1669  0.0607
 6346TIP3    H143233   4.094   2.503  10.691  1.0086  0.6634  0.7876
 6346TIP3    H243234   3.986   2.423  10.761 -0.5096 -0.8770 -3.0763
 6347TIP3   OH243235   4.279   5.051  12.388 -0.4043 -0.9324  0.3897
 6347TIP3    H143236   4.293   5.061  12.294  0.7360  0.4158  0.6764
 6347TIP3    H243237   4.354   5.095  12.429 -1.7101 -0.0465  1.9553
 6348TIP3   OH243238   2.078   1.591  12.283  0.7156 -0.3449 -0.0103
 6348TIP3    H143239   2.111   1.599  12.193  1.8449 -1.0059  0.3290
 6348TIP3    H243240   2.072   1.497  12.298 -0.0607 -0.2317  0.3970
 6349TIP3   OH243241   6.678   2.649  11.373 -0.2489  0.2872  0.9087
 6349TIP3    H143242   6.746   2.584  11.393 -0.3879  0.1486  0.9270
 6349TIP3    H243243   6.596   2.601  11.379 -0.3211  0.3405  0.4232
 6350TIP3   OH243244   2.762   5.120  10.939  0.0856  0.0360  0.0922
 6350TIP3    H143245   2.708   5.198  10.927 -0.2963 -0.1855  0.3719
 6350TIP3    H243246   2.722   5.053  10.884  1.1175  0.3597 -1.1042
 6351TIP3   OH243247   0.558   6.574  13.175 -0.2001  0.5846  0.1733
 6351TIP3    H143248   0.501   6.588  13.251 -0.6992 -0.9841  0.1189
 6351TIP3    H243249   0.522   6.632  13.107  0.2648  2.0209  1.0945
 6352TIP3   OH243250   4.277   4.657  11.832  0.4069  0.4564 -0.2561
 6352TIP3    H143251   4.281   4.636  11.739 -0.2598 -0.0908 -0.1734
 6352TIP3    H243252   4.325   4.585  11.875  3.1182  2.0936 -0.3219
 6353TIP3   OH243253   6.440   5.062  12.551 -0.5337  0.6071 -0.0295
 6353TIP3    H143254   6.387   5.067  12.630 -0.6255  0.6710 -0.0965
 6353TIP3    H243255   6.511   5.001  12.574 -0.3928  0.8547  0.1993
 6354TIP3   OH243256   6.373   0.340  11.962 -0.2658  0.3083  0.0208
 6354TIP3    H143257   6.424   0.351  12.042 -2.3082  0.9028  1.3142
 6354TIP3    H243258   6.304   0.279  11.985 -1.0833  0.7329 -1.2007
 6355TIP3   OH243259   3.018   2.750  11.564  0.0911  0.4100 -0.2960
 6355TIP3    H143260   2.972   2.809  11.505 -0.0209 -1.3016 -2.0306
 6355TIP3    H243261   3.106   2.787  11.572  0.1016  0.6961 -1.5442
 6356TIP3   OH243262   4.777   0.206  10.373  0.3677  0.7537  0.1937
 6356TIP3    H143263   4.766   0.190  10.467  1.3920  1.8627  0.5288
 6356TIP3    H243264   4.834   0.283  10.368  1.7991 -0.3246 -1.3390
 6357TIP3   OH243265   7.214   7.457  12.853  0.2772  0.4094 -0.4740
 6357TIP3    H143266   7.120   7.474  12.855  0.2260  0.1962 -0.8725
 6357TIP3    H243267   7.254   7.544  12.860  0.0724  0.4298  0.6104
 6358TIP3   OH243268   3.262   7.124  12.996 -0.0727  0.5699 -0.1985
 6358TIP3    H143269   3.357   7.113  13.006  0.0898  0.5898 -1.5922
 6358TIP3    H243270   3.224   7.055  13.051  0.6533  2.0825  2.4097
 6359TIP3   OH243271   2.141   6.077  11.111 -0.3541 -0.5437  0.6985
 6359TIP3    H143272   2.088   6.136  11.057  3.2368  1.3807 -1.1564
 6359TIP3    H243273   2.163   6.004  11.053 -0.2113 -0.8124  1.0870
 6360TIP3   OH243274   0.375   2.395  11.068  0.5583  0.5990 -0.4658
 6360TIP3    H143275   0.376   2.318  11.011  0.2825 -0.5064  0.9598
 6360TIP3    H243276   0.424   2.461  11.020 -1.1403  0.3281 -2.7773
 6361TIP3   OH243277   1.080   3.185  10.560  0.2520  0.0358  0.3850
 6361TIP3    H143278   1.169   3.166  10.589 -0.6102 -2.5702  1.6974
 6361TIP3    H243279   1.084   3.273  10.525  3.7383 -0.6537 -1.3410
 6362TIP3   OH243280   0.175   4.895  12.195 -0.2462  0.5560 -0.1283
 6362TIP3    H143281   0.115   4.969  12.205 -0.1881  0.6452 -0.4159
 6362TIP3    H243282   0.234   4.922  12.124  0.2996  0.5829  0.3230
 6363TIP3   OH243283   6.382   3.994  12.602 -0.0143  0.2264 -0.0983
 6363TIP3    H143284   6.377   4.089  12.610 -1.0183  0.3076 -1.4178
 6363TIP3    H243285   6.429   3.978  12.521 -0.0577 -0.3971 -0.0099
 6364TIP3   OH243286   5.740   7.568  11.991  0.0220 -0.0128  0.4036
 6364TIP3    H143287   5.736   7.472  11.991  0.3453 -0.0292  0.4971
 6364TIP3    H243288   5.734   7.592  12.084  0.0079  0.0537  0.3848
 6365TIP3   OH243289   0.498   5.652  12.106 -0.1173 -0.3626  0.3434
 6365TIP3    H143290   0.515   5.744  12.125 -1.6016 -0.3891  2.0663
 6365TIP3    H243291   0.418   5.652  12.054  0.5052 -0.6436 -0.6385
 6366TIP3   OH243292   0.440   4.818  11.620 -0.4179  0.3248 -0.2365
 6366TIP3    H143293   0.507   4.851  11.680 -0.6765  0.8428 -0.2219
 6366TIP3    H243294   0.428   4.889  11.557 -1.7791  0.7354  0.4389
 6367TIP3   OH243295   4.324   2.727  10.770 -0.4471 -0.1642 -0.5451
 6367TIP3    H143296   4.291   2.681  10.693 -0.4840  1.0548 -1.2787
 6367TIP3    H243297   4.409   2.761  10.744  2.0060 -3.9159  1.5590
 6368TIP3   OH243298   2.782   2.213  12.241 -0.4808  0.1536 -0.0021
 6368TIP3    H143299   2.832   2.157  12.182  0.9024 -1.4762  2.5376
 6368TIP3    H243300   2.700   2.166  12.256 -0.2095 -0.1678  0.4932
 6369TIP3   OH243301   3.802   3.522  11.891 -0.4477 -0.0583 -0.4274
 6369TIP3    H143302   3.866   3.578  11.846  1.0143  0.0898  1.6827
 6369TIP3    H243303   3.803   3.440  11.842  2.1601 -0.4072  0.0939
 6370TIP3   OH243304   0.143   2.737  11.566 -0.3778 -0.3643 -0.1893
 6370TIP3    H143305   0.083   2.754  11.638  2.6321  0.5914  2.3146
 6370TIP3    H243306   0.162   2.644  11.573  0.0163 -0.2467  0.3741
 6371TIP3   OH243307   3.065   5.550  12.990  0.5364 -0.3227 -0.2883
 6371TIP3    H143308   3.067   5.613  13.062  1.6597  0.6572 -1.1493
 6371TIP3    H243309   2.988   5.496  13.009  0.9874 -0.3079  1.8094
 6372TIP3   OH243310   0.975   4.594  11.826 -0.2482 -0.4937  0.7637
 6372TIP3    H143311   1.045   4.596  11.762 -0.3788  0.1989  0.6283
 6372TIP3    H243312   0.943   4.504  11.826  0.7969 -0.8707  1.0033
 6373TIP3   OH243313   5.534   2.310  12.263 -0.1539  0.5239 -0.1497
 6373TIP3    H143314   5.473   2.236  12.273 -0.5848  0.6713 -1.5056
 6373TIP3    H243315   5.484   2.375  12.213  0.8016  1.0481 -0.4317
 6374TIP3   OH243316   7.026   7.013  12.425 -0.3920 -0.0266 -0.1450
 6374TIP3    H143317   7.059   7.088  12.376 -0.3811 -0.2757 -0.5264
 6374TIP3    H243318   6.977   7.051  12.498 -1.4207  0.3667 -1.0132
 6375TIP3   OH243319   6.980   6.702  11.754  0.2964  0.0886  0.2990
 6375TIP3    H143320   6.887   6.710  11.775 -0.0354 -2.9865  0.4146
 6375TIP3    H243321   6.984   6.636  11.685  2.3856  0.3182  0.1292
 6376TIP3   OH243322   6.453   2.047  11.802 -0.1806  0.2718  0.3414
 6376TIP3    H143323   6.440   2.043  11.897 -0.3887 -0.6670  0.2892
 6376TIP3    H243324   6.421   1.962  11.770  0.9439  0.1193 -0.4461
 6377TIP3   OH243325   4.516   2.144  11.737 -0.2180  0.3153  0.5675
 6377TIP3    H143326   4.475   2.174  11.818 -0.9503  1.7205 -0.2935
 6377TIP3    H243327   4.510   2.048  11.741  2.1475  0.1466  3.3741
 6378TIP3   OH243328   3.445   1.717  10.393  0.1891 -0.0047  0.5303
 6378TIP3    H143329   3.456   1.711  10.298  1.0419 -0.6808  0.6564
 6378TIP3    H243330   3.435   1.811  10.410 -0.9879  0.0516 -0.3172
 6379TIP3   OH243331   4.003   0.002  12.897 -0.0950  0.6796  1.0730
 6379TIP3    H143332   4.007   0.069  12.830  1.2636  0.8361  1.2840
 6379TIP3    H243333   4.077  -0.056  12.879 -0.8848 -0.4335  1.2513
 6380TIP3   OH243334   0.524   3.550  12.112  0.2774 -0.2422  0.3449
 6380TIP3    H143335   0.449   3.539  12.170 -0.2048 -1.5674 -0.5037
 6380TIP3    H243336   0.573   3.468  12.120 -0.0730 -0.6733 -1.4895
 6381TIP3   OH243337   6.696   3.649  12.374 -0.4388 -0.3117  0.3791
 6381TIP3    H143338   6.633   3.602  12.429 -1.4912  0.3910 -0.1946
 6381TIP3    H243339   6.743   3.580  12.328  0.4850 -0.9255  2.1271
 6382TIP3   OH243340   2.464   4.204  11.918 -0.4736  0.1330 -0.0238
 6382TIP3    H143341   2.508   4.237  11.839  0.6682  0.0961  0.5699
 6382TIP3    H243342   2.525   4.224  11.989 -0.2447 -2.2166  0.5297
 6383TIP3   OH243343   7.284   5.166  10.657 -0.6373 -0.2836  0.3032
 6383TIP3    H143344   7.294   5.261  10.665  0.0467 -0.5388  4.2212
 6383TIP3    H243345   7.373   5.135  10.636 -0.9641 -0.1143 -1.5276
 6384TIP3   OH243346   7.113   4.783  10.878 -0.6502  0.1489 -0.0302
 6384TIP3    H143347   7.139   4.863  10.923 -0.0964  0.6799 -1.2601
 6384TIP3    H243348   7.139   4.797  10.787  0.2192 -1.7623 -0.1247
 6385TIP3   OH243349   5.542   2.916  11.385  0.0517  0.5243  0.0986
 6385TIP3    H143350   5.500   2.949  11.464  0.6112  1.9985 -0.1728
 6385TIP3    H243351   5.625   2.964  11.381 -0.0376  0.6138 -1.4513
 6386TIP3   OH243352   2.488   3.091  12.151 -0.4156  0.0163  0.0058
 6386TIP3    H143353   2.476   3.017  12.211  2.0362 -0.6270 -0.1718
 6386TIP3    H243354   2.482   3.168  12.207  1.2859 -0.5498  1.0605
 6387TIP3   OH243355   6.244   6.195  11.712 -0.0292  0.2501 -0.7433
 6387TIP3    H143356   6.214   6.281  11.742 -1.0840 -0.9507  2.0207
 6387TIP3    H243357   6.278   6.152  11.791  0.4512 -1.8997 -2.0141
 6388TIP3   OH243358   0.037   7.596  12.514  0.1098  0.7378  1.2838
 6388TIP3    H143359   0.025   7.513  12.470  0.2781  1.6865 -0.6450
 6388TIP3    H243360  -0.037   7.603  12.574 -1.4202  0.3931 -0.4782
 6389TIP3   OH243361   7.334   2.617  12.752  0.2043 -0.8327 -0.2818
 6389TIP3    H143362   7.325   2.577  12.838 -0.6428 -0.2541 -0.0909
 6389TIP3    H243363   7.424   2.648  12.749 -0.2066  0.5557  1.0266
 6390TIP3   OH243364   6.574   7.580  10.285 -0.4557 -0.2496  0.4148
 6390TIP3    H143365   6.659   7.621  10.300 -0.1715 -0.5515 -0.3241
 6390TIP3    H243366   6.591   7.486  10.293 -0.7996 -0.2964  0.6350
 6391TIP3   OH243367   2.377   3.086  11.761  0.0690  0.4449  0.4450
 6391TIP3    H143368   2.464   3.107  11.795  0.1954  1.7994 -0.6186
 6391TIP3    H243369   2.317   3.118  11.828  0.3740 -0.2233  1.0466
 6392TIP3   OH243370   5.883   0.309  11.326  0.1463  0.1592  0.4941
 6392TIP3    H143371   5.836   0.286  11.245 -2.0400 -1.2420  2.0566
 6392TIP3    H243372   5.845   0.393  11.352 -0.6060 -0.3398  1.0608
 6393TIP3   OH243373   6.864   0.422  11.930 -0.3749  0.8629 -0.4009
 6393TIP3    H143374   6.897   0.502  11.890 -0.6298  1.5296  0.6929
 6393TIP3    H243375   6.797   0.391  11.870  2.9845 -1.3027 -3.4824
 6394TIP3   OH243376   4.790   2.161  11.710 -0.3285  0.3841  0.4413
 6394TIP3    H143377   4.828   2.248  11.699 -0.1764  0.2470 -0.1748
 6394TIP3    H243378   4.696   2.175  11.708 -0.3285  0.3662 -1.3013
 6395TIP3   OH243379   0.821   1.672  10.946  0.1098  0.1215 -0.2129
 6395TIP3    H143380   0.761   1.731  10.992  1.0384 -0.0035  1.2183
 6395TIP3    H243381   0.908   1.707  10.964  0.6217 -1.1006 -0.1710
 6396TIP3   OH243382   1.037   0.124  19.181 -0.0449  0.4878 -0.4925
 6396TIP3    H143383   1.111   0.137  19.241  1.1776 -0.9748 -1.6133
 6396TIP3    H243384   1.068   0.061  19.117 -2.2313 -0.0620 -1.1122
 6397TIP3   OH243385   4.933   3.243  11.957  0.1651 -0.1134 -0.6800
 6397TIP3    H143386   4.903   3.325  11.917  1.4072  1.1154  0.7587
 6397TIP3    H243387   5.012   3.268  12.005 -0.1597 -1.8849  0.8965
 6398TIP3   OH243388   6.804   4.509  11.407  0.5910 -0.2134 -0.5416
 6398TIP3    H143389   6.851   4.573  11.354  0.6567  0.8200  0.7445
 6398TIP3    H243390   6.720   4.549  11.426 -0.5655 -1.7111 -2.1162
 6399TIP3   OH243391   5.237   5.478  10.810  0.2431 -0.2063  0.2988
 6399TIP3    H143392   5.262   5.569  10.797  0.0555 -0.2091 -0.0766
 6399TIP3    H243393   5.229   5.469  10.905  2.1292 -0.3367  0.4775
 6400TIP3   OH243394   7.195   6.360  12.691 -0.3579 -0.0608  0.1566
 6400TIP3    H143395   7.173   6.407  12.771  0.7347  0.1866  0.3198
 6400TIP3    H243396   7.207   6.429  12.625  2.8737  0.0914  0.7704
 6401TIP3   OH243397   4.142   0.757  10.569 -0.1848 -0.0282  0.3099
 6401TIP3    H143398   4.184   0.743  10.485 -0.5188  0.4742  0.0519
 6401TIP3    H243399   4.152   0.851  10.585  0.7606 -0.2781  1.3132
 6402TIP3   OH243400   4.494   6.470  11.545  0.0340  0.5821  0.0022
 6402TIP3    H143401   4.415   6.524  11.553 -0.8689 -0.2125 -2.5044
 6402TIP3    H243402   4.562   6.532  11.519 -0.2029  0.9944  0.3473
 6403TIP3   OH243403   1.779   0.569  10.684 -0.9029  0.4988 -0.3373
 6403TIP3    H143404   1.765   0.639  10.747 -1.3094 -0.0849  0.2330
 6403TIP3    H243405   1.809   0.614  10.605 -1.1405  1.3133  0.0203
 6404TIP3   OH243406   0.009   1.924  12.633  0.0183  0.1963 -0.0661
 6404TIP3    H143407  -0.045   1.876  12.570 -0.8265  1.8992 -0.6782
 6404TIP3    H243408  -0.053   1.960  12.696  0.4229  2.0072 -0.6505
 6405TIP3   OH243409   4.965   6.113  11.297 -0.0197  0.3295 -0.0756
 6405TIP3    H143410   4.972   6.145  11.387 -0.6552 -0.1959  0.1713
 6405TIP3    H243411   4.947   6.191  11.245 -0.5910  0.5126  0.3865
 6406TIP3   OH243412   2.709   0.175  11.651  0.2409 -0.4962  0.1842
 6406TIP3    H143413   2.751   0.259  11.666 -1.5215  0.2902  1.0940
 6406TIP3    H243414   2.779   0.117  11.622  1.6150  1.1094  0.1676
 6407TIP3   OH243415   1.656   3.633  11.710  0.6347  0.4688  0.3043
 6407TIP3    H143416   1.605   3.610  11.632  1.7185  0.9953 -0.5947
 6407TIP3    H243417   1.592   3.670  11.771 -0.0241  1.4043 -0.9089
 6408TIP3   OH243418   7.493   1.437  12.057  0.1249  0.2074  0.4861
 6408TIP3    H143419   7.408   1.404  12.084 -0.5488  0.0106 -1.6587
 6408TIP3    H243420   7.480   1.531  12.044 -0.0121  0.0545 -0.5983
 6409TIP3   OH243421   0.489   6.196  12.335  0.1896  0.0931  0.0595
 6409TIP3    H143422   0.536   6.163  12.412  4.5262  2.1713 -1.3751
 6409TIP3    H243423   0.461   6.284  12.360  0.9468  0.4859 -0.4271
 6410TIP3   OH243424   7.171   1.213  10.914  0.0583  0.2613  0.1855
 6410TIP3    H143425   7.165   1.143  10.978  1.1954  0.6147  0.6971
 6410TIP3    H243426   7.118   1.284  10.951 -1.3474 -0.3949 -0.4776
 6411TIP3   OH243427   2.173   6.369  11.367  0.2212 -0.0080  0.0351
 6411TIP3    H143428   2.209   6.357  11.455 -0.4401 -2.0902  0.0888
 6411TIP3    H243429   2.111   6.297  11.357  0.5458 -0.0487 -2.2657
 6412TIP3   OH243430   4.528   6.044  10.509 -0.0581  0.3786  0.1215
 6412TIP3    H143431   4.623   6.049  10.504  0.0030  0.4952  1.1028
 6412TIP3    H243432   4.497   6.067  10.421  0.8343 -0.3320 -0.3895
 6413TIP3   OH243433   2.564   6.484  11.589  0.2549  0.3487  0.2538
 6413TIP3    H143434   2.499   6.515  11.652 -0.2065  2.5884 -1.2125
 6413TIP3    H243435   2.613   6.562  11.564  1.9719 -0.8813 -0.4731
 6414TIP3   OH243436   3.942   1.566  11.418 -0.1387 -0.2823  0.3358
 6414TIP3    H143437   3.935   1.647  11.367  2.2331 -0.3097 -0.1325
 6414TIP3    H243438   3.973   1.594  11.504  0.8689 -0.6900  0.1157
 6415TIP3   OH243439   7.380   4.500  10.765 -0.2591  0.2823  0.2143
 6415TIP3    H143440   7.377   4.454  10.681 -1.8395 -0.6732  0.7704
 6415TIP3    H243441   7.439   4.448  10.819 -2.2787 -1.3596  0.9463
 6416TIP3   OH243442   7.416   6.973  11.275 -0.4703  0.1767  0.3287
 6416TIP3    H143443   7.405   6.942  11.185 -0.4437 -0.4950  0.5509
 6416TIP3    H243444   7.356   7.047  11.282 -0.9553 -0.1731 -0.0518
 6417TIP3   OH243445   4.308   7.522  12.173  0.4239 -0.1754  0.2661
 6417TIP3    H143446   4.304   7.428  12.156 -0.8718 -0.0011 -0.5275
 6417TIP3    H243447   4.392   7.550  12.136  0.9299 -1.0503  0.7282
 6418TIP3   OH243448   3.451   4.411  10.956  0.1141  0.3826  0.5278
 6418TIP3    H143449   3.479   4.489  11.004  0.4893  0.2367  0.5503
 6418TIP3    H243450   3.524   4.351  10.964  0.6874  0.7832 -1.2123
 6419TIP3   OH243451   0.867   3.837  11.938  0.1144 -0.2678 -0.4734
 6419TIP3    H143452   0.927   3.845  11.863 -0.3787 -1.6039 -1.0472
 6419TIP3    H243453   0.912   3.777  11.998  1.6125  2.6202  1.5012
 6420TIP3   OH243454   2.825   6.575  12.876 -1.2138 -0.1215 -0.1783
 6420TIP3    H143455   2.750   6.635  12.883 -0.4597  0.8166 -0.0050
 6420TIP3    H243456   2.842   6.570  12.782 -0.6852  0.7022 -0.1368
 6421TIP3   OH243457   5.958   2.385  12.352 -0.0707 -0.3743 -0.7241
 6421TIP3    H143458   5.998   2.299  12.338  2.3197  0.7276 -1.1879
 6421TIP3    H243459   5.933   2.414  12.264  2.3701  0.7985 -1.1220
 6422TIP3   OH243460   2.853   1.273  11.560  0.0546 -0.2007 -0.1572
 6422TIP3    H143461   2.939   1.245  11.589  0.2191  0.3565 -0.0927
 6422TIP3    H243462   2.799   1.273  11.640  0.2116  0.2375 -0.0473
 6423TIP3   OH243463   2.394   0.546  11.876  0.4690  0.4558  0.3313
 6423TIP3    H143464   2.439   0.462  11.865 -0.2077  0.0426  0.6702
 6423TIP3    H243465   2.400   0.564  11.970 -2.0492 -0.7513  0.7932
 6424TIP3   OH243466   0.187   5.387  12.355  0.2716 -0.1635 -0.7510
 6424TIP3    H143467   0.255   5.372  12.420  1.2463 -0.3467 -1.7655
 6424TIP3    H243468   0.233   5.379  12.271 -1.2407 -1.5387 -1.5064
 6425TIP3   OH243469   5.857   0.272  10.569 -0.3524  0.0267  0.1716
 6425TIP3    H143470   5.809   0.253  10.488 -0.7138  1.3749  0.0541
 6425TIP3    H243471   5.807   0.342  10.611  0.9369  0.7335  0.5722
 6426TIP3   OH243472   3.875   3.814  11.678 -0.1351  0.0860  0.4410
 6426TIP3    H143473   3.941   3.766  11.729 -0.1414  1.6946  2.0733
 6426TIP3    H243474   3.926   3.855  11.608  0.4374  0.4219  1.0369
 6427TIP3   OH243475   4.032   7.371  12.396 -0.3192 -0.5733  0.1114
 6427TIP3    H143476   4.098   7.301  12.397  0.7215  0.3629  1.5132
 6427TIP3    H243477   4.000   7.374  12.486  0.3731  1.3623  0.3453
 6428TIP3   OH243478   2.019   5.777  11.093 -0.8767 -0.0534 -0.3455
 6428TIP3    H143479   1.946   5.794  11.152 -0.5527  0.4427 -0.0798
 6428TIP3    H243480   1.980   5.767  11.007 -1.4754 -1.7693  0.0875
 6429TIP3   OH243481   4.219   1.001  10.666 -0.1520 -0.2333  0.3948
 6429TIP3    H143482   4.307   0.964  10.667  0.4919  1.2183  0.0830
 6429TIP3    H243483   4.191   0.999  10.758  0.5913  0.1470  0.6337
 6430TIP3   OH243484   3.027   3.892  11.068  0.3822  0.0307  0.7199
 6430TIP3    H143485   3.028   3.800  11.041 -2.3655  0.1369 -0.0886
 6430TIP3    H243486   3.091   3.934  11.011  0.4939 -1.1290 -0.0439
 6431TIP3   OH243487   2.645   1.644  11.925 -0.0942  0.0265  0.3995
 6431TIP3    H143488   2.625   1.619  11.835 -0.5642  0.0290  0.5020
 6431TIP3    H243489   2.723   1.699  11.918  0.6782 -1.0586  0.1243
 6432TIP3   OH243490   0.396   5.532  10.814  0.4777  0.1911  0.6013
 6432TIP3    H143491   0.485   5.501  10.830  1.2985  0.7253 -2.3704
 6432TIP3    H243492   0.340   5.458  10.839  1.9233 -1.1559  0.0274
 6433TIP3   OH243493   6.246   4.684  10.751  0.1999  0.7055  0.1246
 6433TIP3    H143494   6.327   4.693  10.702  0.2485  0.0190  0.0772
 6433TIP3    H243495   6.232   4.590  10.759 -0.8119  0.8124 -0.2380
 6434TIP3   OH243496   6.162   2.307  11.278 -0.2363 -0.2042 -0.0513
 6434TIP3    H143497   6.113   2.358  11.343  2.3998 -0.9324  2.7794
 6434TIP3    H243498   6.172   2.221  11.318  1.6185 -0.6513 -1.3433
 6435TIP3   OH243499   0.516   4.702  11.930  0.5861  0.4099  1.0667
 6435TIP3    H143500   0.548   4.780  11.883 -0.3823  0.8285  1.0779
 6435TIP3    H243501   0.582   4.635  11.913  1.7012  1.3718  1.4756
 6436TIP3   OH243502   5.201   1.515  12.296 -0.2632 -0.5901  0.0600
 6436TIP3    H143503   5.283   1.493  12.251  0.1103 -0.4943  0.6835
 6436TIP3    H243504   5.182   1.604  12.267  0.6179 -0.0791  1.0071
 6437TIP3   OH243505   3.635   6.234  11.474  0.1723  0.2521  0.5391
 6437TIP3    H143506   3.545   6.244  11.444  0.1568 -0.2841  0.3888
 6437TIP3    H243507   3.644   6.139  11.489  0.8115  0.2621  0.2285
 6438TIP3   OH243508   3.223   6.788  11.571 -0.0818  0.2306 -0.0146
 6438TIP3    H143509   3.280   6.864  11.560 -1.0518  0.8444 -1.0479
 6438TIP3    H243510   3.208   6.783  11.666  0.0685  1.2851  0.0827
 6439TIP3   OH243511   5.418   3.575  12.576 -0.1888  0.3448 -0.4078
 6439TIP3    H143512   5.379   3.571  12.663 -1.5547 -0.5901 -1.0215
 6439TIP3    H243513   5.483   3.645  12.582  0.0669  0.0083  1.4696
 6440TIP3   OH243514   4.694   6.607  11.232 -0.2504  0.1168 -0.1633
 6440TIP3    H143515   4.647   6.525  11.220  0.5060 -0.1914 -1.1553
 6440TIP3    H243516   4.761   6.586  11.297 -1.4095  0.5510  1.2342
 6441TIP3   OH243517   7.068   7.272  12.333  0.6304 -0.1361  0.0280
 6441TIP3    H143518   7.096   7.315  12.414  1.7311  0.4361 -0.6347
 6441TIP3    H243519   6.982   7.309  12.315  0.6818  0.2640  0.5590
 6442TIP3   OH243520   5.534   1.016  12.765  0.0106 -0.3528  0.4225
 6442TIP3    H143521   5.488   0.934  12.786  0.1653 -0.7399 -0.6822
 6442TIP3    H243522   5.621   0.988  12.738 -0.0428  0.1495 -0.2886
 6443TIP3   OH243523   0.624   5.919  11.421  0.0350  0.1798  0.1875
 6443TIP3    H143524   0.672   5.989  11.465  1.6556 -1.3451  0.9967
 6443TIP3    H243525   0.692   5.871  11.372 -0.7276 -1.7030  0.8804
 6444TIP3   OH243526   3.880   7.565  12.619  0.4970  0.1213 -0.2580
 6444TIP3    H143527   3.821   7.568  12.694  0.0366  1.7495 -0.6324
 6444TIP3    H243528   3.940   7.493  12.638 -0.1346 -0.0355  1.2632
 6445TIP3   OH243529   1.581   6.590  11.568 -0.5412  0.1778  0.4689
 6445TIP3    H143530   1.538   6.515  11.610  1.5720 -1.3515  0.1080
 6445TIP3    H243531   1.590   6.655  11.637  1.1494 -1.5378  1.9658
 6446TIP3   OH243532   7.509   2.399  10.257 -0.6966  0.2171  0.1289
 6446TIP3    H143533   7.443   2.341  10.295 -0.2412  0.8924  2.0404
 6446TIP3    H243534   7.482   2.487  10.284  0.4835  0.5843  0.1598
 6447TIP3   OH243535   7.167   5.672  11.112  0.8215 -0.1313 -0.0809
 6447TIP3    H143536   7.162   5.724  11.031 -0.3713  0.1913  0.1694
 6447TIP3    H243537   7.084   5.691  11.157 -0.1976 -3.0460 -0.4686
 6448TIP3   OH243538   0.013   4.071  11.692  0.2638  0.8185 -0.3772
 6448TIP3    H143539   0.027   4.050  11.600 -0.9304  1.0250 -0.6243
 6448TIP3    H243540   0.019   3.986  11.737  0.5933  0.6802 -0.6833
 6449TIP3   OH243541   6.520   0.733  12.613 -0.1773 -0.0010 -0.1838
 6449TIP3    H143542   6.491   0.646  12.641 -0.9987 -0.5644 -2.5306
 6449TIP3    H243543   6.561   0.771  12.691  0.7944 -2.7293  0.7582
 6450TIP3   OH243544   3.957   5.716  11.068 -0.5062  0.4790 -0.4756
 6450TIP3    H143545   4.000   5.650  11.121  1.4909  0.5007 -1.9520
 6450TIP3    H243546   3.948   5.792  11.125  2.4749  0.8412 -0.3705
 6451TIP3   OH243547   2.350   5.477  11.560  0.1066  1.1636 -0.0977
 6451TIP3    H143548   2.403   5.554  11.541  0.6827  0.6732 -0.4955
 6451TIP3    H243549   2.351   5.470  11.656  0.1870  1.5530 -0.0714
 6452TIP3   OH243550   1.169   4.574  11.639  0.0277  0.4688 -0.0414
 6452TIP3    H143551   1.136   4.565  11.550 -2.5504 -1.6161  0.9726
 6452TIP3    H243552   1.249   4.522  11.641 -0.0013  0.3674 -1.1024
 6453TIP3   OH243553   4.864   2.604  13.200  0.1101 -0.2021  0.4813
 6453TIP3    H143554   4.772   2.592  13.222 -0.6543  0.6043 -1.9073
 6453TIP3    H243555   4.894   2.517  13.173 -0.2158 -0.2850  0.3822
 6454TIP3   OH243556   6.335   2.336  12.469  0.0377 -0.3652  0.0645
 6454TIP3    H143557   6.347   2.423  12.431  1.5044  0.1144  1.5260
 6454TIP3    H243558   6.421   2.295  12.463 -0.6280 -1.7360 -0.5752
 6455TIP3   OH243559   4.243   0.488  13.430 -0.4991  0.7615  0.9823
 6455TIP3    H143560   4.154   0.514  13.451 -1.0386 -1.0997  1.1580
 6455TIP3    H243561   4.298   0.542  13.486 -1.5363  1.6311  1.1772
 6456TIP3   OH243562   2.697   1.514  12.906  0.4779  0.3787 -0.0179
 6456TIP3    H143563   2.725   1.427  12.936 -0.5998  0.2150  0.5477
 6456TIP3    H243564   2.747   1.528  12.825  0.9158 -0.6209  0.0587
 6457TIP3   OH243565   3.343   3.548  12.514 -0.0983 -0.0542 -0.3272
 6457TIP3    H143566   3.326   3.641  12.502  1.0119  0.1203 -0.6423
 6457TIP3    H243567   3.271   3.517  12.568  1.0681  1.6254  2.3702
 6458TIP3   OH243568   0.063   6.025  11.873  0.0889  0.2283 -0.8028
 6458TIP3    H143569  -0.020   5.999  11.914  0.6796 -1.3021 -0.5141
 6458TIP3    H243570   0.096   5.944  11.833  1.1732  0.9444 -1.3974
 6459TIP3   OH243571   0.119   4.541  10.938 -0.1467 -0.0719  0.1167
 6459TIP3    H143572   0.190   4.482  10.964  0.3294  1.3708  2.3833
 6459TIP3    H243573   0.046   4.482  10.918  1.1038 -1.5152 -0.4357
 6460TIP3   OH243574   2.232   6.156  10.676  0.0011  0.0529  0.3919
 6460TIP3    H143575   2.295   6.186  10.741  0.4972  1.1038 -0.5513
 6460TIP3    H243576   2.177   6.094  10.724 -1.3617  2.7266  2.5805
 6461TIP3   OH243577   5.726   5.573  11.412  0.0565  0.2859 -0.3431
 6461TIP3    H143578   5.745   5.545  11.323 -2.6654 -1.9297 -0.3777
 6461TIP3    H243579   5.749   5.498  11.467  1.5768  1.5703  0.8771
 6462TIP3   OH243580   7.517   3.633  11.266 -0.5517  0.4982 -0.6486
 6462TIP3    H143581   7.433   3.658  11.305 -0.7773 -1.2159  0.0294
 6462TIP3    H243582   7.582   3.655  11.333 -0.6281  0.2771 -0.5032
 6463TIP3   OH243583   0.571   2.186  12.612  0.0165 -0.0960  0.2049
 6463TIP3    H143584   0.493   2.213  12.661  0.3813 -1.2442  1.4565
 6463TIP3    H243585   0.623   2.266  12.606 -0.0786  0.1011  1.6308
 6464TIP3   OH243586   2.630   5.331  12.401 -0.4115 -0.2075  0.0619
 6464TIP3    H143587   2.640   5.390  12.327  1.4312 -1.7556 -1.0218
 6464TIP3    H243588   2.539   5.302  12.396 -0.1483 -0.8555 -2.1261
 6465TIP3   OH243589   1.719   1.663  11.291  0.1997  0.3217 -0.2201
 6465TIP3    H143590   1.708   1.711  11.373 -1.1670 -0.3113 -0.0073
 6465TIP3    H243591   1.779   1.716  11.240  1.0403  0.7634  1.1615
 6466TIP3   OH243592   1.923   7.418  11.849 -0.4060 -0.2578  0.1119
 6466TIP3    H143593   1.946   7.339  11.897 -2.3390 -0.0511  1.4795
 6466TIP3    H243594   1.994   7.428  11.785  0.6980 -2.1973  0.9307
 6467TIP3   OH243595   1.144   2.074  11.053 -0.2676 -0.4548  0.0579
 6467TIP3    H143596   1.208   2.028  11.107 -0.5205 -0.8884 -0.0057
 6467TIP3    H243597   1.196   2.137  11.003  0.0473 -0.4820  0.3504
 6468TIP3   OH243598   2.311   4.438  12.669  0.3375 -0.1104 -0.1849
 6468TIP3    H143599   2.390   4.386  12.682  1.7889  1.5516 -1.7591
 6468TIP3    H243600   2.330   4.522  12.710 -0.7828  0.1924 -0.2481
 6469TIP3   OH243601   0.742   7.539  12.261 -0.3284  0.4796  0.2164
 6469TIP3    H143602   0.689   7.479  12.314 -0.9966  0.0682 -0.8639
 6469TIP3    H243603   0.736   7.623  12.306 -0.5555  0.0613  0.9891
 6470TIP3   OH243604   5.633   0.586  10.125  0.2956 -0.3864 -0.5305
 6470TIP3    H143605   5.696   0.551  10.189  0.7329  1.4931  0.1405
 6470TIP3    H243606   5.633   0.680  10.142 -1.7742 -0.2012 -1.3896
 6471TIP3   OH243607   0.541   0.466  12.020 -0.6315  0.0961  0.3532
 6471TIP3    H143608   0.635   0.481  12.025 -0.8302  1.4761  0.4305
 6471TIP3    H243609   0.502   0.553  12.033 -1.8549 -0.0932 -1.6615
 6472TIP3   OH243610   7.462   1.536  12.577  0.3461 -0.1477  0.2513
 6472TIP3    H143611   7.440   1.506  12.665 -0.0527 -1.0290 -0.1372
 6472TIP3    H243612   7.450   1.459  12.521  1.1623  0.2383 -0.4906
 6473TIP3   OH243613   0.352   6.487  11.512 -0.3923 -0.0655  0.0567
 6473TIP3    H143614   0.273   6.442  11.543 -0.4671 -0.9448 -1.3322
 6473TIP3    H243615   0.345   6.486  11.417  1.0878  0.2339 -0.0842
 6474TIP3   OH243616   7.088   1.603  10.659  0.9083 -0.3281 -0.7084
 6474TIP3    H143617   7.028   1.599  10.584  0.5784  0.0463 -0.4688
 6474TIP3    H243618   7.077   1.691  10.694 -1.2738 -1.3886  1.6586
 6475TIP3   OH243619   1.209   2.710  11.126  0.3834  0.4113 -0.2103
 6475TIP3    H143620   1.170   2.753  11.202 -0.5865 -0.8673  0.0574
 6475TIP3    H243621   1.189   2.617  11.139  1.6904 -0.0244 -1.1729
 6476TIP3   OH243622   1.739   0.216  11.404  0.3093 -0.1047  0.4505
 6476TIP3    H143623   1.779   0.210  11.490 -1.5459  0.8384  1.4343
 6476TIP3    H243624   1.658   0.266  11.418 -0.3871 -0.5069 -1.7104
 6477TIP3   OH243625   0.801   0.942  12.995 -0.1002  0.5447  0.6937
 6477TIP3    H143626   0.734   0.929  13.063  1.1429  0.2937  1.9263
 6477TIP3    H243627   0.884   0.921  13.039  0.6142 -1.5541 -1.4258
 6478TIP3   OH243628   6.323   1.747  10.912  0.2294 -0.3451  0.1010
 6478TIP3    H143629   6.328   1.828  10.861 -1.6237  0.0922  0.5054
 6478TIP3    H243630   6.279   1.685  10.854 -1.2189 -0.0664  0.8455
 6479TIP3   OH243631   5.297   1.559  10.500 -0.3377 -0.2834  0.1717
 6479TIP3    H143632   5.267   1.571  10.590  0.2855 -0.4850  0.4129
 6479TIP3    H243633   5.238   1.493  10.463  0.5392 -1.5825  1.0202
 6480TIP3   OH243634   6.397   2.042  12.115  0.0582  0.1242  0.2223
 6480TIP3    H143635   6.488   2.047  12.143  0.0298  0.7039  0.2268
 6480TIP3    H243636   6.363   2.131  12.129 -0.1917  0.2151 -0.8699
 6481TIP3   OH243637   3.517   1.071  10.516  0.6366 -0.2721  0.1483
 6481TIP3    H143638   3.528   0.978  10.539  2.0053 -0.4413 -1.0221
 6481TIP3    H243639   3.437   1.074  10.463 -1.2033 -0.2420  2.7598
 6482TIP3   OH243640   4.645   5.385  11.135 -0.2509 -0.3244 -0.4072
 6482TIP3    H143641   4.633   5.312  11.074 -0.2483  0.8544 -1.8838
 6482TIP3    H243642   4.673   5.458  11.079 -1.2773  1.0894  0.8510
 6483TIP3   OH243643   7.397   1.842  10.890  0.2767  0.2241  0.2373
 6483TIP3    H143644   7.477   1.837  10.837  0.2699 -0.5914  0.2826
 6483TIP3    H243645   7.352   1.920  10.859 -0.2967 -0.8395 -1.7866
 6484TIP3   OH243646   0.852   1.041  11.689  0.1419  0.1316 -0.1217
 6484TIP3    H143647   0.885   1.129  11.705  0.5955  0.2312 -1.4985
 6484TIP3    H243648   0.780   1.031  11.752  1.6415  0.5417  1.7485
 6485TIP3   OH243649   7.629   6.384  11.128 -0.6337 -0.8204  0.0969
 6485TIP3    H143650   7.684   6.317  11.169  0.1075  0.2080  0.8190
 6485TIP3    H243651   7.563   6.404  11.195 -1.4991 -1.5554 -0.5101
 6486TIP3   OH243652   2.141   6.170  12.644 -0.0538 -0.2094 -0.2081
 6486TIP3    H143653   2.172   6.228  12.574  3.0296 -2.3688 -0.8385
 6486TIP3    H243654   2.185   6.203  12.723 -0.8446  0.1910  0.0730
 6487TIP3   OH243655   4.292   0.036  11.384  0.2010  0.0379 -0.0620
 6487TIP3    H143656   4.263  -0.040  11.333  0.7717 -0.0023 -0.3316
 6487TIP3    H243657   4.211   0.072  11.421 -0.2149  0.0257 -0.9338
 6488TIP3   OH243658   1.728   2.937  12.455 -0.0947  0.5470 -0.3992
 6488TIP3    H143659   1.718   2.859  12.511 -1.2476  0.5932 -0.5213
 6488TIP3    H243660   1.814   2.925  12.414  0.6522  0.3475  1.1076
 6489TIP3   OH243661   4.344   5.035  12.120 -0.2306  0.0048  0.7005
 6489TIP3    H143662   4.415   5.041  12.056 -0.8995  0.3890 -0.0322
 6489TIP3    H243663   4.273   4.992  12.072 -0.1514 -1.3575  1.7374
 6490TIP3   OH243664   0.929   7.030  12.938 -0.5182  0.1013  0.0508
 6490TIP3    H143665   0.878   7.037  12.857  0.2911  0.0051 -0.4795
 6490TIP3    H243666   0.953   7.120  12.959  0.3650  0.0269 -0.5512
 6491TIP3   OH243667   3.502   7.648  10.606 -1.1074 -0.0802  0.0876
 6491TIP3    H143668   3.413   7.627  10.635 -1.7822  0.6664 -1.3491
 6491TIP3    H243669   3.503   7.743  10.600 -0.6469 -0.1579 -1.2035
 6492TIP3   OH243670   7.022   5.492  10.406  0.0224 -0.1587  0.6142
 6492TIP3    H143671   7.075   5.421  10.369  0.2687  0.2560  0.1636
 6492TIP3    H243672   6.983   5.535  10.330 -1.3876 -0.7723  0.9567
 6493TIP3   OH243673   0.035   6.221  10.223 -0.0628 -0.0473 -0.0961
 6493TIP3    H143674   0.047   6.135  10.263  1.6993  0.8419  1.4209
 6493TIP3    H243675   0.121   6.245  10.189 -0.5587  1.0643 -0.6311
 6494TIP3   OH243676   4.144   4.048  11.555 -0.3232  0.4150 -0.4693
 6494TIP3    H143677   4.181   4.095  11.480  0.4454 -0.0369 -0.3838
 6494TIP3    H243678   4.084   3.984  11.516  0.4351 -0.1459 -0.7452
 6495TIP3   OH243679   3.451   4.056  12.485 -0.1200  0.4062 -0.0364
 6495TIP3    H143680   3.485   4.037  12.572 -0.3534 -0.5566 -0.1347
 6495TIP3    H243681   3.524   4.095  12.438  0.3232 -0.0190  0.2878
 6496TIP3   OH243682   3.303   1.163  10.371 -0.0884 -0.5578  0.6180
 6496TIP3    H143683   3.364   1.205  10.311 -0.9080 -0.4516 -0.1666
 6496TIP3    H243684   3.227   1.221  10.372 -0.5357 -1.1397  0.8805
 6497TIP3   OH243685   7.645   7.163  11.928  0.4371  0.2671 -0.2239
 6497TIP3    H143686   7.575   7.100  11.946  0.0395  0.9607  0.7756
 6497TIP3    H243687   7.613   7.213  11.852  0.6091 -0.5043 -0.8133
 6498TIP3   OH243688   0.307   5.006  13.404 -0.1156  0.1785 -0.0654
 6498TIP3    H143689   0.238   5.068  13.382  0.2153  0.5496 -0.0701
 6498TIP3    H243690   0.262   4.924  13.419 -0.5323  0.3571 -0.3285
 6499TIP3   OH243691   2.542   0.224  11.072  0.1606 -0.2543 -0.1638
 6499TIP3    H143692   2.561   0.256  11.159  1.0253  1.7443 -1.0360
 6499TIP3    H243693   2.625   0.228  11.025 -0.5701  0.0871 -1.4913
 6500TIP3   OH243694   5.105   1.184  10.414 -0.2956  0.4052 -0.2747
 6500TIP3    H143695   5.187   1.149  10.448 -0.5652  1.2965  1.3755
 6500TIP3    H243696   5.119   1.278  10.408 -1.3498  0.6363  0.5590
 6501TIP3   OH243697   7.521   6.006  12.963 -0.3275 -0.5199 -0.1739
 6501TIP3    H143698   7.544   5.929  13.013 -1.5405 -0.1744  0.9809
 6501TIP3    H243699   7.520   6.077  13.027  1.6972  0.6847 -1.3733
 6502TIP3   OH243700   1.615   5.154  12.103 -0.4374  0.1490  0.3078
 6502TIP3    H143701   1.654   5.085  12.049 -0.1946  0.6060 -0.1108
 6502TIP3    H243702   1.587   5.110  12.183  0.7967 -0.2217  0.5487
 6503TIP3   OH243703   6.114   3.652  10.532 -0.4968  0.1818 -0.0639
 6503TIP3    H143704   6.206   3.655  10.558 -0.2327  1.1635 -1.0180
 6503TIP3    H243705   6.112   3.695  10.446 -1.8782  0.3409  0.0229
 6504TIP3   OH243706   4.049   3.624  11.777  0.6727  0.1483 -0.4408
 6504TIP3    H143707   4.031   3.582  11.693 -0.6707 -0.1493 -0.0156
 6504TIP3    H243708   4.127   3.579  11.810  0.0519 -1.0775 -0.6166
 6505TIP3   OH243709   1.839   5.414  10.815 -0.1344  0.1783  0.1669
 6505TIP3    H143710   1.847   5.319  10.804 -1.4717  0.2819 -2.1838
 6505TIP3    H243711   1.810   5.425  10.906  2.3801 -1.4612  1.2621
 6506TIP3   OH243712   3.521   1.321  11.497  0.1772  0.2777 -0.1201
 6506TIP3    H143713   3.578   1.248  11.519  0.5201  0.8253  0.8875
 6506TIP3    H243714   3.494   1.305  11.407  3.0355  0.7139 -1.1434
 6507TIP3   OH243715   4.166   1.126  12.809 -0.1782 -0.1598 -0.2800
 6507TIP3    H143716   4.225   1.051  12.807  1.3979  1.0188 -2.1241
 6507TIP3    H243717   4.094   1.102  12.751 -1.5841 -1.5740  1.9169
 6508TIP3   OH243718   2.114   1.050  10.881  0.4666 -0.1424 -0.2074
 6508TIP3    H143719   2.066   1.098  10.814  1.4627 -0.0820 -0.8998
 6508TIP3    H243720   2.057   1.052  10.958 -0.1401  0.8896 -0.6657
 6509TIP3   OH243721   0.855   5.398  12.493 -0.3059  0.2900  0.2423
 6509TIP3    H143722   0.810   5.343  12.557 -2.2190  1.5548  0.0592
 6509TIP3    H243723   0.831   5.359  12.408 -3.4752  2.4875 -0.0333
 6510TIP3   OH243724   1.608   7.480  10.553  0.0051  0.5102 -0.2692
 6510TIP3    H143725   1.668   7.457  10.481  0.0567 -0.5715  0.1027
 6510TIP3    H243726   1.644   7.434  10.629 -1.3952 -0.3216 -0.0816
 6511TIP3   OH243727   3.373   4.825  11.301  0.3090 -0.6297  0.0294
 6511TIP3    H143728   3.369   4.852  11.209 -3.3358  0.5089  0.3730
 6511TIP3    H243729   3.456   4.862  11.333 -0.1129  2.2927 -1.8938
 6512TIP3   OH243730   3.362   6.316  12.734  0.0454  0.0257  0.5608
 6512TIP3    H143731   3.364   6.222  12.716 -0.6320  0.0289  0.4487
 6512TIP3    H243732   3.454   6.339  12.749  0.4828 -0.2859 -1.2806
 6513TIP3   OH243733   0.306   4.169  11.425  0.2657 -0.6522 -0.7411
 6513TIP3    H143734   0.311   4.225  11.503  3.3598 -1.5236 -0.1807
 6513TIP3    H243735   0.355   4.217  11.358 -0.2128 -1.0473 -1.3833
 6514TIP3   OH243736   3.240   1.992  11.446 -0.0200 -0.4304 -0.0011
 6514TIP3    H143737   3.197   2.076  11.467  0.1353 -0.1179 -0.8518
 6514TIP3    H243738   3.173   1.944  11.397 -0.5680 -1.3631  1.5994
 6515TIP3   OH243739   4.739   0.627  12.454  0.7240 -0.0132  0.2506
 6515TIP3    H143740   4.824   0.671  12.445  0.3312  0.5449 -1.0140
 6515TIP3    H243741   4.691   0.681  12.517 -0.0383  1.9514 -1.8581
 6516TIP3   OH243742   2.063   3.501  13.229 -0.1802 -1.1235 -0.4483
 6516TIP3    H143743   2.096   3.426  13.277 -1.0597 -1.2113  0.0393
 6516TIP3    H243744   1.969   3.486  13.221 -0.6818  0.6647  1.0967
 6517TIP3   OH243745   6.025   6.353  12.250 -0.6351  0.3542 -0.2109
 6517TIP3    H143746   6.029   6.347  12.155 -1.4943 -0.0412 -0.2342
 6517TIP3    H243747   6.091   6.418  12.273 -0.2963  0.3209 -1.0616
 6518TIP3   OH243748   3.129   2.387  12.209  0.2539 -0.6182  0.5404
 6518TIP3    H143749   3.063   2.457  12.210  0.0523 -0.7959  0.1881
 6518TIP3    H243750   3.163   2.384  12.298 -0.6182 -0.9006  0.8714
 6519TIP3   OH243751   6.415   5.887  11.713  0.4511 -0.1788 -0.0397
 6519TIP3    H143752   6.466   5.828  11.768  2.1336  2.8854  2.0352
 6519TIP3    H243753   6.357   5.932  11.774 -0.6655  0.4306 -1.4923
 6520TIP3   OH243754   0.631   0.789  10.970  0.4302  0.3211  0.2209
 6520TIP3    H143755   0.724   0.797  10.949  0.4567 -0.2053  0.1381
 6520TIP3    H243756   0.627   0.800  11.066  0.3732  2.0920  0.0589
 6521TIP3   OH243757   1.149   0.004  12.004 -0.5466 -0.3129  0.2529
 6521TIP3    H143758   1.072  -0.051  11.996 -0.6253 -0.0430 -1.2453
 6521TIP3    H243759   1.115   0.094  12.007 -0.3777 -0.2739  1.7936
 6522TIP3   OH243760   3.315   2.628  10.727  0.2605  0.3278 -0.8785
 6522TIP3    H143761   3.294   2.618  10.820  2.4821 -3.0260 -0.5551
 6522TIP3    H243762   3.342   2.720  10.718  0.2736  0.6717  1.8496
 6523TIP3   OH243763   7.325   5.255  11.238  0.1602 -0.2378  0.5887
 6523TIP3    H143764   7.241   5.240  11.195  1.2931 -0.9335 -1.5175
 6523TIP3    H243765   7.329   5.350  11.249 -0.1177  0.0011 -1.0834
 6524TIP3   OH243766   6.408   6.710  11.332 -0.0394 -0.2855 -0.1187
 6524TIP3    H143767   6.364   6.756  11.403 -0.3494  0.4684 -0.7875
 6524TIP3    H243768   6.338   6.662  11.287 -0.0400  0.2005 -0.6408
 6525TIP3   OH243769   4.610   0.077  11.279 -0.1280 -0.2173 -0.0665
 6525TIP3    H143770   4.591  -0.005  11.324 -0.3328  1.5016  3.3071
 6525TIP3    H243771   4.704   0.076  11.265  0.2090 -0.2506  1.8563
 6526TIP3   OH243772   6.249   2.600  12.986 -0.1098 -0.3591 -0.0117
 6526TIP3    H143773   6.197   2.679  12.971  0.9686  0.1717 -1.2341
 6526TIP3    H243774   6.337   2.633  13.004  0.6081 -1.2675 -1.6427
 6527TIP3   OH243775   5.748   2.166  12.377  0.4829 -0.0542 -0.2539
 6527TIP3    H143776   5.706   2.210  12.451  1.7911  0.3706  0.2609
 6527TIP3    H243777   5.720   2.216  12.301 -2.8045 -1.8658 -0.4375
 6528TIP3   OH243778   2.569   4.570  11.038  0.3018  0.1454  0.4840
 6528TIP3    H143779   2.657   4.607  11.044 -0.2045  1.3396  0.7279
 6528TIP3    H243780   2.577   4.483  11.078  1.6814 -0.3474 -0.7813
 6529TIP3   OH243781   3.906   7.073  11.786 -0.0042  0.2456  0.1895
 6529TIP3    H143782   3.939   7.162  11.778  0.9952  0.1213  2.1746
 6529TIP3    H243783   3.849   7.075  11.863  0.9109 -1.0043  0.9615
 6530TIP3   OH243784   0.977   2.600  11.548 -0.4920  0.3672 -0.4599
 6530TIP3    H143785   0.989   2.521  11.495 -1.7786 -0.0606 -0.1550
 6530TIP3    H243786   0.883   2.616  11.547 -0.2063  2.3965 -1.1889
 6531TIP3   OH243787   1.197   4.161  11.274  0.0002  0.0780 -0.4521
 6531TIP3    H143788   1.164   4.129  11.189 -2.4465  1.6396 -0.1960
 6531TIP3    H243789   1.147   4.241  11.290  2.1847  1.1776  1.3415
 6532TIP3   OH243790   4.982   3.479  12.704 -0.1364  0.2275 -0.0582
 6532TIP3    H143791   5.051   3.453  12.643  1.8193  0.7883  1.7926
 6532TIP3    H243792   4.969   3.403  12.760 -0.2194  0.4796  0.2728
 6533TIP3   OH243793   3.516   6.509  12.937 -0.0559  0.0856  0.2816
 6533TIP3    H143794   3.504   6.470  13.024  0.0913  0.5927  0.5366
 6533TIP3    H243795   3.458   6.585  12.938 -0.0115  0.1233 -0.0480
 6534TIP3   OH243796   1.574   6.149  11.374  0.3675  0.1025  0.3164
 6534TIP3    H143797   1.649   6.190  11.331 -0.7385  1.0183 -0.8248
 6534TIP3    H243798   1.605   6.126  11.461  2.3284 -0.6633 -0.5186
 6535TIP3   OH243799   3.853   0.060  10.626  0.0089  0.2343 -0.1349
 6535TIP3    H143800   3.894   0.145  10.636  0.1396  0.3565 -1.4365
 6535TIP3    H243801   3.780   0.060  10.687  0.7298  0.8033  0.7391
 6536TIP3   OH243802   7.334   2.638  11.121  0.2996  0.5786  0.1050
 6536TIP3    H143803   7.356   2.555  11.164  1.0216  1.0971  0.7583
 6536TIP3    H243804   7.374   2.705  11.176 -0.0130  1.3489 -0.5860
 6537TIP3   OH243805   6.084   5.410  12.938  0.2093 -0.6308  0.1521
 6537TIP3    H143806   6.081   5.453  12.852 -0.0680 -2.4015 -0.7539
 6537TIP3    H243807   6.002   5.436  12.981  0.5820  0.6799  0.1290
 6538TIP3   OH243808   2.788   5.567  12.824  0.4516  0.2412 -0.1633
 6538TIP3    H143809   2.808   5.510  12.898  2.0634  2.4606  1.2435
 6538TIP3    H243810   2.822   5.653  12.850 -2.7803  2.1746 -1.6805
 6539TIP3   OH243811   0.798   6.379  11.052  0.2240  0.0853 -0.2184
 6539TIP3    H143812   0.827   6.449  10.993 -0.3716 -0.1284 -0.7755
 6539TIP3    H243813   0.861   6.309  11.040  0.3197  0.1884 -0.3209
 6540TIP3   OH243814   6.432   7.075  11.897  0.2701  0.6936  0.6541
 6540TIP3    H143815   6.441   6.982  11.915 -0.2411  0.6628  0.7664
 6540TIP3    H243816   6.440   7.082  11.802  0.1057  0.5119  0.6267
 6541TIP3   OH243817   3.962   3.585  11.272 -0.3910  0.7241 -0.0421
 6541TIP3    H143818   3.960   3.670  11.227  0.3941  0.5774 -0.3595
 6541TIP3    H243819   3.995   3.524  11.207 -0.6211  0.2303  0.2955
 6542TIP3   OH243820   1.711   4.924  11.281 -0.6125  0.4014  0.3691
 6542TIP3    H143821   1.642   4.882  11.229 -0.1398  0.4069 -0.2749
 6542TIP3    H243822   1.733   5.004  11.233  1.0322 -0.4494 -0.3718
 6543TIP3   OH243823   3.824   2.393  11.171 -0.4688 -0.2551  0.3274
 6543TIP3    H143824   3.876   2.378  11.250 -0.5463 -0.7142  0.2913
 6543TIP3    H243825   3.825   2.310  11.125 -1.8786 -0.5082  0.7089
 6544TIP3   OH243826   1.350   2.500  10.949  0.1820 -0.1178  0.1503
 6544TIP3    H143827   1.362   2.532  10.860  0.7967 -1.7425 -0.3871
 6544TIP3    H243828   1.375   2.574  11.004 -0.1097  0.8823 -1.0048
 6545TIP3   OH243829   1.234   1.063  11.703 -0.2319 -0.5300  0.0078
 6545TIP3    H143830   1.258   1.151  11.672 -0.2756 -0.4971  0.0678
 6545TIP3    H243831   1.204   1.077  11.793 -0.6206 -0.5476 -0.1163
 6546TIP3   OH243832   0.165   2.146  11.237  0.2485  0.0565  0.5285
 6546TIP3    H143833   0.142   2.101  11.155  0.8556 -1.3255  1.0903
 6546TIP3    H243834   0.261   2.150  11.235  0.2580  0.0875  1.1288
 6547TIP3   OH243835   3.422   6.145  11.868 -0.0049  0.1452 -0.2835
 6547TIP3    H143836   3.333   6.176  11.851 -0.0864  0.4517  0.6630
 6547TIP3    H243837   3.461   6.212  11.923  0.9195  0.1536 -0.9160
 6548TIP3   OH243838   5.470   2.319  10.902 -0.1510  0.4795 -0.6691
 6548TIP3    H143839   5.403   2.274  10.852 -1.1526  1.2268 -0.0438
 6548TIP3    H243840   5.517   2.372  10.837  0.4124 -0.6936 -1.2434
 6549TIP3   OH243841   6.865   2.156  12.766  0.1001  0.1876 -0.1743
 6549TIP3    H143842   6.788   2.131  12.715 -1.0100  0.7265  1.1493
 6549TIP3    H243843   6.888   2.243  12.733 -1.5668  1.2161  1.1969
 6550TIP3   OH243844   1.342   0.658  10.861  0.1722  0.3039 -0.1093
 6550TIP3    H143845   1.289   0.738  10.863 -0.8074 -0.3353 -0.0078
 6550TIP3    H243846   1.305   0.606  10.789 -0.5210 -0.9165  1.0722
 6551TIP3   OH243847   1.873   2.676  12.818 -0.4373 -0.1210 -0.2468
 6551TIP3    H143848   1.925   2.644  12.745  0.0212 -0.4187  0.2027
 6551TIP3    H243849   1.793   2.711  12.778 -0.5424 -0.9904 -0.8228
 6552TIP3   OH243850   3.589   6.092  12.415  0.0116 -0.1366 -0.0812
 6552TIP3    H143851   3.673   6.137  12.426 -0.0316 -0.3691  1.4002
 6552TIP3    H243852   3.610   5.999  12.427 -0.3249 -0.2771 -0.5632
 6553TIP3   OH243853   2.367   0.494  11.456  0.0611  0.2396  0.1876
 6553TIP3    H143854   2.296   0.509  11.519  2.3399  1.1939  2.7405
 6553TIP3    H243855   2.408   0.580  11.445 -0.1585  0.0766 -2.6280
 6554TIP3   OH243856   5.414   0.754  12.407  0.5896  0.1557 -0.3330
 6554TIP3    H143857   5.362   0.714  12.338  0.9338 -0.0685 -0.4667
 6554TIP3    H243858   5.495   0.702  12.410 -0.2678 -1.2034  1.6832
 6555TIP3   OH243859   6.811   6.186  12.263  0.3960  0.5310 -0.6290
 6555TIP3    H143860   6.870   6.251  12.300  0.2324 -0.3160  1.2405
 6555TIP3    H243861   6.723   6.220  12.281  0.2840 -0.7015  1.4711
 6556TIP3   OH243862   5.455   0.218  12.938  0.8505  0.1040  0.2688
 6556TIP3    H143863   5.371   0.265  12.932  1.0675  0.5973  0.9102
 6556TIP3    H243864   5.521   0.286  12.927  1.1900 -0.4298 -1.2215
 6557TIP3   OH243865   5.411   4.086  12.227 -0.0841 -0.7579  0.2544
 6557TIP3    H143866   5.502   4.070  12.252 -0.2771 -0.6354  1.0507
 6557TIP3    H243867   5.390   4.171  12.267  0.5325  1.0301 -2.8039
 6558TIP3   OH243868   5.452   3.157  11.080 -0.1086  0.4916 -0.5970
 6558TIP3    H143869   5.502   3.193  11.153  2.1115  0.7202 -2.1326
 6558TIP3    H243870   5.453   3.063  11.095  1.3616  0.4341 -0.8988
 6559TIP3   OH243871   1.905   5.611  11.361 -0.1310 -0.2412  0.1736
 6559TIP3    H143872   1.870   5.637  11.276  0.0301  0.8798  0.4340
 6559TIP3    H243873   1.942   5.524  11.347  0.1009  0.0292 -0.9541
 6560TIP3   OH243874   2.846   2.683  10.714 -0.5527 -0.2733 -0.5915
 6560TIP3    H143875   2.922   2.737  10.732 -0.5224  0.5138 -2.8043
 6560TIP3    H243876   2.882   2.597  10.693 -0.3879 -0.3051 -0.1872
 6561TIP3   OH243877   0.196   3.084  11.535 -0.2058 -0.0166 -0.5243
 6561TIP3    H143878   0.242   3.041  11.607  0.0385  0.3773 -0.4452
 6561TIP3    H243879   0.175   3.171  11.569 -0.8257 -0.1167 -0.6327
 6562TIP3   OH243880   5.996   2.220  11.014  0.2088 -0.0364 -0.3056
 6562TIP3    H143881   6.032   2.242  11.100 -0.8092 -0.5339  0.2746
 6562TIP3    H243882   5.902   2.231  11.025 -0.0070 -0.9932 -1.0918
 6563TIP3   OH243883   0.621   1.424  10.766  0.0706  0.4286 -0.1803
 6563TIP3    H143884   0.664   1.505  10.792  1.5082 -0.8458  1.7815
 6563TIP3    H243885   0.692   1.368  10.735 -0.8008 -0.2665 -0.9795
 6564TIP3   OH243886   0.218   3.711  11.086  0.0566 -0.5569 -0.1402
 6564TIP3    H143887   0.228   3.616  11.084 -0.4733 -0.7210  2.1803
 6564TIP3    H243888   0.144   3.729  11.028 -0.8877 -1.7621  0.6494
 6565TIP3   OH243889   5.035   5.741  10.895  0.1162  0.1391 -0.2800
 6565TIP3    H143890   5.053   5.674  10.961  1.6484 -1.0030 -1.7786
 6565TIP3    H243891   5.120   5.778  10.874 -0.4585  1.1049 -0.9812
 6566TIP3   OH243892   1.789   2.071  12.702 -0.1759 -0.1928 -0.4953
 6566TIP3    H143893   1.741   2.049  12.782 -0.0323  1.5728  0.1199
 6566TIP3    H243894   1.737   2.140  12.661  0.4270 -0.1822 -1.2627
 6567TIP3   OH243895   3.017   5.511  12.237 -0.8416 -0.1103 -0.3352
 6567TIP3    H143896   3.054   5.431  12.274  0.5691  0.5686 -0.2209
 6567TIP3    H243897   2.926   5.511  12.266 -0.3731 -0.7586  1.2076
 6568TIP3   OH243898   2.780   3.165  12.262 -0.0098  0.6893 -0.3336
 6568TIP3    H143899   2.806   3.202  12.347 -0.1358 -0.3556  0.1809
 6568TIP3    H243900   2.686   3.151  12.270  0.3345 -1.8293  0.3829
 6569TIP3   OH243901   3.574   1.218  12.588  0.4210 -0.4175  0.3881
 6569TIP3    H143902   3.507   1.249  12.649  2.1891 -0.5248  2.4952
 6569TIP3    H243903   3.609   1.299  12.550  0.8428 -0.1892  1.2392
 6570TIP3   OH243904   4.534   2.793  11.170  0.2296 -0.3317 -0.2488
 6570TIP3    H143905   4.570   2.784  11.259  0.8445  2.1652 -0.1683
 6570TIP3    H243906   4.610   2.787  11.113  0.4801  2.1832 -0.2692
 6571TIP3   OH243907   7.527   0.724  11.313 -0.0010  0.1125 -0.0822
 6571TIP3    H143908   7.495   0.638  11.343  1.5816 -0.8772 -1.0930
 6571TIP3    H243909   7.492   0.786  11.378 -6.4241 -0.2531 -2.4753
 6572TIP3   OH243910   6.010   2.151  11.981 -0.3821  0.2331 -0.3796
 6572TIP3    H143911   6.016   2.103  11.898 -0.6303 -0.4581 -0.0107
 6572TIP3    H243912   5.975   2.087  12.043 -2.4757  1.4081 -0.2690
 6573TIP3   OH243913   1.879   3.246  12.825  0.4193 -0.2794  0.0005
 6573TIP3    H143914   1.919   3.229  12.910  1.5484  0.0012 -0.4411
 6573TIP3    H243915   1.826   3.325  12.838  2.7239  1.4237 -0.1165
 6574TIP3   OH243916   7.587   7.506  12.058 -0.0397 -0.8524  0.3945
 6574TIP3    H143917   7.619   7.449  12.128 -0.2094 -0.5749  0.7038
 6574TIP3    H243918   7.653   7.501  11.990 -0.4853 -2.1415  0.0232
 6575TIP3   OH243919   0.441   1.651  11.038  0.1757  0.4349 -0.0904
 6575TIP3    H143920   0.470   1.560  11.034 -1.2832 -0.0473 -0.3957
 6575TIP3    H243921   0.354   1.650  10.998 -0.5331  1.6728  1.3161
 6576TIP3   OH243922   2.634   5.259  12.069  0.3281  0.1128 -0.4259
 6576TIP3    H143923   2.677   5.295  11.991 -2.2001  3.1032 -0.6316
 6576TIP3    H243924   2.559   5.317  12.084 -0.9532 -2.0659  2.5760
 6577TIP3   OH243925   4.908   2.093  12.598  0.2733  0.2719 -0.2498
 6577TIP3    H143926   4.946   2.162  12.653 -0.8117  1.2753 -0.7220
 6577TIP3    H243927   4.906   2.131  12.510 -0.3972 -0.3292 -0.5014
 6578TIP3   OH243928   2.615   3.545  11.268  0.6485 -0.9034 -0.3100
 6578TIP3    H143929   2.588   3.557  11.359 -0.1534 -0.2140 -0.6227
 6578TIP3    H243930   2.678   3.616  11.252  0.0950 -0.4529 -0.5459
 6579TIP3   OH243931   3.760   5.382  11.955  0.6870  0.0717  0.0289
 6579TIP3    H143932   3.801   5.370  11.869  0.1866 -2.1639  0.0553
 6579TIP3    H243933   3.712   5.465  11.947  3.2464  1.5989 -0.7519
 6580TIP3   OH243934   0.130   6.769  11.898  0.2297  0.2015 -0.0081
 6580TIP3    H143935   0.195   6.779  11.828 -1.8798 -1.3206 -2.3941
 6580TIP3    H243936   0.155   6.689  11.943 -1.4319 -2.1942 -2.9173
 6581TIP3   OH243937   3.567   2.056  11.170  0.1160  0.4286 -0.3259
 6581TIP3    H143938   3.573   2.119  11.243  0.7351 -0.5574  0.5034
 6581TIP3    H243939   3.536   1.976  11.211  0.3136 -0.0964 -1.1931
 6582TIP3   OH243940   2.169   2.410  10.818 -0.8260 -0.4289 -0.0379
 6582TIP3    H143941   2.159   2.404  10.913  1.4239 -1.9382  0.1697
 6582TIP3    H243942   2.231   2.481  10.804  0.0626 -1.2314 -0.2549
 6583TIP3   OH243943   0.880   6.677  11.084  0.5863  0.0482 -0.2414
 6583TIP3    H143944   0.963   6.657  11.127  0.6563 -0.6287 -0.6744
 6583TIP3    H243945   0.822   6.703  11.155  1.1359  0.4204  0.0767
 6584TIP3   OH243946   3.084   4.277  12.874 -0.6063 -0.0169 -0.1337
 6584TIP3    H143947   3.028   4.352  12.895 -0.7462  0.0485 -0.7318
 6584TIP3    H243948   3.141   4.268  12.951  0.2237  1.4394 -0.5403
 6585TIP3   OH243949   1.193   2.359  11.174 -0.3218 -0.3397  0.4593
 6585TIP3    H143950   1.239   2.362  11.090  0.4218 -0.1471  0.8597
 6585TIP3    H243951   1.263   2.350  11.239 -0.7325  1.3051  1.1947
 6586TIP3   OH243952   5.030   3.931  13.376 -0.2566 -0.3619 -0.1756
 6586TIP3    H143953   5.046   4.022  13.400 -0.0384 -0.4767  0.1266
 6586TIP3    H243954   5.101   3.908  13.316  0.6412 -0.8166  1.0217
 6587TIP3   OH243955   5.150   3.081  11.864  0.3816  0.8790  0.0161
 6587TIP3    H143956   5.118   3.001  11.823 -0.5845  0.2525  1.8417
 6587TIP3    H243957   5.135   3.150  11.799 -1.9505  0.1102 -0.3515
 6588TIP3   OH243958   1.844   1.344  11.980  0.2654  0.0414  0.1253
 6588TIP3    H143959   1.795   1.425  11.987 -0.4216 -0.4506  1.4010
 6588TIP3    H243960   1.779   1.275  11.987  0.8309 -0.6438 -1.0086
 6589TIP3   OH243961   0.580   5.193  11.769 -0.2013 -0.2000 -0.5407
 6589TIP3    H143962   0.487   5.203  11.785 -0.0891  0.8970 -0.5197
 6589TIP3    H243963   0.606   5.273  11.724  0.7191 -0.5102 -0.5897
 6590TIP3   OH243964   1.843   5.140  10.842 -0.4201 -0.4464 -0.0623
 6590TIP3    H143965   1.935   5.118  10.852 -0.6628 -0.9649  1.4111
 6590TIP3    H243966   1.804   5.061  10.805 -0.3254 -0.3647 -0.3328
 6591TIP3   OH243967   1.927   4.637  11.185  0.5507  0.3704 -0.2544
 6591TIP3    H143968   1.970   4.721  11.170  0.0721  0.8142  0.7527
 6591TIP3    H243969   1.999   4.573  11.189  1.1164  1.0654  1.1681
 6592TIP3   OH243970   6.596   5.222  11.821 -0.0164 -0.6243 -0.2797
 6592TIP3    H143971   6.599   5.308  11.780  1.0829 -0.0246  0.9731
 6592TIP3    H243972   6.687   5.193  11.825 -0.0630 -0.6901  1.5698
 6593TIP3   OH243973   7.515   1.964  11.874  0.7421  0.7350 -0.2272
 6593TIP3    H143974   7.482   2.016  11.800  0.8643  0.5435 -0.4190
 6593TIP3    H243975   7.582   1.908  11.835 -1.4606 -1.7818 -0.6796
 6594TIP3   OH243976   4.106   5.144  12.584 -0.1833  0.1013  0.4113
 6594TIP3    H143977   4.028   5.091  12.570  1.0888 -1.7025 -0.3150
 6594TIP3    H243978   4.162   5.124  12.509  0.8437  1.6159  0.7311
 6595TIP3   OH243979   2.115   4.776  10.662  0.0421 -0.7492  0.1827
 6595TIP3    H143980   2.117   4.857  10.713 -1.4825 -0.2814 -0.4604
 6595TIP3    H243981   2.198   4.776  10.615 -0.4689  1.1073 -0.7983
 6596TIP3   OH243982   6.264   4.302  12.424 -0.0839 -0.6018  0.5400
 6596TIP3    H143983   6.225   4.382  12.460  0.3809 -0.5299  0.8870
 6596TIP3    H243984   6.323   4.271  12.493  0.3201 -0.8169  0.1019
 6597TIP3   OH243985   1.694   0.976  11.980 -0.3413  0.0946  0.0730
 6597TIP3    H143986   1.786   0.974  11.952 -0.4850  0.8555 -0.4943
 6597TIP3    H243987   1.645   0.951  11.902 -0.6021 -0.6579  0.4740
 6598TIP3   OH243988   6.819   1.175  12.003  0.2746 -0.3434 -0.4462
 6598TIP3    H143989   6.787   1.085  11.996 -0.0393 -0.2946  0.2142
 6598TIP3    H243990   6.832   1.188  12.097  1.8431 -0.2177 -0.6527
 6599TIP3   OH243991   4.268   5.656  12.956  0.2541 -0.1703 -0.1051
 6599TIP3    H143992   4.301   5.693  12.874 -0.6790 -1.1400 -0.9566
 6599TIP3    H243993   4.249   5.731  13.011  0.9349  0.4941 -0.7589
 6600TIP3   OH243994   5.415   6.396  11.286  0.2849  0.3009 -0.1024
 6600TIP3    H143995   5.340   6.359  11.334  1.2135  0.5782  1.6270
 6600TIP3    H243996   5.421   6.342  11.207 -1.2640 -0.2125  0.0974
 6601TIP3   OH243997   1.390   4.975  11.211 -0.4323  0.0991 -0.4679
 6601TIP3    H143998   1.298   4.954  11.197 -0.2446 -0.7917 -0.4149
 6601TIP3    H243999   1.402   4.969  11.305 -0.4860  0.9895 -0.3879
 6602TIP3   OH244000   1.729   3.443  10.895 -0.2834  0.5211  1.2864
 6602TIP3    H144001   1.759   3.375  10.955  1.1703 -0.7497 -0.7759
 6602TIP3    H244002   1.797   3.511  10.900 -0.0906  0.3514  0.9829
 6603TIP3   OH244003   7.206   1.336  12.774 -0.2046 -0.0270  0.1141
 6603TIP3    H144004   7.215   1.265  12.837 -1.7071 -0.6430 -0.3079
 6603TIP3    H244005   7.288   1.385  12.780  0.9702 -1.9361  0.2288
 6604TIP3   OH244006   0.722   0.650  10.314  0.4044  0.0304  0.1108
 6604TIP3    H144007   0.718   0.574  10.372 -1.9553 -0.7509 -0.9542
 6604TIP3    H244008   0.667   0.627  10.239  1.5359  1.8846 -1.3976
 6605TIP3   OH244009   6.800   5.591  12.105  0.0120 -1.0270  0.0058
 6605TIP3    H144010   6.797   5.521  12.040 -0.9187 -2.3876  1.4313
 6605TIP3    H244011   6.841   5.665  12.060  1.5312 -2.6415 -1.4124
 6606TIP3   OH244012   7.013   4.955  12.230  0.0008 -0.1434  0.1177
 6606TIP3    H144013   6.981   4.962  12.141  1.4333  2.6241 -0.2830
 6606TIP3    H244014   6.936   4.969  12.285 -0.4272  0.9189 -0.7296
 6607TIP3   OH244015   0.176   1.457  10.634  0.3302  0.5507  0.1565
 6607TIP3    H144016   0.161   1.374  10.680 -0.4062 -0.3714 -1.6309
 6607TIP3    H244017   0.108   1.459  10.567  1.1481  1.9856 -0.6660
 6608TIP3   OH244018   7.234   0.312  12.567  0.5383  0.4309 -0.2178
 6608TIP3    H144019   7.282   0.309  12.485 -0.1790 -0.8232 -0.6211
 6608TIP3    H244020   7.264   0.235  12.616  1.3141  1.4239  0.9227
 6609TIP3   OH244021   6.154   7.031  12.310 -0.7378  0.0252  0.1876
 6609TIP3    H144022   6.239   7.048  12.352 -1.2293 -0.5980  1.4725
 6609TIP3    H244023   6.113   6.964  12.364 -1.4358 -0.7794 -1.2844
 6610TIP3   OH244024   0.007   1.970  16.979 -0.0589 -1.0727 -0.5952
 6610TIP3    H144025  -0.056   1.904  16.948 -0.7312 -0.2475 -1.0437
 6610TIP3    H244026  -0.015   2.048  16.929 -0.2677 -0.0756  0.9873
 6611TIP3   OH244027   4.258   7.523  11.735 -0.4813 -0.3369 -0.1053
 6611TIP3    H144028   4.262   7.428  11.720 -1.8210 -0.4678  0.2983
 6611TIP3    H244029   4.349   7.552  11.728  0.0472 -1.7687  0.5504
 6612TIP3   OH244030   5.761   6.808  11.573  0.3882 -0.2831  0.0345
 6612TIP3    H144031   5.840   6.855  11.602 -0.1584  0.3384  0.5292
 6612TIP3    H244032   5.765   6.812  11.478  0.9431 -0.2385  0.0529
 6613TIP3   OH244033   6.810   4.961  11.015  0.3654  0.4466  0.1277
 6613TIP3    H144034   6.765   4.985  10.933 -1.5447  1.5789  1.4331
 6613TIP3    H244035   6.754   4.895  11.054  0.3715  1.1223  1.3052
 6614TIP3   OH244036   2.975   5.769  12.141  0.4056  0.2114  0.1524
 6614TIP3    H144037   3.021   5.810  12.215 -0.9939  0.2082  1.0542
 6614TIP3    H244038   2.991   5.675  12.152  0.2776  0.2183  0.4068
 6615TIP3   OH244039   3.905   3.493  10.859 -0.3305  0.1856 -0.3695
 6615TIP3    H144040   3.909   3.425  10.791 -0.8218  0.8799 -1.1018
 6615TIP3    H244041   3.830   3.467  10.913  0.5400 -0.8067  0.4072
 6616TIP3   OH244042   4.587   4.954  11.419 -0.2998  0.0099  0.5907
 6616TIP3    H144043   4.673   4.913  11.413 -0.5815 -0.3607 -1.3274
 6616TIP3    H244044   4.600   5.029  11.477  1.0744 -0.5910  1.0961
 6617TIP3   OH244045   1.183   6.657  10.595 -0.1872 -0.5312  0.3563
 6617TIP3    H144046   1.163   6.603  10.671 -1.5447 -0.6104 -0.0357
 6617TIP3    H244047   1.236   6.600  10.538  0.5707 -0.5696  1.0766
 6618TIP3   OH244048   6.525   5.844  13.261  0.3354  0.6525 -0.0025
 6618TIP3    H144049   6.568   5.871  13.342 -1.6182  1.4593  0.8497
 6618TIP3    H244050   6.596   5.823  13.201  1.8838  1.9567  1.2793
 6619TIP3   OH244051   1.073   2.786  10.695 -0.0995  0.1085 -0.2180
 6619TIP3    H144052   1.064   2.823  10.783 -1.6834 -1.9332  0.5741
 6619TIP3    H244053   1.025   2.846  10.639 -0.5239  0.5587  0.6000
 6620TIP3   OH244054   4.525   0.322  10.455 -0.4572  0.6178  0.3113
 6620TIP3    H144055   4.587   0.264  10.411  0.0516  1.3853 -0.0063
 6620TIP3    H244056   4.448   0.267  10.470 -0.1981  0.0112 -0.4711
 6621TIP3   OH244057   3.893   4.959  12.608  0.2319  0.0539 -0.2969
 6621TIP3    H144058   3.803   4.941  12.581  0.4200 -2.5024  0.4359
 6621TIP3    H244059   3.884   4.994  12.697 -0.0454 -0.0293 -0.2888
 6622TIP3   OH244060   3.600   4.340  12.135  0.2057 -0.0346 -0.2028
 6622TIP3    H144061   3.609   4.368  12.226 -0.3128  1.6792 -0.6357
 6622TIP3    H244062   3.508   4.313  12.128  0.6670 -1.8606  0.1754
 6623TIP3   OH244063   4.142   2.331  11.703  0.1869  0.5643  0.4466
 6623TIP3    H144064   4.157   2.425  11.695 -0.6800  0.6745 -0.0776
 6623TIP3    H244065   4.054   2.324  11.739 -0.1711 -0.0316 -0.4953
 6624TIP3   OH244066   3.677   4.500  11.505  0.3694  0.4560  0.0003
 6624TIP3    H144067   3.624   4.484  11.583  0.2699  1.1706  0.0850
 6624TIP3    H244068   3.637   4.444  11.438  0.6244 -0.3662  0.5188
 6625TIP3   OH244069   0.878   4.858  11.728 -0.0421  0.0708 -0.1843
 6625TIP3    H144070   0.933   4.933  11.753  0.0535 -0.4665  1.3497
 6625TIP3    H244071   0.906   4.788  11.787 -1.9860 -0.3812  0.2556
 6626TIP3   OH244072   6.263   1.818  12.717 -0.1422 -0.0104  0.3819
 6626TIP3    H144073   6.186   1.852  12.762 -0.8996 -0.8485 -0.2399
 6626TIP3    H244074   6.274   1.876  12.642  0.3117  0.5772  0.8949
 6627TIP3   OH244075   4.914   2.214  12.026 -0.3754  0.4283 -0.2575
 6627TIP3    H144076   4.953   2.265  12.097 -0.3763  0.0197  0.0374
 6627TIP3    H244077   4.854   2.275  11.983  1.4491  1.4571 -1.4960
 6628TIP3   OH244078   3.470   6.555  12.353  0.2715  0.0292  0.3404
 6628TIP3    H144079   3.489   6.495  12.281  1.1717  0.2601  0.3703
 6628TIP3    H244080   3.385   6.526  12.387 -0.3855  0.1676 -1.0719
 6629TIP3   OH244081   3.663   1.329  12.206 -0.4704  0.2488 -0.1414
 6629TIP3    H144082   3.632   1.249  12.163  0.0818  0.3369 -0.7272
 6629TIP3    H244083   3.588   1.388  12.205 -0.6495  0.0174 -0.4171
 6630TIP3   OH244084   0.417   0.720  12.093  0.0878  0.1061 -0.4055
 6630TIP3    H144085   0.337   0.698  12.141  1.2235 -0.7335  1.1886
 6630TIP3    H244086   0.479   0.747  12.161  1.3600  0.1092 -1.5404
 6631TIP3   OH244087   4.899   2.065  11.455 -0.2196  0.1532 -0.2546
 6631TIP3    H144088   4.842   2.097  11.386 -0.5414 -0.8438 -0.4691
 6631TIP3    H244089   4.854   2.088  11.537 -0.3305  0.4376 -0.3950
 6632TIP3   OH244090   0.996   2.528  10.614  0.4145  0.1740 -0.5234
 6632TIP3    H144091   1.052   2.494  10.684 -0.1469 -0.0122 -0.1609
 6632TIP3    H244092   1.026   2.618  10.601  0.3993  0.2698  0.0806
 6633TIP3   OH244093   0.249   7.219  13.260  0.4178  0.1768  0.4215
 6633TIP3    H144094   0.237   7.229  13.355 -0.3693  0.4868  0.2964
 6633TIP3    H244095   0.167   7.183  13.229  0.3759  0.8247 -0.2560
 6634TIP3   OH244096   0.111   6.906  10.373 -0.2773  0.0539 -0.7030
 6634TIP3    H144097   0.156   6.876  10.452  0.7360  2.1150 -0.4445
 6634TIP3    H244098   0.145   6.850  10.303 -0.8195 -1.4606  0.2084
 6635TIP3   OH244099   0.059   2.819  10.777  0.2262  0.1589  0.4575
 6635TIP3    H144100   0.137   2.874  10.777  0.6659 -0.4205 -0.7287
 6635TIP3    H244101  -0.008   2.873  10.735  0.3415  0.2146  0.3433
 6636TIP3   OH244102   5.914   7.079  12.844  0.1025  0.4079  0.3500
 6636TIP3    H144103   5.858   7.157  12.839  0.4730  0.6916  0.6219
 6636TIP3    H244104   5.854   7.008  12.870 -0.2488  0.5851  0.0224
 6637TIP3   OH244105   0.263   6.510  10.379 -0.8403  0.0131  0.4138
 6637TIP3    H144106   0.310   6.427  10.391 -1.7340 -0.6363 -0.4018
 6637TIP3    H244107   0.176   6.493  10.416 -0.7254  0.9102  1.1156
 6638TIP3   OH244108   1.282   7.229  11.427  0.4575 -0.2070  0.3301
 6638TIP3    H144109   1.368   7.255  11.394  2.3982 -1.2956  3.9659
 6638TIP3    H244110   1.271   7.139  11.397  2.4616 -1.3882  2.7964
 6639TIP3   OH244111   0.688   0.596  13.323 -0.1748 -0.7741 -0.5659
 6639TIP3    H144112   0.747   0.573  13.394  0.0644  2.0306  0.2770
 6639TIP3    H244113   0.657   0.512  13.289 -0.2415 -2.2647  2.7846
 6640TIP3   OH244114   5.843   2.708  11.581  0.2055  0.5854  0.5633
 6640TIP3    H144115   5.913   2.701  11.645  0.7631 -1.2599 -0.1835
 6640TIP3    H244116   5.772   2.655  11.617 -0.6515  2.0305  1.0742
 6641TIP3   OH244117   5.764   5.012  11.028  0.2029 -0.3769  0.1360
 6641TIP3    H144118   5.794   5.089  10.980 -1.6596  0.7005  0.6099
 6641TIP3    H244119   5.724   4.956  10.962 -1.2768  0.5505  0.2127
 6642TIP3   OH244120   2.737   6.500  10.778  0.5000  0.2322  0.3210
 6642TIP3    H144121   2.657   6.509  10.726  1.2830  0.4917 -0.8932
 6642TIP3    H244122   2.707   6.468  10.863 -0.8215 -0.4590 -0.3633
 6643TIP3   OH244123   4.705   6.307  10.871 -0.3145 -0.3752  0.2369
 6643TIP3    H144124   4.799   6.304  10.854 -0.3524 -1.2524  0.1213
 6643TIP3    H244125   4.670   6.364  10.803  0.0476 -0.6014 -0.1404
 6644TIP3   OH244126   2.241   5.037  12.590 -0.0933 -0.4291 -1.0725
 6644TIP3    H144127   2.196   5.040  12.675 -0.1274  0.6820 -1.1062
 6644TIP3    H244128   2.241   4.945  12.565  0.6086 -0.8676  0.4955
 6645TIP3   OH244129   3.133   1.250  12.225  0.0702 -0.6001 -0.0219
 6645TIP3    H144130   3.099   1.339  12.223 -1.3841 -1.1269 -0.0006
 6645TIP3    H244131   3.174   1.243  12.312 -0.3801 -0.1466  0.2364
 6646TIP3   OH244132   3.249   1.908  12.466  0.3296 -0.2421 -0.5696
 6646TIP3    H144133   3.273   1.853  12.541  1.2863  0.7106 -0.1540
 6646TIP3    H244134   3.182   1.858  12.421 -2.5831  0.4340  2.5698
 6647TIP3   OH244135   3.635   1.413  11.009 -0.4867  0.2128 -0.4684
 6647TIP3    H144136   3.678   1.466  11.076  1.6363  0.4067 -1.8816
 6647TIP3    H244137   3.545   1.403  11.040 -0.0025  1.6337  1.5845
 6648TIP3   OH244138   3.770   6.132  10.846  0.2954  0.0040  0.5651
 6648TIP3    H144139   3.754   6.186  10.768  0.0729 -1.3147 -0.3454
 6648TIP3    H244140   3.733   6.046  10.823  0.5594 -0.5173  1.9941
 6649TIP3   OH244141   2.344   2.507  11.326  0.0671 -0.5857 -0.1462
 6649TIP3    H144142   2.298   2.473  11.403  1.3243  1.0461  1.4009
 6649TIP3    H244143   2.315   2.598  11.318  0.1158 -0.6609 -1.5224
 6650TIP3   OH244144   5.277   5.356  11.712 -0.0414  0.4208  0.1532
 6650TIP3    H144145   5.330   5.420  11.665  0.3565  0.5886  0.8265
 6650TIP3    H244146   5.201   5.405  11.742  1.1200  1.0609  2.2469
 6651TIP3   OH244147   0.473   5.972  11.742  0.5007  0.2932 -0.3963
 6651TIP3    H144148   0.418   5.932  11.674 -1.2434  0.1010  1.0596
 6651TIP3    H244149   0.546   5.912  11.753 -1.2482 -1.7618  0.6333
 6652TIP3   OH244150   4.234   1.991  13.110  0.4109 -0.5072  0.2049
 6652TIP3    H144151   4.324   2.002  13.141  0.5977 -2.2913  0.3696
 6652TIP3    H244152   4.192   2.075  13.130  1.6767 -0.0950  1.3279
 6653TIP3   OH244153   6.328   1.387  10.898 -0.2164  0.3427  0.2170
 6653TIP3    H144154   6.366   1.306  10.862  2.2562  1.6486 -0.3207
 6653TIP3    H244155   6.289   1.431  10.822 -1.4281 -0.2083  0.4851
 6654TIP3   OH244156   0.956   6.397  11.472 -0.7432 -0.2247 -0.2005
 6654TIP3    H144157   0.874   6.434  11.440  0.1611  0.5435 -1.7873
 6654TIP3    H244158   0.976   6.326  11.410 -0.6474 -0.9902  0.6898
 6655TIP3   OH244159   5.218   7.354  10.968 -0.4193  0.3131  0.3367
 6655TIP3    H144160   5.182   7.419  10.907 -0.7469  0.0634  0.2609
 6655TIP3    H244161   5.141   7.312  11.007 -0.2376 -0.8157 -0.4558
 6656TIP3   OH244162   6.907   1.077  10.871 -0.0693 -0.3203  0.2522
 6656TIP3    H144163   6.995   1.103  10.843  0.0733 -2.0627 -1.0721
 6656TIP3    H244164   6.865   1.045  10.792 -0.8423 -2.3595  1.4185
 6657TIP3   OH244165   4.854   7.309  10.402 -0.3669 -0.2718 -0.2598
 6657TIP3    H144166   4.781   7.355  10.361 -0.3733  0.4725  0.5627
 6657TIP3    H244167   4.931   7.363  10.382 -0.7407  1.6915  3.0196
 6658TIP3   OH244168   3.856   6.240  11.637  0.0020  0.0665 -0.0966
 6658TIP3    H144169   3.938   6.204  11.605  1.6104  1.4290  2.1488
 6658TIP3    H244170   3.787   6.191  11.591  2.0273 -2.7275 -0.3525
 6659TIP3   OH244171   4.251   0.294  10.781  0.3438  0.2613  0.2453
 6659TIP3    H144172   4.229   0.345  10.703  3.1608 -0.9034 -1.4613
 6659TIP3    H244173   4.291   0.357  10.841  0.9466  0.6324 -0.5403
 6660TIP3   OH244174   5.491   6.615  11.408 -0.0935  0.8270  0.1223
 6660TIP3    H144175   5.584   6.622  11.428  0.4566  1.7549 -2.4505
 6660TIP3    H244176   5.480   6.525  11.377  0.2604  1.1424 -0.9392
 6661TIP3   OH244177   3.337   0.387  10.664 -0.0311  0.6707 -0.9479
 6661TIP3    H144178   3.329   0.301  10.623  2.4482  0.7757 -1.8599
 6661TIP3    H244179   3.311   0.448  10.595 -3.3918  0.7452  0.1897
 6662TIP3   OH244180   4.046   3.097  11.676 -0.5116  0.1405 -0.7070
 6662TIP3    H144181   4.104   3.133  11.608 -0.0609 -2.0410 -1.5603
 6662TIP3    H244182   4.078   3.136  11.757  1.2220  0.1329 -1.3344
 6663TIP3   OH244183   6.822   1.559  11.521 -0.3196 -0.3489  0.1060
 6663TIP3    H144184   6.759   1.514  11.578 -0.3585 -1.8979 -1.0946
 6663TIP3    H244185   6.850   1.492  11.459 -0.3048  1.2701 -1.7172
 6664TIP3   OH244186   5.248   4.009  12.008 -0.4121 -0.5400 -0.3476
 6664TIP3    H144187   5.292   4.043  12.086  0.8613  0.4837 -1.4509
 6664TIP3    H244188   5.233   3.917  12.027 -0.8923 -0.1355  1.4160
 6665TIP3   OH244189   7.339   2.778  11.400 -1.1229 -0.1854  0.8560
 6665TIP3    H144190   7.314   2.810  11.486 -0.0594  0.9541  0.7686
 6665TIP3    H244191   7.350   2.684  11.411 -0.2173  0.0500  2.1750
 6666TIP3   OH244192   0.214   1.739  12.364  0.0109  0.1722  0.3320
 6666TIP3    H144193   0.138   1.685  12.385 -0.2836  0.3169 -0.3413
 6666TIP3    H244194   0.277   1.678  12.326 -0.7900  0.4592 -1.5960
 6667TIP3   OH244195   4.168   0.840  11.316  0.2169  0.1113  0.4807
 6667TIP3    H144196   4.182   0.900  11.389  2.2558 -1.1159  1.1945
 6667TIP3    H244197   4.246   0.849  11.262 -0.4472 -0.3121 -0.5807
 6668TIP3   OH244198   0.681   4.819  12.595 -0.5318 -0.2511  0.2765
 6668TIP3    H144199   0.599   4.863  12.617 -0.4152 -0.8077  1.9812
 6668TIP3    H244200   0.739   4.836  12.669  0.2202 -1.5143  0.0247
 6669TIP3   OH244201   4.344   0.146  12.329  0.0528 -0.2404  0.5132
 6669TIP3    H144202   4.260   0.111  12.357  0.4168 -0.2165  1.6872
 6669TIP3    H244203   4.339   0.148  12.234 -1.8841  1.2749  0.5881
 6670TIP3   OH244204   2.660   2.861  11.513 -0.5447 -0.2565  0.2656
 6670TIP3    H144205   2.582   2.917  11.505 -1.1906 -0.7114  2.7183
 6670TIP3    H244206   2.626   2.772  11.517  0.1362 -0.5055  0.7802
 6671TIP3   OH244207   4.311   6.462  11.041  0.2714 -0.1653 -0.4266
 6671TIP3    H144208   4.326   6.372  11.013  0.1180  0.2226 -1.8357
 6671TIP3    H244209   4.296   6.456  11.136  0.9105 -1.5292 -0.3926
 6672TIP3   OH244210   5.997   6.654  11.441 -0.4104  0.1681  0.4304
 6672TIP3    H144211   6.020   6.602  11.364 -0.7164  0.9249 -0.1890
 6672TIP3    H244212   6.018   6.744  11.416  0.0871  0.3549  1.4759
 6673TIP3   OH244213   0.986   6.051  12.080  0.1194 -0.5853 -0.7712
 6673TIP3    H144214   1.027   6.059  12.166  0.8138 -0.9085 -1.0619
 6673TIP3    H244215   0.905   6.101  12.087  0.4495 -0.1314 -0.1044
 6674TIP3   OH244216   2.705   7.532  11.770 -0.0855 -0.7362  0.2595
 6674TIP3    H144217   2.790   7.493  11.753  0.0336 -0.2150 -0.3947
 6674TIP3    H244218   2.723   7.602  11.833  0.3652  0.8417 -1.5339
 6675TIP3   OH244219   1.824   5.977  11.652 -1.0827  0.3751  0.0066
 6675TIP3    H144220   1.900   5.971  11.594 -0.5828 -0.1896  0.7126
 6675TIP3    H244221   1.760   5.918  11.614 -0.1171 -1.3567  0.9713
 6676TIP3   OH244222   4.641   7.608  10.582  0.0979 -0.1150 -1.0818
 6676TIP3    H144223   4.671   7.595  10.672  3.8500 -1.8508 -2.3884
 6676TIP3    H244224   4.634   7.703  10.573 -1.7006  0.0891  1.2974
 6677TIP3   OH244225   0.341   4.734  12.360  0.7267  0.1640  0.0290
 6677TIP3    H144226   0.291   4.811  12.333  1.0290  0.9817  1.6690
 6677TIP3    H244227   0.347   4.680  12.281 -0.4103  1.3103 -0.8846
 6678TIP3   OH244228   6.458   2.269  10.483 -0.4009  0.6271 -0.0481
 6678TIP3    H144229   6.395   2.304  10.547  1.0618 -0.1094  1.8897
 6678TIP3    H244230   6.506   2.346  10.453 -2.3602  1.2521 -1.8155
 6679TIP3   OH244231   7.450   6.907  10.380  0.5527 -0.0805  0.6572
 6679TIP3    H144232   7.487   6.933  10.296 -1.7928 -0.3062 -0.5072
 6679TIP3    H244233   7.502   6.831  10.407  1.2168 -0.1157 -0.6688
 6680TIP3   OH244234   7.473   3.807  10.525 -0.0103  0.1333  0.3336
 6680TIP3    H144235   7.423   3.866  10.468  1.7388  0.2871 -1.1485
 6680TIP3    H244236   7.408   3.750  10.564 -1.5157  1.4962 -0.0635
 6681TIP3   OH244237   0.109   0.608  11.199  0.2652  0.0803  0.8373
 6681TIP3    H144238   0.046   0.648  11.258  0.2923 -1.0680  1.6871
 6681TIP3    H244239   0.104   0.514  11.219  1.7299 -0.1058  0.4245
 6682TIP3   OH244240   0.461   6.884  12.122  0.1771 -0.2549 -0.3766
 6682TIP3    H144241   0.533   6.855  12.066  0.5115  2.0036 -1.2317
 6682TIP3    H244242   0.425   6.961  12.078 -1.9950 -0.5826  0.6565
 6683TIP3   OH244243   3.160   0.364  13.376 -0.0414 -0.0148 -0.1253
 6683TIP3    H144244   3.223   0.429  13.409 -0.4996  0.2057  0.3266
 6683TIP3    H244245   3.182   0.284  13.423 -0.1093  0.0666  0.0469
 6684TIP3   OH244246   6.766   1.622  10.518 -0.3896  0.8832  0.4062
 6684TIP3    H144247   6.728   1.642  10.604 -0.4718  1.6676  0.1952
 6684TIP3    H244248   6.770   1.706  10.474  0.2682  0.5830 -0.1216
 6685TIP3   OH244249   3.680   4.634  12.268 -0.1018 -0.1455 -0.1717
 6685TIP3    H144250   3.700   4.573  12.339 -2.7316 -1.0904 -0.1372
 6685TIP3    H244251   3.641   4.710  12.311  1.6508  0.9273 -0.3651
 6686TIP3   OH244252   1.963   3.872  12.802 -0.6067  0.1059  0.3251
 6686TIP3    H144253   1.954   3.776  12.800  0.2372 -0.0438 -3.3453
 6686TIP3    H244254   2.055   3.887  12.821 -0.1827 -0.0004 -1.4223
 6687TIP3   OH244255   0.129   0.315  10.898 -0.4433  0.5196 -0.8918
 6687TIP3    H144256   0.225   0.306  10.901 -0.4809  0.0433 -1.0765
 6687TIP3    H244257   0.113   0.371  10.821 -0.3197  0.4834 -0.9437
 6688TIP3   OH244258   4.568   2.427  10.816 -0.0757 -0.1983 -0.0771
 6688TIP3    H144259   4.487   2.376  10.823  0.5764 -1.3049 -0.3859
 6688TIP3    H244260   4.552   2.488  10.744 -0.6883 -0.2914 -0.0253
 6689TIP3   OH244261   5.195   7.357  12.828  0.3545  0.5309  0.0120
 6689TIP3    H144262   5.127   7.387  12.888 -0.1202  0.2692 -0.3854
 6689TIP3    H244263   5.256   7.308  12.884 -0.7721 -0.8466  0.1046
 6690TIP3   OH244264   2.184   2.095  10.906 -0.4851 -0.0169  0.1378
 6690TIP3    H144265   2.198   2.146  10.986 -1.1003 -0.4032  0.4982
 6690TIP3    H244266   2.115   2.143  10.859 -0.5511 -0.1182  0.1313
 6691TIP3   OH244267   6.138   7.308  12.389 -0.1683 -0.0491  0.0283
 6691TIP3    H144268   6.079   7.276  12.458  0.8185 -1.3578  0.2921
 6691TIP3    H244269   6.223   7.270  12.410  0.3288  0.1478 -1.5099
 6692TIP3   OH244270   5.907   4.783  10.393 -0.3182  0.2122  0.5154
 6692TIP3    H144271   5.882   4.781  10.485  0.3386 -0.2727  0.6844
 6692TIP3    H244272   5.828   4.814  10.348 -0.8269 -0.1070  1.1755
 6693TIP3   OH244273   7.618   1.709  10.669 -0.4771 -0.0210 -0.0337
 6693TIP3    H144274   7.658   1.644  10.728 -0.2876  0.4331  0.3396
 6693TIP3    H244275   7.532   1.672  10.650 -0.5759 -0.1399  0.5941
 6694TIP3   OH244276   2.175   2.602  12.208 -0.0143 -0.0958  0.1052
 6694TIP3    H144277   2.148   2.573  12.121  1.1915  0.5375 -0.5197
 6694TIP3    H244278   2.140   2.537  12.268 -1.0819 -0.4109 -0.8324
 6695TIP3   OH244279   0.347   2.712  10.903 -0.1346  1.0245 -0.5382
 6695TIP3    H144280   0.412   2.674  10.963  0.4509  1.0584 -1.1388
 6695TIP3    H244281   0.344   2.804  10.926 -1.6941  0.6167  1.0503
 6696TIP3   OH244282   4.004   4.710  12.672 -0.1408 -0.2940  0.0976
 6696TIP3    H144283   4.098   4.704  12.689 -0.1516  0.8994  0.6633
 6696TIP3    H244284   3.995   4.785  12.613 -0.9647  1.4808  2.3307
 6697TIP3   OH244285   4.802   6.896  10.703 -0.8184  0.1160  0.0299
 6697TIP3    H144286   4.804   6.929  10.613  1.1585 -0.7386 -0.3026
 6697TIP3    H244287   4.894   6.875  10.723 -1.5853 -2.7938  1.0535
 6698TIP3   OH244288   1.156   7.265  11.066 -0.5295  0.2004 -0.0145
 6698TIP3    H144289   1.233   7.207  11.071 -0.2297  0.5521 -0.4432
 6698TIP3    H244290   1.173   7.333  11.130 -0.9968 -0.3075  0.6650
 6699TIP3   OH244291   3.075   5.472  10.923  0.2863 -0.0565  0.3914
 6699TIP3    H144292   3.152   5.457  10.977  1.4482  0.9461 -0.9342
 6699TIP3    H244293   3.108   5.510  10.842 -1.4950 -0.5731 -0.6556
 6700TIP3   OH244294   3.529   7.032  11.308 -0.5213 -0.4574  0.0328
 6700TIP3    H144295   3.584   6.956  11.290  0.3585  0.2590 -0.4068
 6700TIP3    H244296   3.554   7.096  11.241 -1.3086  0.1874  0.3383
 6701TIP3   OH244297   6.645   3.793  10.391 -0.5845 -0.4807 -0.6808
 6701TIP3    H144298   6.670   3.738  10.465  0.5631 -0.3673 -0.9633
 6701TIP3    H244299   6.644   3.734  10.315 -2.2893 -0.7137 -0.5238
 6702TIP3   OH244300   3.849   0.552  12.587  0.2833  0.3817  1.0560
 6702TIP3    H144301   3.858   0.490  12.660 -0.3233  0.7772  1.4738
 6702TIP3    H244302   3.755   0.558  12.573  0.2246  2.3347  1.9989
 6703TIP3   OH244303   2.418   5.829  13.154 -0.2280  0.1212 -0.3192
 6703TIP3    H144304   2.510   5.845  13.136 -0.3369 -0.5030 -1.4909
 6703TIP3    H244305   2.404   5.865  13.242  1.2072 -0.1017  0.0222
 6704TIP3   OH244306   4.419   5.277  10.965  0.5539  0.2855 -0.1327
 6704TIP3    H144307   4.364   5.244  10.894 -1.3974  2.1373  0.4066
 6704TIP3    H244308   4.498   5.309  10.922 -0.2168  0.5868 -1.3673
 6705TIP3   OH244309   3.831   6.419  11.342 -0.0411  0.4407  0.1156
 6705TIP3    H144310   3.814   6.327  11.364 -1.3274  0.7677  0.5803
 6705TIP3    H244311   3.744   6.458  11.336  0.5124  1.9058  1.1421
 6706TIP3   OH244312   3.266   7.675  11.008 -0.5800 -0.0543  0.2275
 6706TIP3    H144313   3.360   7.683  11.020 -0.6945  2.6708  0.0761
 6706TIP3    H244314   3.229   7.688  11.095 -0.8363  0.2739  0.0739
 6707TIP3   OH244315   1.632   4.290  11.449  0.3123 -0.0240 -0.3238
 6707TIP3    H144316   1.630   4.321  11.540 -2.2996 -0.8475 -0.0174
 6707TIP3    H244317   1.540   4.291  11.422  1.0255  0.1752 -2.9839
 6708TIP3   OH244318   5.238   5.123  11.037 -0.6369  0.1306 -0.4091
 6708TIP3    H144319   5.189   5.042  11.024 -1.3439  0.5140 -0.1721
 6708TIP3    H244320   5.173   5.193  11.023 -0.1493  0.6461 -0.1345
 6709TIP3   OH244321   6.032   3.614  10.803  0.1647  0.5959 -0.1050
 6709TIP3    H144322   6.033   3.702  10.841 -0.6709  1.3346 -1.6803
 6709TIP3    H244323   6.040   3.629  10.709  0.1945 -1.0370 -0.3899
 6710TIP3   OH244324   1.762   7.346  10.345 -0.3294  0.3216  0.1968
 6710TIP3    H144325   1.781   7.352  10.251 -2.1723  0.6018 -0.1974
 6710TIP3    H244326   1.793   7.259  10.371 -0.8794 -0.2367 -0.9486
 6711TIP3   OH244327   4.369   0.508  10.906  0.3132 -0.5393 -0.0283
 6711TIP3    H144328   4.409   0.570  10.845 -0.5433 -0.4800 -0.5534
 6711TIP3    H244329   4.413   0.524  10.990 -0.5693  1.5027  0.1080
 6712TIP3   OH244330   4.311   4.618  11.566  0.7346 -0.1378 -0.3494
 6712TIP3    H144331   4.285   4.704  11.532 -1.2258 -0.1794  0.9059
 6712TIP3    H244332   4.269   4.556  11.507  1.3316 -0.2612 -0.6595
 6713TIP3   OH244333   4.280   3.301  10.980 -0.2543 -0.6156 -0.2435
 6713TIP3    H144334   4.188   3.327  10.975 -0.1974 -0.4500 -0.4607
 6713TIP3    H244335   4.289   3.263  11.067 -0.7000 -1.3075 -0.4880
 6714TIP3   OH244336   3.624   5.826  12.427 -0.1646  0.2718 -0.0235
 6714TIP3    H144337   3.543   5.776  12.428 -0.3579  0.5849  0.0698
 6714TIP3    H244338   3.693   5.760  12.416 -0.3318 -0.1232  1.1302
 6715TIP3   OH244339   6.157   6.615  12.406  0.9419 -0.1547 -0.4413
 6715TIP3    H144340   6.081   6.664  12.377  0.4426 -1.3556 -1.2565
 6715TIP3    H244341   6.162   6.631  12.500 -0.8701 -0.7603 -0.2034
 6716TIP3   OH244342   7.450   0.432  11.357  0.4470  0.3556  0.2896
 6716TIP3    H144343   7.413   0.353  11.318 -0.0956  0.0373  1.4107
 6716TIP3    H244344   7.544   0.414  11.364  0.4257  0.0924 -0.0901
 6717TIP3   OH244345   5.576   5.816  11.384  0.0317  0.5224 -0.5218
 6717TIP3    H144346   5.633   5.744  11.410  1.0900  1.3542 -0.4610
 6717TIP3    H244347   5.584   5.820  11.289  1.5519  1.7892 -0.3763
 6718TIP3   OH244348   1.648   2.697  12.618  0.1811  0.2569  0.4154
 6718TIP3    H144349   1.647   2.610  12.659  3.0092 -0.8305 -1.5173
 6718TIP3    H244350   1.564   2.703  12.573 -0.2608 -1.2981  0.9477
 6719TIP3   OH244351   6.590   0.385  11.803  0.4895 -0.4658 -0.4463
 6719TIP3    H144352   6.506   0.389  11.849 -0.0138  2.6774 -1.3846
 6719TIP3    H244353   6.567   0.387  11.710  1.5501  0.3131 -0.7196
 6720TIP3   OH244354   5.866   2.692  10.838  0.2260 -0.0546 -0.6136
 6720TIP3    H144355   5.863   2.752  10.764 -1.0223 -0.0762 -0.5999
 6720TIP3    H244356   5.774   2.677  10.860  0.5141 -1.9223 -0.5775
 6721TIP3   OH244357   1.000   4.724  11.038  0.6970  0.2729  0.2157
 6721TIP3    H144358   0.912   4.727  10.999  0.7829  1.4615  0.0628
 6721TIP3    H244359   1.027   4.633  11.029  0.1023  0.2017 -1.1693
 6722TIP3   OH244360   6.941   6.263  11.530  0.0768 -0.1880 -0.1407
 6722TIP3    H144361   7.008   6.200  11.557  1.1467  0.4777 -1.1170
 6722TIP3    H244362   6.870   6.209  11.494 -0.2496 -0.9357  1.5381
 6723TIP3   OH244363   2.457   2.162  10.753 -0.5034  0.0614  0.0553
 6723TIP3    H144364   2.425   2.123  10.834  1.5852 -2.8774 -0.4077
 6723TIP3    H244365   2.393   2.136  10.686 -1.4657  1.2942  0.4557
 6724TIP3   OH244366   5.273   7.676  11.720 -0.3692 -0.6344  0.4491
 6724TIP3    H144367   5.356   7.678  11.768  0.9085  0.5005 -1.5966
 6724TIP3    H244368   5.208   7.649  11.784  1.1735  0.8512  2.8172
 6725TIP3   OH244369   1.225   7.327  11.689  0.1656 -0.5060 -0.3278
 6725TIP3    H144370   1.217   7.299  11.598 -1.6197 -0.1707 -0.3136
 6725TIP3    H244371   1.147   7.379  11.705  0.3529 -0.7056  1.4585
 6726TIP3   OH244372   4.530   4.107  11.247  0.3748 -0.5828  0.0668
 6726TIP3    H144373   4.565   4.098  11.158 -0.1698 -0.3727 -0.1717
 6726TIP3    H244374   4.577   4.041  11.297  2.4405  0.8750  0.1809
 6727TIP3   OH244375   2.704   0.497  10.621 -0.1825 -0.3520 -0.9432
 6727TIP3    H144376   2.779   0.439  10.636 -0.7803 -1.0057 -0.3760
 6727TIP3    H244377   2.734   0.583  10.651  0.4445 -0.5377 -1.0216
 6728TIP3   OH244378   5.045   4.152  12.282  0.3475 -0.1309  0.2123
 6728TIP3    H144379   4.961   4.193  12.302  0.6648  0.1413  1.0916
 6728TIP3    H244380   5.024   4.070  12.239 -0.3649  0.0327  0.2476
 6729TIP3   OH244381   2.711   4.973  12.816  0.3839 -0.2040  0.5442
 6729TIP3    H144382   2.713   4.889  12.771  0.3835 -0.1534  0.4484
 6729TIP3    H244383   2.675   5.034  12.751  0.5689 -0.0922  0.5432
 6730TIP3   OH244384   5.762   5.948  12.521  0.4901 -0.3570 -0.0989
 6730TIP3    H144385   5.700   6.021  12.515 -0.4484 -1.1095  0.1284
 6730TIP3    H244386   5.837   5.983  12.568 -0.4006  0.1717  0.9495
 6731TIP3   OH244387   0.265   3.517  12.230 -0.3611  0.4806 -0.0452
 6731TIP3    H144388   0.176   3.491  12.205 -0.3238  0.8937 -0.6321
 6731TIP3    H244389   0.269   3.503  12.325  0.0656 -2.8771 -0.4384
 6732TIP3   OH244390   3.800   6.859  12.146 -0.0680 -0.4075 -0.1435
 6732TIP3    H144391   3.706   6.849  12.128 -0.3917 -0.1062  1.2602
 6732TIP3    H244392   3.825   6.939  12.100 -1.3048  1.4194  2.0806
 6733TIP3   OH244393   5.153   2.597  12.344 -0.3877 -0.8880 -0.5565
 6733TIP3    H144394   5.177   2.589  12.436 -2.5442 -0.2825  0.0974
 6733TIP3    H244395   5.109   2.682  12.337  0.7087 -0.4029 -2.3996
 6734TIP3   OH244396   0.876   2.577  11.908  0.6749  0.3743  0.2120
 6734TIP3    H144397   0.790   2.535  11.906  1.2354 -0.7789 -0.8687
 6734TIP3    H244398   0.861   2.664  11.869 -0.3529  0.9485  1.8028
 6735TIP3   OH244399   1.860   2.432  12.446  0.0189  0.3263 -0.0353
 6735TIP3    H144400   1.796   2.375  12.488  0.3012  0.7673  1.0216
 6735TIP3    H244401   1.819   2.457  12.363  0.0347 -1.6531 -0.6974
 6736TIP3   OH244402   7.110   5.597  12.437 -0.0625  0.2260  0.0882
 6736TIP3    H144403   7.103   5.600  12.533 -0.8974 -2.6014  0.1956
 6736TIP3    H244404   7.021   5.614  12.406 -0.2886 -1.0766 -0.0442
 6737TIP3   OH244405   5.938   4.607  11.328  1.0456  0.5428  0.7343
 6737TIP3    H144406   6.011   4.579  11.272  0.4608 -0.1773  0.3125
 6737TIP3    H244407   5.923   4.698  11.304  0.6137  0.1612 -0.5203
 6738TIP3   OH244408   3.289   6.906  11.242  0.5472 -0.1988 -0.1564
 6738TIP3    H144409   3.275   6.990  11.199 -0.2461 -0.3919 -0.2938
 6738TIP3    H244410   3.384   6.901  11.256  0.8325 -0.1199 -1.8621
 6739TIP3   OH244411   5.006   4.387  12.932  0.4450  0.4411 -0.3414
 6739TIP3    H144412   5.072   4.452  12.906  0.4493  0.7830  0.4978
 6739TIP3    H244413   5.043   4.346  13.010  1.2664 -1.8288 -1.8286
 6740TIP3   OH244414   6.581   6.929  10.562 -0.2814  0.3576 -0.2296
 6740TIP3    H144415   6.603   6.842  10.528 -1.6552  0.1447 -0.6348
 6740TIP3    H244416   6.622   6.990  10.501  0.3249 -0.0079 -0.1939
 6741TIP3   OH244417   5.905   0.955  10.228  0.3744  0.3314  0.0970
 6741TIP3    H144418   5.893   0.946  10.323  1.8154 -2.0845  0.1375
 6741TIP3    H244419   5.967   1.027  10.219  0.7499  0.1452  1.0462
 6742TIP3   OH244420   1.806   2.959  13.036  0.3822  0.3332 -0.2441
 6742TIP3    H144421   1.732   3.005  12.996  0.7939  0.1978 -1.1697
 6742TIP3    H244422   1.880   3.020  13.026  1.1311 -0.8131 -2.2253
 6743TIP3   OH244423   2.498   5.500  12.025  0.3381  0.0572 -0.0250
 6743TIP3    H144424   2.461   5.585  12.001 -2.1686 -0.7340  0.7857
 6743TIP3    H244425   2.585   5.521  12.058 -0.3163  2.3600  0.4599
 6744TIP3   OH244426   2.271   6.709  11.971 -0.3479 -0.0849  0.0600
 6744TIP3    H144427   2.295   6.802  11.972 -0.4152 -0.0531  1.4846
 6744TIP3    H244428   2.348   6.664  12.004 -0.3856 -0.5233 -0.4387
 6745TIP3   OH244429   1.296   1.338  11.068  0.2230 -0.2938 -0.5658
 6745TIP3    H144430   1.371   1.291  11.032  1.2183  1.1013 -0.3956
 6745TIP3    H244431   1.234   1.269  11.092  0.7512 -1.3976 -2.2029
 6746TIP3   OH244432   4.269   2.639  12.521 -0.2189  0.1284  0.1809
 6746TIP3    H144433   4.323   2.653  12.599 -0.7333  0.1509  0.5373
 6746TIP3    H244434   4.179   2.635  12.554 -0.4337  0.0353 -0.3991
 6747TIP3   OH244435   2.518   4.217  12.590  0.3967 -0.2930 -0.2176
 6747TIP3    H144436   2.458   4.226  12.516  0.5286  1.1628 -0.1892
 6747TIP3    H244437   2.520   4.123  12.609 -0.5274 -0.5557 -1.3165
 6748TIP3   OH244438   3.619   6.484  11.592 -0.2886  0.1293  0.1883
 6748TIP3    H144439   3.524   6.494  11.592 -0.2356  0.9866 -1.3486
 6748TIP3    H244440   3.633   6.391  11.574 -0.8806  0.3117 -1.4275
 6749TIP3   OH244441   5.145   0.820  10.851 -0.2659  0.0538  0.1619
 6749TIP3    H144442   5.053   0.846  10.857 -0.4542 -0.9474  2.9366
 6749TIP3    H244443   5.147   0.728  10.877  1.7363  0.7602  3.1088
 6750TIP3   OH244444   5.083   1.630  11.381 -0.0837  0.2124 -0.3095
 6750TIP3    H144445   5.060   1.717  11.415  0.1270  0.0421  0.2803
 6750TIP3    H244446   5.074   1.639  11.286  2.1375  1.5650 -0.4743
 6751TIP3   OH244447   5.091   2.828  11.770 -0.2092  0.4704 -0.0545
 6751TIP3    H144448   5.041   2.822  11.689 -0.2236 -1.7468  0.0766
 6751TIP3    H244449   5.117   2.738  11.790  1.0784  1.1508  1.6129
 6752TIP3   OH244450   2.442   3.596  11.512 -0.5728 -0.0836 -0.1469
 6752TIP3    H144451   2.416   3.544  11.589 -2.4912  0.7049 -0.2107
 6752TIP3    H244452   2.528   3.631  11.535 -1.6376  1.1948  2.2502
 6753TIP3   OH244453   4.219   5.536  11.518 -0.6313 -0.4576 -0.0490
 6753TIP3    H144454   4.184   5.454  11.555 -2.4642 -0.5183 -1.7328
 6753TIP3    H244455   4.254   5.583  11.593  0.6385 -2.8188  0.9687
 6754TIP3   OH244456   6.406   4.504  12.209 -0.2995 -0.6120 -0.5624
 6754TIP3    H144457   6.310   4.505  12.211 -0.4850  3.7398  1.5472
 6754TIP3    H244458   6.429   4.554  12.131  0.0915  0.3903  0.1690
 6755TIP3   OH244459   2.826   3.713  11.288  0.2955 -0.5739  0.0084
 6755TIP3    H144460   2.888   3.781  11.261  1.0173 -1.2643 -0.1362
 6755TIP3    H244461   2.882   3.640  11.316 -0.4479 -0.7756  1.0375
 6756TIP3   OH244462   3.847   5.936  10.494 -0.0152  0.0508  0.1506
 6756TIP3    H144463   3.822   6.020  10.533  0.7220  1.0171 -1.3523
 6756TIP3    H244464   3.906   5.896  10.558 -0.6978  0.4821  1.0640
 6757TIP3   OH244465   6.536   0.318  12.184 -0.3338 -0.0801 -0.1057
 6757TIP3    H144466   6.628   0.329  12.208 -0.0971  0.3233 -1.1216
 6757TIP3    H244467   6.511   0.233  12.219 -0.0110  0.4477  1.4595
 6758TIP3   OH244468   4.245   3.513  11.904  0.4358 -0.4297  0.0582
 6758TIP3    H144469   4.314   3.560  11.950 -2.6712  4.1471  0.6829
 6758TIP3    H244470   4.212   3.450  11.968  1.8018 -0.3122  0.9052
 6759TIP3   OH244471   4.080   1.821  10.415 -0.1598 -0.0802  0.5812
 6759TIP3    H144472   4.129   1.823  10.333 -0.1781 -0.9224  0.5422
 6759TIP3    H244473   4.137   1.866  10.478 -0.2552  0.7902  0.0569
 6760TIP3   OH244474   5.560   6.415  12.192 -0.0127 -0.2481 -0.2861
 6760TIP3    H144475   5.598   6.331  12.166  0.7037  0.2461 -0.8855
 6760TIP3    H244476   5.601   6.479  12.134 -0.1171  0.5970  0.5502
 6761TIP3   OH244477   0.673   2.203  11.845  0.1969  0.1848  0.1893
 6761TIP3    H144478   0.650   2.295  11.832  0.3878  0.7740  3.2575
 6761TIP3    H244479   0.767   2.199  11.825  0.1177  0.5701 -0.2738
 6762TIP3   OH244480   5.877   2.355  11.717  0.1324 -0.1992  0.1515
 6762TIP3    H144481   5.881   2.264  11.686 -0.3441 -0.0588 -0.3300
 6762TIP3    H244482   5.823   2.352  11.795 -0.5953 -0.2053 -0.3441
 6763TIP3   OH244483   3.827   5.464  10.676  0.0908  0.6881  0.1345
 6763TIP3    H144484   3.807   5.480  10.768  0.0841 -0.0817  0.2752
 6763TIP3    H244485   3.923   5.465  10.672  0.1050  0.2275  0.2519
 6764TIP3   OH244486   4.513   0.340  11.893  0.0081 -0.0397 -0.1889
 6764TIP3    H144487   4.574   0.387  11.837  0.2194 -1.1038 -0.8891
 6764TIP3    H244488   4.540   0.248  11.886 -0.4740 -0.2960  1.0160
 6765TIP3   OH244489   3.631   0.351  12.377  0.1005 -0.1409  0.1587
 6765TIP3    H144490   3.572   0.312  12.442  0.6392  1.3823  1.6478
 6765TIP3    H244491   3.616   0.446  12.386  0.6855  0.1355 -1.4973
 6766TIP3   OH244492   2.176   3.271  11.882  0.3071 -0.0503  0.1327
 6766TIP3    H144493   2.181   3.350  11.829 -1.0993  0.4404  0.6897
 6766TIP3    H244494   2.089   3.274  11.922  0.5937 -1.3931  0.9237
 6767TIP3   OH244495   6.414   2.015  10.574 -0.2162  0.3009  0.5835
 6767TIP3    H144496   6.443   2.097  10.534 -1.0268  0.6050  0.5912
 6767TIP3    H244497   6.433   1.948  10.508 -1.9406  0.8517 -0.5607
 6768TIP3   OH244498   7.457   7.432  12.988 -0.3238 -0.5698 -0.1574
 6768TIP3    H144499   7.380   7.423  12.933 -0.8255  0.8748  0.2561
 6768TIP3    H244500   7.476   7.526  12.987 -1.0086 -0.2815  2.9335
 6769TIP3   OH244501   3.480   2.432  11.271 -0.0120  0.1358 -0.0730
 6769TIP3    H144502   3.476   2.337  11.279  1.5465  0.0641  0.1719
 6769TIP3    H244503   3.400   2.464  11.314 -2.0565 -1.1428 -2.6944
 6770TIP3   OH244504   1.054   7.335  12.683  0.3321 -0.0637  0.4735
 6770TIP3    H144505   0.995   7.316  12.757  1.6843  0.3283  1.7126
 6770TIP3    H244506   1.105   7.255  12.673  0.6951  0.1643  0.4964
 6771TIP3   OH244507   3.210   5.348  12.049  0.3707  0.5084  0.2850
 6771TIP3    H144508   3.146   5.416  12.068  2.0438  1.7660  1.8338
 6771TIP3    H244509   3.159   5.267  12.045 -1.5178  1.6766 -0.4219
 6772TIP3   OH244510   6.504   5.646  12.701  0.1537  0.1932 -0.2134
 6772TIP3    H144511   6.532   5.581  12.765  0.4795  0.4750 -0.0691
 6772TIP3    H244512   6.413   5.623  12.683  0.1240 -0.0196  0.1875
 6773TIP3   OH244513   0.669   4.783  11.314 -0.5255 -0.0305 -0.0367
 6773TIP3    H144514   0.652   4.877  11.320 -2.3239 -0.2143 -1.3847
 6773TIP3    H244515   0.722   4.763  11.391  0.1048  2.1132  0.1517
 6774TIP3   OH244516   7.660   6.776  12.495 -0.7242 -0.3936 -0.8541
 6774TIP3    H144517   7.743   6.812  12.463  0.1378 -1.5797 -0.0490
 6774TIP3    H244518   7.671   6.773  12.590 -1.4196 -1.2103 -0.7909
 6775TIP3   OH244519   4.028   3.842  11.449 -0.2917  0.2108 -0.1756
 6775TIP3    H144520   3.996   3.859  11.360 -0.1877  0.1084 -0.2332
 6775TIP3    H244521   4.055   3.750  11.447  0.2489  0.3662 -0.2042
 6776TIP3   OH244522   0.030   4.717  11.643  0.4572  0.9941 -0.2526
 6776TIP3    H144523   0.009   4.745  11.554 -0.4892 -0.1652 -0.4290
 6776TIP3    H244524   0.026   4.621  11.639 -3.7064  0.8398  1.8681
 6777TIP3   OH244525   3.655   2.533  11.457 -0.1751  0.3205  1.1109
 6777TIP3    H144526   3.670   2.474  11.531 -0.0093 -0.9648  0.0804
 6777TIP3    H244527   3.594   2.485  11.400 -1.1355  1.7305  0.8955
 6778TIP3   OH244528   0.715   2.979  12.066 -0.5689  0.0065  0.0092
 6778TIP3    H144529   0.696   2.903  12.122 -2.2914  0.5112  0.1753
 6778TIP3    H244530   0.632   3.026  12.062  0.2128  1.3508 -0.9177
 6779TIP3   OH244531   0.546   1.005  11.550  0.2799  0.2798  0.3854
 6779TIP3    H144532   0.629   0.973  11.514 -0.2524  0.5171 -1.1031
 6779TIP3    H244533   0.479   0.973  11.490 -0.7423 -0.0067  1.6354
 6780TIP3   OH244534   2.277   4.542  10.939  0.9437 -0.5960 -0.0712
 6780TIP3    H144535   2.275   4.541  10.843 -1.0095 -0.5174 -0.0567
 6780TIP3    H244536   2.369   4.561  10.960  1.2385  0.2946 -1.9252
 6781TIP3   OH244537   4.050   5.556  11.994  0.1212 -0.0164 -0.1411
 6781TIP3    H144538   4.123   5.606  11.956  0.1209 -0.0474 -0.1830
 6781TIP3    H244539   4.006   5.517  11.919  0.5411 -0.6498 -0.0670
 6782TIP3   OH244540   5.236   2.149  12.585  0.5716 -0.0132  0.3444
 6782TIP3    H144541   5.199   2.196  12.660  1.2716  2.7373 -0.8796
 6782TIP3    H244542   5.331   2.160  12.595  0.7067 -0.4027 -0.4496
 6783TIP3   OH244543   5.181   4.794  12.599 -0.5274  0.3518  0.9141
 6783TIP3    H144544   5.276   4.798  12.594 -0.4632 -0.5591  1.2434
 6783TIP3    H244545   5.162   4.782  12.692 -0.9734  0.6369  0.8661
 6784TIP3   OH244546   4.290   0.152  11.140 -0.3121  0.1024 -0.0862
 6784TIP3    H144547   4.237   0.127  11.215  0.0298 -0.6503 -0.0878
 6784TIP3    H244548   4.239   0.125  11.064 -1.1986  1.9134 -0.1903
 6785TIP3   OH244549   4.158   3.878  12.227 -0.2950 -0.1825 -0.1602
 6785TIP3    H144550   4.158   3.963  12.184 -1.6455 -0.2638 -0.3771
 6785TIP3    H244551   4.121   3.818  12.162 -1.9980 -0.3814  0.9222
 6786TIP3   OH244552   2.607   5.551  11.121  0.0501 -0.3793 -0.1754
 6786TIP3    H144553   2.701   5.569  11.111 -0.0925 -0.2383 -1.4563
 6786TIP3    H244554   2.598   5.459  11.095  0.2678 -1.4132  3.0133
 6787TIP3   OH244555   1.401   5.750  10.842  0.3249  0.1305 -0.1251
 6787TIP3    H144556   1.315   5.734  10.805  0.6005 -2.1060  0.0948
 6787TIP3    H244557   1.455   5.776  10.767  0.0856 -1.0788 -0.7346
 6788TIP3   OH244558   2.414   5.155  10.878  0.5734  0.1800 -0.1782
 6788TIP3    H144559   2.372   5.070  10.870  1.6586 -0.7039  2.3335
 6788TIP3    H244560   2.348   5.218  10.849 -1.1690 -1.3746  0.2383
 6789TIP3   OH244561   4.043   2.125  11.981 -0.2770  0.5745  0.0117
 6789TIP3    H144562   4.036   2.029  11.985 -0.1742  0.4285 -2.0992
 6789TIP3    H244563   3.957   2.153  11.948 -1.1633  1.4729  2.8096
 6790TIP3   OH244564   5.785   3.467  12.695  0.1752  0.4347  0.4466
 6790TIP3    H144565   5.776   3.557  12.726 -2.9117 -0.0490  1.2169
 6790TIP3    H244566   5.734   3.415  12.756  1.2940 -1.8006 -0.4028
 6791TIP3   OH244567   5.910   2.888  12.061 -0.1087  0.2505 -0.3641
 6791TIP3    H144568   5.854   2.812  12.048  1.1825 -0.7213 -0.4925
 6791TIP3    H244569   5.919   2.926  11.973 -0.2462  0.1784 -0.4105
 6792TIP3   OH244570   1.651   6.301  11.717 -0.4595 -0.0049 -0.0061
 6792TIP3    H144571   1.605   6.216  11.717  0.0695 -0.3374 -1.7221
 6792TIP3    H244572   1.733   6.283  11.672 -0.2155  1.3714 -0.1339
 6793TIP3   OH244573   3.063   3.356  11.086 -0.3366 -0.2124  0.3939
 6793TIP3    H144574   2.982   3.400  11.109  0.0139 -0.0181  1.3065
 6793TIP3    H244575   3.036   3.272  11.050 -0.9530 -0.0314  0.4378
 6794TIP3   OH244576   5.126   7.600  10.833  0.5093  0.5287  0.2234
 6794TIP3    H144577   5.209   7.649  10.832  0.6670  0.2685  0.4330
 6794TIP3    H244578   5.073   7.644  10.899  0.8877  0.0383  0.8691
 6795TIP3   OH244579   6.771   0.634  10.425  0.4638 -0.3619 -0.0329
 6795TIP3    H144580   6.740   0.543  10.428 -0.8877  0.0461 -0.9098
 6795TIP3    H244581   6.866   0.626  10.417  0.2722 -1.7416 -1.3721
 6796TIP3   OH244582   2.353   6.028  11.718 -0.5133 -0.0347  0.0892
 6796TIP3    H144583   2.296   5.967  11.764  0.0986 -0.1377  0.7269
 6796TIP3    H244584   2.422   6.050  11.781 -0.1941  0.5744 -0.4498
 6797TIP3   OH244585   1.354   6.870  12.748 -0.6511  0.6470 -0.1373
 6797TIP3    H144586   1.428   6.929  12.733 -0.4582  0.1706 -1.2439
 6797TIP3    H244587   1.390   6.801  12.804 -0.5239  0.9219  0.1190
 6798TIP3   OH244588   4.210   4.165  11.039 -0.2613 -0.1274 -0.5965
 6798TIP3    H144589   4.263   4.212  10.975 -1.0933  0.8662 -0.5933
 6798TIP3    H244590   4.120   4.184  11.013 -0.7019  2.2721  2.1413
 6799TIP3   OH244591   3.883   2.191  11.008 -0.1718 -0.4979 -0.0252
 6799TIP3    H144592   3.915   2.111  11.050 -0.1150  0.3272  1.5753
 6799TIP3    H244593   3.962   2.234  10.977 -0.0835 -0.4366  0.2804
 6800TIP3   OH244594   5.634   4.820  10.869  0.2271 -0.4376 -0.0731
 6800TIP3    H144595   5.692   4.746  10.888 -0.0170 -0.4913  0.4706
 6800TIP3    H244596   5.576   4.825  10.944 -0.7125 -0.6152 -0.7645
 6801TIP3   OH244597   6.407   4.966  11.395  0.2349 -0.2521 -0.3972
 6801TIP3    H144598   6.429   4.938  11.484  0.5513 -1.6819 -0.8896
 6801TIP3    H244599   6.433   5.057  11.390  3.6438 -1.0790 -0.0920
 6802TIP3   OH244600   0.645   5.385  11.989 -0.1589  0.1926  0.5678
 6802TIP3    H144601   0.724   5.438  11.989  0.5338 -0.8011 -0.3904
 6802TIP3    H244602   0.606   5.398  11.903  1.7946 -3.2546 -1.0921
 6803TIP3   OH244603   2.307   1.378  11.641  0.5269  0.3709  0.2630
 6803TIP3    H144604   2.281   1.434  11.568  0.7430  0.8266  0.5275
 6803TIP3    H244605   2.276   1.291  11.617 -1.3923  0.9046  0.6254
 6804TIP3   OH244606   7.528   0.950  11.794 -0.9787 -0.3863  0.1145
 6804TIP3    H144607   7.456   0.923  11.737 -0.8330  1.5068 -1.0704
 6804TIP3    H244608   7.607   0.919  11.749 -0.9255  0.0163 -0.0733
 6805TIP3   OH244609   2.337   7.310  12.151  0.0450 -0.1150 -0.2923
 6805TIP3    H144610   2.425   7.301  12.114 -0.3254  0.5890 -1.3803
 6805TIP3    H244611   2.286   7.243  12.107 -0.7090  1.5591 -2.1152
 6806TIP3   OH244612   5.722   0.261  11.087  0.0598  0.1436  0.3316
 6806TIP3    H144613   5.636   0.303  11.074  0.0561 -0.2343 -1.0191
 6806TIP3    H244614   5.784   0.320  11.045  0.7906  1.4010  2.9234
 6807TIP3   OH244615   3.647   2.365  10.950  0.2173 -0.0702 -0.4297
 6807TIP3    H144616   3.716   2.392  11.010  1.0983  0.7639 -1.7421
 6807TIP3    H244617   3.670   2.275  10.926  0.1835 -0.2052  0.0415
 6808TIP3   OH244618   1.852   3.487  12.507  0.2282  0.0576  0.1109
 6808TIP3    H144619   1.866   3.578  12.531 -0.9175  0.1728  0.4093
 6808TIP3    H244620   1.863   3.438  12.588  0.7726 -0.0631 -0.0344
 6809TIP3   OH244621   1.648   6.093  12.745  0.4999  0.4588  0.6030
 6809TIP3    H144622   1.681   6.082  12.656 -0.0077  1.5865  0.2626
 6809TIP3    H244623   1.640   6.004  12.779 -1.4228 -0.1576 -1.2661
 6810TIP3   OH244624   2.941   7.228  10.284 -0.1310 -0.2022 -0.3218
 6810TIP3    H144625   2.871   7.231  10.350 -0.6339  2.7227 -0.8528
 6810TIP3    H244626   2.914   7.158  10.224 -0.7879 -1.4346  1.3241
 6811TIP3   OH244627   3.526   7.607  12.272 -0.0791  0.3783  0.4731
 6811TIP3    H144628   3.440   7.565  12.282  0.6390 -0.9772  1.2873
 6811TIP3    H244629   3.544   7.645  12.358  0.2556  0.3993  0.3949
 6812TIP3   OH244630   3.609   4.395  13.140  0.3429  0.4039 -0.0421
 6812TIP3    H144631   3.621   4.302  13.120 -0.4904  0.1302  0.6518
 6812TIP3    H244632   3.519   4.414  13.112 -0.5153  0.2537  2.4195
 6813TIP3   OH244633   6.184   5.369  12.294  0.4889  0.5707  0.3416
 6813TIP3    H144634   6.279   5.355  12.296  0.6901  1.8904  0.6311
 6813TIP3    H244635   6.148   5.281  12.282  1.5138 -0.7671  4.9459
 6814TIP3   OH244636   7.394   0.459  10.310  0.3643 -0.2125  0.1074
 6814TIP3    H144637   7.478   0.463  10.264 -0.6787  1.1333 -1.8853
 6814TIP3    H244638   7.383   0.547  10.348 -0.5848 -0.0006 -0.6048
 6815TIP3   OH244639   0.506   4.355  12.572  0.0557 -0.0156 -0.3598
 6815TIP3    H144640   0.466   4.386  12.491 -0.0138 -1.1476 -0.7713
 6815TIP3    H244641   0.455   4.278  12.596 -0.1192  0.4717  0.9383
 6816TIP3   OH244642   3.348   2.574  11.829  0.2013 -0.3521 -0.2159
 6816TIP3    H144643   3.418   2.627  11.791 -1.7276  0.5353 -2.8210
 6816TIP3    H244644   3.371   2.484  11.807  0.8374 -0.1420 -0.4333
 6817TIP3   OH244645   0.648   1.187  11.982  0.2033 -0.8306  0.6018
 6817TIP3    H144646   0.668   1.164  12.072  4.7739  0.0580  0.0344
 6817TIP3    H244647   0.644   1.103  11.936  0.6299 -1.1515  1.1490
 6818TIP3   OH244648   5.896   6.480  11.258  0.0289 -0.2418  0.2436
 6818TIP3    H144649   5.816   6.431  11.277 -0.2592  0.0991 -0.1026
 6818TIP3    H244650   5.953   6.416  11.215 -0.6548 -0.0656 -0.9505
 6819TIP3   OH244651   2.262   1.139  13.176 -0.2264  0.7777 -0.2377
 6819TIP3    H144652   2.358   1.138  13.179 -0.2505 -0.7325  0.7142
 6819TIP3    H244653   2.238   1.220  13.221  0.5812  0.3164  1.0759
 6820TIP3   OH244654   1.033   2.544  12.131  0.1583 -0.1350  0.3258
 6820TIP3    H144655   0.992   2.550  12.045 -1.4128 -1.1811  0.9362
 6820TIP3    H244656   1.106   2.484  12.119  0.8608  0.8640 -0.5590
 6821TIP3   OH244657   0.635   6.446  12.242 -0.6449 -0.3168  0.1770
 6821TIP3    H144658   0.592   6.532  12.240  2.4640  1.4449 -2.7168
 6821TIP3    H244659   0.598   6.399  12.168 -1.1933 -0.8488  0.7848
 6822TIP3   OH244660   7.497   3.025  10.327  0.0790  0.2672  0.8663
 6822TIP3    H144661   7.499   2.932  10.349 -0.4963  0.4446  1.7307
 6822TIP3    H244662   7.589   3.049  10.313  0.2121 -0.4658  0.4808
 6823TIP3   OH244663   1.975   1.679  12.749 -0.1786 -0.2011  0.3916
 6823TIP3    H144664   2.043   1.673  12.816  0.0829  1.3194  0.3038
 6823TIP3    H244665   1.898   1.712  12.795 -0.0295  0.7470 -0.0078
 6824TIP3   OH244666   4.533   0.044  18.207  0.0845 -0.0204  0.3956
 6824TIP3    H144667   4.569  -0.020  18.146  1.5803  0.6744  0.5187
 6824TIP3    H244668   4.486   0.106  18.152 -1.6554 -1.3421  0.2974
 6825TIP3   OH244669   2.930   5.374  12.475 -0.0648 -0.2356  0.2937
 6825TIP3    H144670   2.986   5.320  12.530 -1.6178 -1.4410  0.7548
 6825TIP3    H244671   2.850   5.323  12.463 -1.1207  1.4410 -0.2693
 6826TIP3   OH244672   0.072   2.228  10.284 -0.3153  0.0293  0.3432
 6826TIP3    H144673   0.015   2.152  10.270  0.1345 -0.4110  0.8456
 6826TIP3    H244674   0.019   2.303  10.258  0.3833 -0.6292 -3.7440
 6827TIP3   OH244675   2.357   3.858  10.723  0.2126  0.2415 -0.6483
 6827TIP3    H144676   2.329   3.868  10.814  0.1700 -1.9201 -0.3704
 6827TIP3    H244677   2.280   3.881  10.671 -0.7934 -1.4599 -0.0083
 6828TIP3   OH244678   6.132   5.794  11.827 -0.5565 -0.8306 -0.8070
 6828TIP3    H144679   6.186   5.853  11.880 -0.7345 -0.2007 -1.3046
 6828TIP3    H244680   6.174   5.709  11.835  0.3784 -0.3993 -0.9966
 6829TIP3   OH244681   3.019   1.934  12.277 -0.0623 -0.2015 -0.1632
 6829TIP3    H144682   3.097   1.919  12.223 -0.4548 -1.6730 -0.3918
 6829TIP3    H244683   2.970   2.001  12.230  0.6390  0.0849 -0.5018
 6830TIP3   OH244684   5.947   4.648  10.678  0.0999 -0.3919 -0.4075
 6830TIP3    H144685   6.033   4.628  10.714 -0.4077 -1.6549  0.1530
 6830TIP3    H244686   5.886   4.626  10.748 -0.7853 -1.1162 -1.3764
 6831TIP3   OH244687   3.705   1.433  10.592  0.0189  0.3193 -0.4521
 6831TIP3    H144688   3.682   1.526  10.592 -3.8433 -0.4634 -0.6536
 6831TIP3    H244689   3.784   1.428  10.537 -1.1801  3.1761 -2.7321
 6832TIP3   OH244690   1.801   3.383  11.906  0.3682 -0.1621 -0.1006
 6832TIP3    H144691   1.872   3.441  11.879 -0.4467  0.8893 -0.0495
 6832TIP3    H244692   1.835   3.294  11.890  1.4584  0.3298 -0.6257
 6833TIP3   OH244693   5.597   5.673  11.127  0.3961  0.3732  0.1180
 6833TIP3    H144694   5.686   5.638  11.121  0.5277 -0.3711  3.8769
 6833TIP3    H244695   5.549   5.608  11.179 -1.1827  2.5974  1.6530
 6834TIP3   OH244696   2.200   7.582  10.561 -0.5473  0.3559 -0.3518
 6834TIP3    H144697   2.248   7.664  10.573  1.4581 -0.6259 -1.2585
 6834TIP3    H244698   2.148   7.596  10.482  0.3894  0.5049 -0.9534
 6835TIP3   OH244699   3.461   5.545  13.136 -0.1119 -0.5454  0.0489
 6835TIP3    H144700   3.449   5.640  13.141 -0.7761 -0.6668  0.8154
 6835TIP3    H244701   3.554   5.535  13.114 -0.2665  0.2907 -1.1182
 6836TIP3   OH244702   3.780   7.493  11.605 -0.2804 -0.8711  0.5514
 6836TIP3    H144703   3.808   7.488  11.514  2.6145 -0.4369  1.3240
 6836TIP3    H244704   3.754   7.584  11.617  0.6590 -0.5834  0.4793
 6837TIP3   OH244705   6.281   1.556  10.692  0.7256  0.4606  0.0166
 6837TIP3    H144706   6.221   1.623  10.658 -0.7963  1.0605  3.4952
 6837TIP3    H244707   6.312   1.510  10.614 -4.1372  0.2337 -2.1128
 6838TIP3   OH244708   7.291   3.782  11.414 -0.2466 -0.0828 -0.5436
 6838TIP3    H144709   7.284   3.858  11.472  0.6926  1.1370 -1.9636
 6838TIP3    H244710   7.311   3.709  11.473  0.5320  1.0790  0.6927
 6839TIP3   OH244711   6.654   6.595  11.327  0.0292 -0.3200  0.6939
 6839TIP3    H144712   6.649   6.533  11.254 -0.2780  1.6068 -1.0315
 6839TIP3    H244713   6.565   6.629  11.335  0.4404  0.7689  0.7721
 6840TIP3   OH244714   7.492   5.409  11.776 -0.0726  0.6867  0.1307
 6840TIP3    H144715   7.449   5.337  11.731 -1.0434  1.0699  0.4142
 6840TIP3    H244716   7.554   5.367  11.836 -0.4513  0.0975  0.1111
 6841TIP3   OH244717   1.366   0.438  12.185 -0.3508 -0.2282  0.0103
 6841TIP3    H144718   1.283   0.485  12.183 -0.3371 -0.1931  0.2311
 6841TIP3    H244719   1.421   0.482  12.119 -0.5541 -0.3424 -0.2369
 6842TIP3   OH244720   5.172   3.734  10.930 -0.0933  0.5449  0.0986
 6842TIP3    H144721   5.236   3.721  10.860 -1.1060 -2.6951 -0.3757
 6842TIP3    H244722   5.096   3.774  10.887  0.2414  0.9725 -0.0972
 6843TIP3   OH244723   6.914   4.285  12.692  0.4286  0.1969 -0.4142
 6843TIP3    H144724   6.941   4.347  12.759  2.8860  0.2586 -1.3829
 6843TIP3    H244725   6.825   4.312  12.669 -0.4537  0.2639  2.6295
 6844TIP3   OH244726   7.616   1.018  11.108  0.3265  0.2369 -0.2279
 6844TIP3    H144727   7.672   1.049  11.037  0.9848  0.6451  0.4545
 6844TIP3    H244728   7.648   0.930  11.128 -0.1137 -0.0319 -0.6941
 6845TIP3   OH244729   4.374   3.010  12.143  0.6824 -0.4336  0.2360
 6845TIP3    H144730   4.430   3.054  12.208 -1.3330  0.4522  1.4500
 6845TIP3    H244731   4.368   2.920  12.175 -0.3818  0.0214  1.3999
 6846TIP3   OH244732   0.172   7.392  13.029 -0.0361 -0.4523 -0.0645
 6846TIP3    H144733   0.248   7.402  13.087  0.4209  2.6764 -0.9843
 6846TIP3    H244734   0.114   7.332  13.075  2.1644 -1.4713  1.5621
 6847TIP3   OH244735   2.795   3.305  12.701 -0.3555 -0.1996  0.2676
 6847TIP3    H144736   2.706   3.270  12.709 -1.1004  1.6675  0.6138
 6847TIP3    H244737   2.813   3.303  12.607 -0.6568 -0.8302  0.2177
 6848TIP3   OH244738   1.072   7.410  11.419  0.1334  0.2505 -0.2563
 6848TIP3    H144739   1.155   7.363  11.429 -0.7608 -1.1608  1.1119
 6848TIP3    H244740   1.091   7.482  11.360  2.1191 -0.5613 -0.6637
 6849TIP3   OH244741   0.273   5.967  10.676 -0.1285  0.2866 -0.6967
 6849TIP3    H144742   0.188   5.991  10.712  0.2901 -0.3936  0.8528
 6849TIP3    H244743   0.336   6.011  10.734  0.5766 -0.9247 -0.5183
 6850TIP3   OH244744   2.149   3.977  11.846  0.0062 -0.0143 -0.2333
 6850TIP3    H144745   2.124   4.009  11.759 -1.9249  0.5527  0.4613
 6850TIP3    H244746   2.169   4.057  11.895 -0.0857 -0.2309  0.1605
 6851TIP3   OH244747   6.134   4.501  12.206  0.1097 -0.3065 -0.5381
 6851TIP3    H144748   6.139   4.424  12.263 -0.2453 -0.7220 -1.0590
 6851TIP3    H244749   6.044   4.532  12.215  0.2827  0.1145 -0.2454
 6852TIP3   OH244750   4.262   1.621  12.814  0.2392  0.1098 -0.3299
 6852TIP3    H144751   4.357   1.630  12.821  0.2543 -0.3739  0.1240
 6852TIP3    H244752   4.228   1.685  12.877  0.3121 -1.3276  1.2265
 6853TIP3   OH244753   7.510   2.429  11.109 -0.5758  0.4430  0.0768
 6853TIP3    H144754   7.600   2.427  11.141 -0.8637  0.2840  0.9144
 6853TIP3    H244755   7.514   2.479  11.028  0.3478  0.0066 -0.1613
 6854TIP3   OH244756   7.059   6.505  11.594 -0.6104  0.0292  0.3043
 6854TIP3    H144757   7.020   6.431  11.548 -2.6005  0.1438  1.6989
 6854TIP3    H244758   7.115   6.466  11.661  0.7156 -0.1387 -0.8479
 6855TIP3   OH244759   1.759   5.149  11.145 -0.4217  0.2486 -0.5008
 6855TIP3    H144760   1.797   5.173  11.061 -1.2897 -0.1734 -1.0274
 6855TIP3    H244761   1.721   5.231  11.178 -1.6785  0.0467 -1.3867
 6856TIP3   OH244762   6.144   6.535  10.743  0.9221 -0.0267 -0.0699
 6856TIP3    H144763   6.135   6.440  10.738 -0.0142 -0.0705  1.5483
 6856TIP3    H244764   6.231   6.553  10.706  0.5820 -1.3525 -1.5860
 6857TIP3   OH244765   6.722   6.314  10.766 -0.5675  0.3107 -0.2132
 6857TIP3    H144766   6.687   6.241  10.819  2.8268 -0.9226  0.5925
 6857TIP3    H244767   6.677   6.391  10.800 -1.2931 -0.9245  1.8468
 6858TIP3   OH244768   2.524   3.002  12.465  0.7613 -0.1792 -0.3852
 6858TIP3    H144769   2.432   2.975  12.476  0.9377 -1.3474 -1.4785
 6858TIP3    H244770   2.546   3.045  12.548 -1.4507  2.2688 -0.9265
 6859TIP3   OH244771   3.733   7.305  11.003  0.7425  0.0795 -1.0389
 6859TIP3    H144772   3.664   7.370  11.010  1.8707  1.1590  3.2378
 6859TIP3    H244773   3.689   7.221  11.013 -0.1529  0.6434 -0.1070
 6860TIP3   OH244774   2.668   4.825  13.481 -0.1785 -0.2997  0.0631
 6860TIP3    H144775   2.728   4.769  13.530 -0.5545 -0.9896 -0.2515
 6860TIP3    H244776   2.720   4.902  13.459  0.1557 -0.2196  1.0630
 6861TIP3   OH244777   2.972   6.396  10.399 -0.8695  0.4719  0.5460
 6861TIP3    H144778   3.050   6.413  10.346 -1.1322  0.3294  0.1045
 6861TIP3    H244779   2.993   6.431  10.485 -0.3623  0.5412  0.3974
 6862TIP3   OH244780   3.779   4.352  12.880  0.2480  0.3179  0.0786
 6862TIP3    H144781   3.767   4.447  12.884  0.0820  0.3406 -0.7194
 6862TIP3    H244782   3.741   4.327  12.796  0.6461 -0.4003  0.1036
 6863TIP3   OH244783   5.617   3.308  10.642 -0.3030 -0.0149 -0.0021
 6863TIP3    H144784   5.641   3.310  10.550 -0.0776  0.5725  0.0626
 6863TIP3    H244785   5.683   3.362  10.686 -1.2034  0.8798  0.3036
 6864TIP3   OH244786   6.195   4.415  11.877 -0.0139 -0.1275 -0.1172
 6864TIP3    H144787   6.156   4.397  11.792 -1.2411 -0.8623  0.5802
 6864TIP3    H244788   6.178   4.337  11.929 -0.6503  0.9021  1.2776
 6865TIP3   OH244789   4.562   1.081  11.277  0.0015  0.3443  0.1603
 6865TIP3    H144790   4.644   1.131  11.277  0.3215 -0.1014  1.8888
 6865TIP3    H244791   4.496   1.144  11.305 -0.0070  0.3863  0.0441
 6866TIP3   OH244792   7.120   4.644  12.192  0.1372  0.2194 -0.5684
 6866TIP3    H144793   7.091   4.726  12.152 -0.1723  0.2634 -0.2582
 6866TIP3    H244794   7.171   4.601  12.123 -1.8127 -0.5051 -1.6442
 6867TIP3   OH244795   3.673   5.875  10.764 -1.0920  0.3200  0.3939
 6867TIP3    H144796   3.627   5.831  10.693 -1.3106 -0.6979  1.1479
 6867TIP3    H244797   3.765   5.851  10.753 -0.8188  1.6797 -0.6200
 6868TIP3   OH244798   4.582   2.863  11.742 -0.2067 -0.1542  0.1260
 6868TIP3    H144799   4.590   2.922  11.666 -2.4316  0.9213  0.6382
 6868TIP3    H244800   4.656   2.887  11.798 -0.2588  1.1711 -0.3314
 6869TIP3   OH244801   6.431   3.232  12.633 -0.1092  0.4035 -0.5704
 6869TIP3    H144802   6.437   3.183  12.715  2.3914  1.8071  0.2077
 6869TIP3    H244803   6.423   3.165  12.565  0.9824 -0.9804  0.5948
 6870TIP3   OH244804   2.398   7.041  13.167  0.4706 -0.3046  0.0581
 6870TIP3    H144805   2.481   7.057  13.212  0.8415  0.2004 -0.7902
 6870TIP3    H244806   2.405   7.090  13.085 -0.9943  0.4020  0.3332
 6871TIP3   OH244807   0.871   1.263  11.177  0.0064  0.4053 -0.5052
 6871TIP3    H144808   0.882   1.317  11.099 -1.3383  0.7197 -0.5010
 6871TIP3    H244809   0.800   1.203  11.154 -0.2144  0.3224  0.3786
 6872TIP3   OH244810   0.187   1.280  11.039 -0.2934 -0.0666  0.1734
 6872TIP3    H144811   0.220   1.244  10.957  0.4873 -1.2243  0.9635
 6872TIP3    H244812   0.159   1.369  11.017  1.4234  0.2332 -0.9986
 6873TIP3   OH244813   6.768   3.582   9.914  0.2210 -0.1122 -0.3990
 6873TIP3    H144814   6.784   3.570   9.820 -0.0773  0.3985 -0.5165
 6873TIP3    H244815   6.856   3.592   9.951  0.2553  2.5825 -1.0287
 6874TIP3   OH244816   6.401   4.686  11.303  0.0623  0.3877  0.5082
 6874TIP3    H144817   6.487   4.678  11.344  0.5524  0.3884 -0.4967
 6874TIP3    H244818   6.382   4.779  11.305 -0.5538  0.2649  1.9660
 6875TIP3   OH244819   7.472   4.364  11.533 -0.8661 -0.9061  0.3383
 6875TIP3    H144820   7.492   4.327  11.447 -3.9233  2.1005 -1.9875
 6875TIP3    H244821   7.391   4.321  11.560 -0.6975 -0.8191  1.0042
 6876TIP3   OH244822   0.377   6.986  11.099 -0.2645 -0.2822  0.5861
 6876TIP3    H144823   0.287   6.990  11.131  0.0787  0.9365  1.4615
 6876TIP3    H244824   0.422   6.927  11.160 -0.4245 -0.7771  0.2333
 6877TIP3   OH244825   2.535   7.465  11.281 -0.0400  0.2317 -0.1167
 6877TIP3    H144826   2.483   7.538  11.247 -0.8593  0.4711  1.5563
 6877TIP3    H244827   2.575   7.499  11.361  1.4920 -0.4353 -0.5662
 6878TIP3   OH244828   7.445   6.242  10.775  0.1156 -0.2059  0.2249
 6878TIP3    H144829   7.359   6.229  10.736  1.1517 -2.4167 -1.5492
 6878TIP3    H244830   7.449   6.177  10.846  0.4656 -0.3976  0.0325
 6879TIP3   OH244831   5.707   6.491  12.550 -0.1329  0.0967 -0.3336
 6879TIP3    H144832   5.720   6.548  12.475 -1.4398  0.6679 -0.1525
 6879TIP3    H244833   5.773   6.520  12.614  1.7052 -1.1032 -1.6087
 6880TIP3   OH244834   3.323   5.819  13.024 -0.4585 -0.0335 -0.0716
 6880TIP3    H144835   3.230   5.819  13.044 -0.3406  0.3535  0.4806
 6880TIP3    H244836   3.365   5.860  13.100  0.2047 -0.6353 -0.0988
 6881TIP3   OH244837   2.649   7.609  11.485  0.0153  0.5456 -0.1262
 6881TIP3    H144838   2.704   7.614  11.563 -0.4257 -0.6047  0.2730
 6881TIP3    H244839   2.602   7.693  11.483  1.2057  1.2360 -0.0612
 6882TIP3   OH244840   5.729   6.794  11.280  0.2333 -0.3117 -0.3770
 6882TIP3    H144841   5.662   6.859  11.260  0.5150  0.5166  1.2002
 6882TIP3    H244842   5.708   6.720  11.224 -0.9331  0.6069 -1.2056
 6883TIP3   OH244843   3.870   0.887  11.774  0.1308 -0.2015  0.4120
 6883TIP3    H144844   3.859   0.896  11.869  2.0426 -1.5054  0.7935
 6883TIP3    H244845   3.959   0.917  11.757 -0.5941  1.2429 -1.2111
 6884TIP3   OH244846   4.991   3.773  11.580  0.2328 -1.2085 -0.0815
 6884TIP3    H144847   5.051   3.835  11.622 -1.6696  1.2366 -0.6971
 6884TIP3    H244848   5.010   3.782  11.486 -1.0496 -0.3677 -0.2863
 6885TIP3   OH244849   3.556   3.609  12.325 -0.1185 -0.0777  0.2569
 6885TIP3    H144850   3.617   3.552  12.278 -1.9534 -1.0933 -1.0280
 6885TIP3    H244851   3.497   3.549  12.371 -1.6134  0.7367 -0.4920
 6886TIP3   OH244852   7.096   1.641  11.079 -0.1612  0.0804  0.0833
 6886TIP3    H144853   7.184   1.613  11.053  0.0868 -0.2749  1.2472
 6886TIP3    H244854   7.109   1.681  11.164 -0.9698  1.0833 -0.2561
 6887TIP3   OH244855   3.068   6.051  11.117 -0.3137 -0.2420 -0.0317
 6887TIP3    H144856   3.153   6.030  11.079 -0.3638  0.2304 -0.4096
 6887TIP3    H244857   3.004   6.015  11.055 -0.3963  0.4124 -0.3241
 6888TIP3   OH244858   5.952   1.586  11.477 -0.7567  0.9362  0.4250
 6888TIP3    H144859   5.996   1.531  11.412 -1.5447 -0.9731  1.4321
 6888TIP3    H244860   5.859   1.569  11.464 -0.9663  1.2523  1.4325
 6889TIP3   OH244861   3.363   0.202  11.267 -0.3130 -0.4435 -0.3590
 6889TIP3    H144862   3.289   0.253  11.235  0.4565 -0.3083 -2.0431
 6889TIP3    H244863   3.412   0.262  11.323 -1.4840 -0.5602  0.8388
 6890TIP3   OH244864   4.063   6.367  12.294  0.3542  0.1608  0.1443
 6890TIP3    H144865   3.980   6.412  12.276 -0.2437 -1.1333 -0.4638
 6890TIP3    H244866   4.127   6.412  12.239 -0.0273  0.8889  0.2821
 6891TIP3   OH244867   5.615   3.347  12.881  0.7454  0.5437 -0.2065
 6891TIP3    H144868   5.547   3.332  12.815  0.1770  0.1981  0.4543
 6891TIP3    H244869   5.681   3.280  12.862  0.6271  0.4989 -0.4700
 6892TIP3   OH244870   4.330   6.165  11.394  0.3817  0.0016  0.0977
 6892TIP3    H144871   4.374   6.139  11.475 -0.1562 -2.0907 -0.2351
 6892TIP3    H244872   4.393   6.142  11.325  0.1305  0.1643 -0.1862
 6893TIP3   OH244873   1.303   1.171  11.976 -0.5892  0.0344 -0.3198
 6893TIP3    H144874   1.294   1.229  12.052 -0.4242 -1.2474  0.7189
 6893TIP3    H244875   1.376   1.208  11.926 -1.2499  1.3892 -0.3272
 6894TIP3   OH244876   0.836   1.274  10.680  0.2910 -0.1309 -0.3215
 6894TIP3    H144877   0.833   1.281  10.585  0.3045  0.9652 -0.2590
 6894TIP3    H244878   0.776   1.203  10.702 -1.5629  1.1696 -1.0043
 6895TIP3   OH244879   4.495   4.986  13.182  0.0153 -0.5028  0.3560
 6895TIP3    H144880   4.494   4.922  13.252 -1.8175 -0.7409  0.1569
 6895TIP3    H244881   4.410   4.978  13.139  0.8533  0.0038 -1.5685
 6896TIP3   OH244882   4.878   0.298  12.039  0.5737 -0.0823 -0.1831
 6896TIP3    H144883   4.906   0.370  12.096  0.9261 -0.7965  0.5726
 6896TIP3    H244884   4.933   0.306  11.961  0.5901  0.4839 -0.1145
 6897TIP3   OH244885   4.235   4.799  12.445 -0.1566 -0.3582 -0.4682
 6897TIP3    H144886   4.247   4.890  12.419 -1.0472  0.7132  2.4060
 6897TIP3    H244887   4.207   4.754  12.365  1.1393  1.6674 -2.1540
 6898TIP3   OH244888   5.986   1.722  12.980 -0.0636  0.5475 -0.4337
 6898TIP3    H144889   5.909   1.778  12.989  1.3166  2.2382  1.7582
 6898TIP3    H244890   6.052   1.778  12.939  0.4230 -0.5134 -1.1601
 6899TIP3   OH244891   2.671   3.878  11.122 -0.2162 -0.3672  0.3048
 6899TIP3    H144892   2.687   3.841  11.036 -1.4066 -3.4349  1.2581
 6899TIP3    H244893   2.714   3.817  11.183 -0.0182  1.3021  1.9373
 6900TIP3   OH244894   3.564   6.960  11.748 -0.2604 -0.7071 -0.3762
 6900TIP3    H144895   3.529   6.930  11.664 -2.3470 -0.5539  0.3709
 6900TIP3    H244896   3.578   7.054  11.737  2.4087 -1.1508 -1.4500
 6901TIP3   OH244897   0.588   7.358  12.386  0.4244  0.2701 -0.2110
 6901TIP3    H144898   0.631   7.279  12.352  2.4508  0.8714  0.7611
 6901TIP3    H244899   0.496   7.348  12.361  0.4829 -2.6461  0.3423
 6902TIP3   OH244900   0.286   4.559  11.411  0.3145 -0.0986 -0.1146
 6902TIP3    H144901   0.353   4.627  11.400 -0.2117  0.4656  0.1178
 6902TIP3    H244902   0.326   4.496  11.471  1.2583 -0.6153 -1.2291
 6903TIP3   OH244903   6.091   4.994  11.432 -0.0526 -0.1641  0.2436
 6903TIP3    H144904   6.146   4.925  11.469 -0.8433 -0.6916  0.4660
 6903TIP3    H244905   6.110   4.992  11.338 -0.4938 -1.0934  0.1614
 6904TIP3   OH244906   4.027   3.860  11.177  0.1096  0.8957  0.1806
 6904TIP3    H144907   4.051   3.947  11.145 -0.0076  0.5299 -0.9139
 6904TIP3    H244908   4.081   3.800  11.126 -0.1943  0.2910  0.5634
 6905TIP3   OH244909   0.745   6.368  10.651 -0.4922  0.2742 -0.4269
 6905TIP3    H144910   0.787   6.377  10.566 -0.1159 -0.6505 -0.3496
 6905TIP3    H244911   0.777   6.442  10.702 -0.1506  0.4278 -0.8572
 6906TIP3   OH244912   1.149   0.782  11.156 -0.3750 -0.1464 -0.1965
 6906TIP3    H144913   1.182   0.833  11.082 -0.5290 -0.4917 -0.5071
 6906TIP3    H244914   1.226   0.761  11.208 -0.0505 -1.1455 -1.0351
 6907TIP3   OH244915   0.201   1.591  11.635  0.3427 -0.2760  0.0175
 6907TIP3    H144916   0.209   1.583  11.730 -3.2994  1.7045  0.6665
 6907TIP3    H244917   0.292   1.595  11.603  1.6981  0.7477  3.5775
 6908TIP3   OH244918   6.207   3.912  12.020  0.0576 -0.7395 -0.1375
 6908TIP3    H144919   6.286   3.965  12.031 -0.0980 -0.4233 -0.5053
 6908TIP3    H244920   6.135   3.975  12.024 -0.3024 -1.2185  1.8666
 6909TIP3   OH244921   3.886   6.634  12.255  0.4501  0.3557  0.0523
 6909TIP3    H144922   3.896   6.660  12.346  2.5003  1.5124 -0.4384
 6909TIP3    H244923   3.874   6.717  12.208 -2.1985 -0.3083 -0.6175
 6910TIP3   OH244924   2.900   7.219  11.052  0.3770  0.3225  0.3149
 6910TIP3    H144925   2.812   7.257  11.043  0.4555  0.2806 -0.7944
 6910TIP3    H244926   2.959   7.290  11.027  0.7851  0.9459  2.8555
 6911TIP3   OH244927   5.164   7.196  11.923 -0.1700  0.4202  0.1551
 6911TIP3    H144928   5.230   7.205  11.854 -0.3330 -1.2244 -0.2469
 6911TIP3    H244929   5.080   7.203  11.876 -0.4205 -4.2035 -0.5905
 6912TIP3   OH244930   1.797   2.736  10.714 -0.1468  0.1762 -0.2560
 6912TIP3    H144931   1.820   2.829  10.714  0.9399 -0.0607  1.3826
 6912TIP3    H244932   1.788   2.713  10.806  1.2231 -1.7251 -0.5449
 6913TIP3   OH244933   5.113   4.256  12.650  0.0906 -0.1180  0.2159
 6913TIP3    H144934   5.036   4.208  12.619  0.1950  0.0753 -0.3617
 6913TIP3    H244935   5.081   4.308  12.724 -0.6532  0.9360 -0.8078
 6914TIP3   OH244936   0.006   7.160  10.429 -0.2050 -0.2761  0.2558
 6914TIP3    H144937   0.062   7.083  10.435  1.0006  0.5945  0.5216
 6914TIP3    H244938  -0.055   7.150  10.503  0.2079 -0.7656  0.5411
 6915TIP3   OH244939   2.182   1.027  11.797 -0.0010 -0.2420  0.2292
 6915TIP3    H144940   2.257   0.971  11.814 -0.5054 -0.9932  0.0689
 6915TIP3    H244941   2.125   0.973  11.741 -0.5156  0.4207  0.1054
 6916TIP3   OH244942   6.009   6.882  10.988 -0.3582  0.2129 -0.1241
 6916TIP3    H144943   5.950   6.957  11.002 -1.4542 -0.5859 -0.3617
 6916TIP3    H244944   6.071   6.914  10.923  0.6453  1.6912  1.4618
 6917TIP3   OH244945   4.921   4.370  13.542  0.1594 -0.3581 -0.5694
 6917TIP3    H144946   4.946   4.452  13.499 -0.7217  0.6599  0.7849
 6917TIP3    H244947   4.836   4.348  13.503 -0.4555  0.3562  0.3414
 6918TIP3   OH244948   5.401   6.112  11.993 -0.0685  0.7762  0.7374
 6918TIP3    H144949   5.485   6.154  12.007  1.0638 -0.8448 -0.7448
 6918TIP3    H244950   5.420   6.038  11.936 -2.0674 -1.2365  2.4550
 6919TIP3   OH244951   2.221   3.930  12.842 -0.0819 -0.0525  1.0849
 6919TIP3    H144952   2.231   4.022  12.817  0.9987 -0.6903 -1.0805
 6919TIP3    H244953   2.284   3.918  12.913  0.5456  0.6326  0.6640
 6920TIP3   OH244954   3.275   2.350  10.603  0.1162  0.3540 -0.4729
 6920TIP3    H144955   3.323   2.329  10.523 -0.7213  0.3018 -0.9669
 6920TIP3    H244956   3.255   2.443  10.595 -0.4003  0.2371 -0.5615
 6921TIP3   OH244957   4.356   7.138  11.565 -0.5265  0.4182  0.1546
 6921TIP3    H144958   4.349   7.043  11.564 -0.6010  0.4246 -0.7945
 6921TIP3    H244959   4.422   7.159  11.500  0.1918  0.9809  1.0370
 6922TIP3   OH244960   6.747   1.217  11.079  0.7162  0.5722 -0.0408
 6922TIP3    H144961   6.660   1.211  11.039  0.3949 -0.8550  0.7930
 6922TIP3    H244962   6.806   1.177  11.015  0.2344 -1.5051  0.7416
 6923TIP3   OH244963   1.948   6.210  10.658  0.1284  0.5001 -1.1157
 6923TIP3    H144964   1.886   6.269  10.616 -0.4578 -0.0127 -0.9879
 6923TIP3    H244965   2.033   6.235  10.622 -0.2011  0.9433 -1.6008
 6924TIP3   OH244966   5.945   6.714  12.021  0.4765  0.0889 -1.0864
 6924TIP3    H144967   5.899   6.684  11.943 -3.5349 -1.3267  1.5212
 6924TIP3    H244968   6.020   6.655  12.029 -0.6755 -1.6441 -2.2986
 6925TIP3   OH244969   5.975   4.579  11.586  0.0674  0.0421  0.4136
 6925TIP3    H144970   5.959   4.581  11.492 -1.2734 -1.2306  0.5640
 6925TIP3    H244971   6.006   4.490  11.603 -0.3571  0.0452  1.2585
 6926TIP3   OH244972   5.059   7.393  10.641  0.4335  0.4979 -0.2093
 6926TIP3    H144973   5.075   7.467  10.700 -2.2579  0.5096  0.6405
 6926TIP3    H244974   5.029   7.432  10.560  0.7062  0.3696 -0.3754
 6927TIP3   OH244975   2.222   2.614  13.416 -0.8261 -0.5625 -0.8354
 6927TIP3    H144976   2.231   2.598  13.510  2.3735  2.5816 -0.3443
 6927TIP3    H244977   2.296   2.568  13.376 -0.4739  0.4107 -1.3604
 6928TIP3   OH244978   0.492   4.256  11.819 -0.5157  0.2147  0.0945
 6928TIP3    H144979   0.509   4.184  11.879  1.6246  0.1357 -0.5303
 6928TIP3    H244980   0.551   4.326  11.849 -1.4450  1.1580 -0.2396
 6929TIP3   OH244981   3.321   0.588  13.387  0.3938  0.3620 -0.3283
 6929TIP3    H144982   3.299   0.677  13.417 -0.8755  0.1808 -0.6473
 6929TIP3    H244983   3.345   0.600  13.295  1.0262  0.4721 -0.1547
 6930TIP3   OH244984   7.067   6.707  12.985  0.1874 -0.3476  0.1486
 6930TIP3    H144985   7.005   6.758  13.036 -0.4731  1.9522 -2.6550
 6930TIP3    H244986   7.153   6.733  13.018 -0.2314 -1.8146  2.5318
 6931TIP3   OH244987   5.332   2.945  11.613  0.0432  0.2637 -0.0499
 6931TIP3    H144988   5.335   3.014  11.679  1.0605 -0.5117  0.7472
 6931TIP3    H244989   5.357   2.866  11.660 -0.4211 -0.5347 -1.1026
 6932TIP3   OH244990   7.150   1.275  10.294 -0.4137  0.2180  0.5301
 6932TIP3    H144991   7.077   1.305  10.349 -0.3095  0.1628  0.6989
 6932TIP3    H244992   7.113   1.202  10.243 -0.9529  1.2561 -0.6162
 6933TIP3   OH244993   2.405   5.980  12.764  0.1586  0.3076  0.0892
 6933TIP3    H144994   2.493   6.018  12.774  0.4292 -0.6141  1.6740
 6933TIP3    H244995   2.411   5.896  12.810 -1.1291 -0.4954 -1.1519
 6934TIP3   OH244996   2.534   4.399  11.706  0.3955 -0.7893  0.3167
 6934TIP3    H144997   2.624   4.377  11.683  0.9715  1.6146 -0.0134
 6934TIP3    H244998   2.525   4.491  11.681 -0.9661  0.1717  3.7842
 6935TIP3   OH244999   6.678   4.413  10.178  0.5463 -0.4347  0.3689
 6935TIP3    H145000   6.728   4.443  10.102 -0.5564 -1.1110 -0.6514
 6935TIP3    H245001   6.740   4.357  10.226  1.1422 -0.3054 -0.2293
 6936TIP3   OH245002   3.371   1.003  12.682  0.2974  0.2568  0.1714
 6936TIP3    H145003   3.351   1.067  12.751 -1.2810  1.0309 -0.9417
 6936TIP3    H245004   3.455   1.033  12.645  0.7191  0.3324  1.1600
 6937TIP3   OH245005   5.012   5.183  12.294 -0.0587  0.2340  0.0860
 6937TIP3    H145006   5.035   5.111  12.353  0.8910  0.0911 -0.4432
 6937TIP3    H245007   4.924   5.162  12.264  0.8157 -1.6221 -1.3773
 6938TIP3   OH245008   6.903   0.673  11.799 -0.1692 -0.1898 -0.3232
 6938TIP3    H145009   6.950   0.631  11.726 -0.6679 -2.0377  0.3728
 6938TIP3    H245010   6.814   0.685  11.766 -0.3969 -1.0325 -0.0456
 6939TIP3   OH245011   5.121   6.848  11.872 -0.1894  0.2310  0.3548
 6939TIP3    H145012   5.133   6.820  11.963 -0.8656  0.6357  0.5782
 6939TIP3    H245013   5.027   6.865  11.865 -0.2003 -0.1991 -0.5418
 6940TIP3   OH245014   3.617   6.371  12.732  0.4286  0.5352 -0.3574
 6940TIP3    H145015   3.616   6.437  12.801  0.2693  0.2642 -0.0975
 6940TIP3    H245016   3.629   6.421  12.651 -1.2650  1.0289 -0.3384
 6941TIP3   OH245017   6.240   5.749  11.132  0.0729 -0.2413 -0.3732
 6941TIP3    H145018   6.265   5.824  11.078  2.1572 -1.4342 -1.1519
 6941TIP3    H245019   6.224   5.678  11.069 -2.1640 -0.4396  0.3248
 6942TIP3   OH245020   0.069   0.451  11.939  0.0481 -0.0276 -0.1657
 6942TIP3    H145021  -0.005   0.492  11.896  0.5806  0.0289 -1.0403
 6942TIP3    H245022   0.090   0.511  12.012 -2.3439 -1.3060  1.7304
 6943TIP3   OH245023   4.973   2.146  10.548 -0.3393  0.2731  0.5848
 6943TIP3    H145024   5.003   2.228  10.586  0.5598 -0.2545  1.0478
 6943TIP3    H245025   4.936   2.171  10.463 -0.4874  1.2008  0.9056
 6944TIP3   OH245026   6.025   5.262  11.795  0.5450 -0.9924 -0.4079
 6944TIP3    H145027   6.106   5.312  11.788  1.0660 -1.7371  0.0602
 6944TIP3    H245028   6.014   5.248  11.889 -0.5763 -0.2057 -0.4050
 6945TIP3   OH245029   7.142   6.093  11.581  0.2963  0.2412  0.5355
 6945TIP3    H145030   7.115   6.001  11.577 -0.2869  0.4598 -2.6080
 6945TIP3    H245031   7.238   6.089  11.580  0.2816 -0.3330  0.8720
 6946TIP3   OH245032   0.073   2.682  10.380 -0.6723 -0.4325  0.5569
 6946TIP3    H145033  -0.004   2.681  10.437 -2.3928  2.2715 -1.5329
 6946TIP3    H245034   0.044   2.642  10.298  0.0152  0.9027 -0.3765
 6947TIP3   OH245035   0.379   3.380  10.566  0.4401  0.0994  0.1041
 6947TIP3    H145036   0.306   3.396  10.626 -0.4717  0.4709 -1.0520
 6947TIP3    H245037   0.442   3.450  10.585 -0.0418  0.4798  0.3320
 6948TIP3   OH245038   4.484   0.634  12.301  0.0194  0.3513 -0.3351
 6948TIP3    H145039   4.570   0.661  12.333  0.7507 -0.8998 -1.1411
 6948TIP3    H245040   4.470   0.548  12.340 -0.1931 -0.1001 -1.3788
 6949TIP3   OH245041   5.793   2.320  12.654  0.0021 -0.6947  0.0061
 6949TIP3    H145042   5.884   2.333  12.625  0.3939 -0.1759  1.4084
 6949TIP3    H245043   5.788   2.227  12.676  0.4162 -0.5825  0.6088
 6950TIP3   OH245044   6.669   1.278  11.567 -0.3033  0.1404  0.0889
 6950TIP3    H145045   6.736   1.266  11.635  0.3434 -0.2985 -0.6217
 6950TIP3    H245046   6.714   1.262  11.485 -1.2320  0.0754 -0.4223
 6951TIP3   OH245047   1.067   4.881  13.430  0.0615  0.0169  0.0094
 6951TIP3    H145048   1.111   4.858  13.348  0.3182 -3.0282  0.8688
 6951TIP3    H245049   1.102   4.819  13.494 -1.7909  0.8178  1.9248
 6952TIP3   OH245050   4.717   1.154  12.361  0.1608  0.5157 -0.0053
 6952TIP3    H145051   4.628   1.186  12.353  0.7629  2.4146  0.4004
 6952TIP3    H245052   4.759   1.212  12.424  1.6784 -0.3658 -0.1286
 6953TIP3   OH245053   4.096   0.564  12.305  0.8383  0.1777 -0.0507
 6953TIP3    H145054   4.059   0.477  12.287 -0.4554  0.7618 -0.3168
 6953TIP3    H245055   4.149   0.583  12.228  0.7265 -0.1764 -0.2200
 6954TIP3   OH245056   3.355   6.642  10.677 -0.2106 -0.2756 -0.2876
 6954TIP3    H145057   3.340   6.722  10.728 -1.3323 -0.4753 -0.2977
 6954TIP3    H245058   3.339   6.668  10.586  2.4837  0.2713 -0.7201
 6955TIP3   OH245059   0.533   7.183  10.758  0.0083 -0.3154 -0.3477
 6955TIP3    H145060   0.606   7.229  10.718  1.1883 -0.6305  1.3603
 6955TIP3    H245061   0.561   7.165  10.848 -0.7257 -3.5303 -0.6173
 6956TIP3   OH245062   1.220   3.103  12.163  0.3310 -0.2121  0.0129
 6956TIP3    H145063   1.171   3.032  12.121 -0.1805 -0.3742  0.8428
 6956TIP3    H245064   1.265   3.148  12.092  0.5103 -1.2593 -0.5487
 6957TIP3   OH245065   0.659   7.323  12.031  0.0095  0.1876  0.2430
 6957TIP3    H145066   0.710   7.338  12.110 -1.4146  0.9546  1.0552
 6957TIP3    H245067   0.617   7.408  12.013  0.4815  0.1069 -1.4806
 6958TIP3   OH245068   1.742   4.055  11.335 -0.0646 -0.7446  0.1159
 6958TIP3    H145069   1.823   4.028  11.378  0.2050  1.6022  1.2394
 6958TIP3    H245070   1.725   4.143  11.368 -2.0721 -0.4135 -1.5547
 6959TIP3   OH245071   2.577   2.518  12.006  0.1604  0.1893 -0.2187
 6959TIP3    H145072   2.663   2.480  12.025 -0.2969 -0.0076  1.7280
 6959TIP3    H245073   2.586   2.610  12.034  0.0111  0.4303 -0.9396
 6960TIP3   OH245074   6.580   7.254  11.418 -0.2040 -0.4743 -0.1682
 6960TIP3    H145075   6.614   7.210  11.340 -1.5804 -0.6480 -0.6930
 6960TIP3    H245076   6.485   7.252  11.408 -0.4162 -0.5058  1.5283
 6961TIP3   OH245077   4.688   7.268  11.693  0.3503 -0.1738  0.2710
 6961TIP3    H145078   4.780   7.281  11.718  0.2097  0.7459  0.3474
 6961TIP3    H245079   4.646   7.233  11.771  0.4886  0.0702  0.4561
 6962TIP3   OH245080   0.202   0.200  11.142  0.2029 -0.6221  0.3899
 6962TIP3    H145081   0.286   0.245  11.143  0.6581 -1.3666 -1.4347
 6962TIP3    H245082   0.162   0.224  11.058 -1.3213 -0.4884  1.1058
 6963TIP3   OH245083   7.325   4.035  11.587 -0.7877  0.0686 -0.1992
 6963TIP3    H145084   7.388   4.022  11.658 -1.0044 -0.7472 -0.1469
 6963TIP3    H245085   7.248   4.073  11.630 -1.7676 -2.4146  0.4535
 6964TIP3   OH245086   6.829   5.601  10.890  0.2029  0.4774  0.7173
 6964TIP3    H145087   6.830   5.673  10.953  0.3721  2.3364 -1.2523
 6964TIP3    H245088   6.743   5.561  10.899 -1.2281  3.0626 -0.2622
 6965TIP3   OH245089   2.686   7.163  11.407 -0.3608 -0.5862 -0.0314
 6965TIP3    H145090   2.610   7.172  11.465 -0.2247  0.8236 -0.0437
 6965TIP3    H245091   2.654   7.112  11.333 -1.6103  0.9466 -0.5752
 6966TIP3   OH245092   4.507   1.160  11.603 -0.0119  0.1008 -1.0175
 6966TIP3    H145093   4.596   1.183  11.575 -0.3396  0.2246 -1.9899
 6966TIP3    H245094   4.484   1.229  11.666  1.6377 -1.4939  1.5071
 6967TIP3   OH245095   0.017   3.270  11.923 -0.1143  0.6039  0.1240
 6967TIP3    H145096  -0.057   3.301  11.974  0.1712  0.7301  0.4655
 6967TIP3    H245097  -0.021   3.243  11.839 -0.6387  0.0493  0.5303
 6968TIP3   OH245098   1.610   4.487  12.087 -0.3301 -0.8809  0.2324
 6968TIP3    H145099   1.625   4.563  12.030 -0.6303 -0.5120  0.6390
 6968TIP3    H245100   1.516   4.470  12.080 -0.3497 -0.9044  0.5267
 6969TIP3   OH245101   6.461   5.109  10.224  0.2569 -0.7503  0.3276
 6969TIP3    H145102   6.552   5.080  10.230  0.2479 -0.8986 -0.1632
 6969TIP3    H245103   6.462   5.175  10.154 -0.0492 -0.9177  0.1632
 6970TIP3   OH245104   2.022   0.719  11.068 -0.2292  0.1262  0.2736
 6970TIP3    H145105   2.067   0.650  11.116 -1.1312 -0.6764  0.0113
 6970TIP3    H245106   1.971   0.672  11.001 -2.3807  0.8683  1.2997
 6971TIP3   OH245107   0.873   2.074  12.092 -0.0528 -0.1314 -0.7235
 6971TIP3    H145108   0.858   2.161  12.128 -0.1422 -0.5896  0.3901
 6971TIP3    H245109   0.798   2.022  12.122 -0.3622 -0.4325 -1.9549
 6972TIP3   OH245110   3.044   1.919  13.005 -0.1697  0.2630  0.3440
 6972TIP3    H145111   3.050   1.824  12.997 -0.4130  0.2975 -0.2370
 6972TIP3    H245112   2.992   1.933  13.085 -2.2970 -0.1191 -0.8952
 6973TIP3   OH245113   1.208   6.319  12.300  0.1510  0.8029  0.2727
 6973TIP3    H145114   1.185   6.353  12.386 -0.5035 -1.5583  1.0829
 6973TIP3    H245115   1.301   6.340  12.290  1.0951 -1.6017  2.9597
 6974TIP3   OH245116   7.229   6.640  11.135  0.4357  0.2029  0.6033
 6974TIP3    H145117   7.194   6.659  11.222 -0.2852  0.9576  0.1650
 6974TIP3    H245118   7.189   6.706  11.078  2.1862  0.8058 -0.0178
 6975TIP3   OH245119   5.719   1.642  10.892 -0.3307  0.6235 -0.0426
 6975TIP3    H145120   5.637   1.671  10.935  0.9138  0.5072  2.6356
 6975TIP3    H245121   5.721   1.548  10.906  0.6224  0.7352  0.6598
 6976TIP3   OH245122   5.058   1.937  12.040  0.2287 -0.4506 -0.3809
 6976TIP3    H145123   4.980   1.883  12.043  0.2915 -0.5558 -0.5953
 6976TIP3    H245124   5.036   2.015  12.092  0.6916 -1.3947  1.2912
 6977TIP3   OH245125   4.141   5.135  12.919  0.1303 -0.2291 -0.1616
 6977TIP3    H145126   4.049   5.116  12.897  0.2153 -0.6284 -0.1757
 6977TIP3    H245127   4.139   5.224  12.955 -0.1340  0.1224 -1.0079
 6978TIP3   OH245128   2.375   7.598  10.801  0.6064  0.0935 -0.4849
 6978TIP3    H145129   2.445   7.612  10.737 -0.5825  1.0642 -1.6524
 6978TIP3    H245130   2.295   7.597  10.748 -0.2651 -1.0188  0.7979
 6979TIP3   OH245131   2.702   2.443  12.391 -0.0202  0.0416 -0.3515
 6979TIP3    H145132   2.615   2.471  12.362  0.3759  1.1974 -0.4778
 6979TIP3    H245133   2.706   2.351  12.366 -1.1003  0.0402 -0.6022
 6980TIP3   OH245134   5.963   6.742  10.644 -0.1205 -0.0162  0.0944
 6980TIP3    H145135   6.020   6.774  10.714  0.8440 -0.7088 -0.3563
 6980TIP3    H245136   6.008   6.665  10.610 -0.3300  0.5694 -1.5852
 6981TIP3   OH245137   1.238   3.476  11.302 -0.2926  0.1256  0.1322
 6981TIP3    H145138   1.185   3.461  11.380 -1.1122  0.9138 -0.2549
 6981TIP3    H245139   1.267   3.566  11.309  1.3185 -0.3857  0.4975
 6982TIP3   OH245140   1.713   2.083  12.012 -0.0364 -0.0112 -0.0377
 6982TIP3    H145141   1.690   2.092  11.920 -0.8633  1.0167  0.2563
 6982TIP3    H245142   1.784   2.018  12.012 -1.5593 -1.7619 -1.1484
 6983TIP3   OH245143   4.439   1.887  12.525 -0.2633  0.1814 -0.1139
 6983TIP3    H145144   4.459   1.800  12.490  0.1528 -0.6591  2.0467
 6983TIP3    H245145   4.524   1.932  12.525 -0.1683  0.0082  0.2305
 6984TIP3   OH245146   0.696   5.807  12.417  0.0834 -0.2095  0.3279
 6984TIP3    H145147   0.737   5.818  12.332 -2.2938 -2.4904 -1.2621
 6984TIP3    H245148   0.605   5.787  12.397 -0.9646  0.7722  3.5067
 6985TIP3   OH245149   4.077   7.487  11.962 -0.4597  0.4968 -0.3872
 6985TIP3    H145150   4.161   7.514  11.999 -1.0600  0.1744  1.2996
 6985TIP3    H245151   4.100   7.426  11.893  0.7288  1.2704 -0.7070
 6986TIP3   OH245152   2.908   5.042  11.525  0.2910  0.4131  0.2792
 6986TIP3    H145153   2.959   5.042  11.606 -0.3765 -2.2930  0.7947
 6986TIP3    H245154   2.948   4.974  11.471 -0.6845  0.5973 -0.7257
 6987TIP3   OH245155   3.985   2.299  12.288 -0.1152 -0.1139  0.3211
 6987TIP3    H145156   3.903   2.308  12.336  0.3005  2.3706  0.7252
 6987TIP3    H245157   3.968   2.343  12.205  1.2597  2.0332  1.1004
 6988TIP3   OH245158   3.437   1.354  12.784 -0.4332  0.0038  0.7174
 6988TIP3    H145159   3.483   1.385  12.862  0.9996  2.0176 -0.8153
 6988TIP3    H245160   3.364   1.414  12.774 -0.2323  0.1530  0.1453
 6989TIP3   OH245161   2.969   0.410  10.752 -0.3134  0.4511 -0.0564
 6989TIP3    H145162   3.041   0.472  10.739 -0.7526  0.8674 -0.5725
 6989TIP3    H245163   3.008   0.336  10.798 -0.2517  2.1326  2.8304
 6990TIP3   OH245164   3.339   6.550  11.589 -0.3389 -0.2331  0.6101
 6990TIP3    H145165   3.268   6.500  11.629 -0.4650 -0.2526  0.3617
 6990TIP3    H245166   3.296   6.624  11.547 -0.0055  0.9631  2.3130
 6991TIP3   OH245167   5.188   0.331  10.268  0.1174 -0.3881 -0.3466
 6991TIP3    H145168   5.256   0.343  10.335 -0.1245 -0.8549 -0.0100
 6991TIP3    H245169   5.222   0.378  10.191  1.7519 -2.1837 -0.8136
 6992TIP3   OH245170   2.939   3.819  10.610 -0.0248 -0.0948  0.4736
 6992TIP3    H145171   2.955   3.796  10.519 -1.3163  0.1223  0.1638
 6992TIP3    H245172   2.942   3.915  10.612 -1.4135 -0.0301  0.3458
 6993TIP3   OH245173   0.942   2.217  11.741 -0.7980 -0.1673  0.0972
 6993TIP3    H145174   0.918   2.138  11.693 -0.5538 -0.7724  0.9529
 6993TIP3    H245175   0.930   2.288  11.677 -4.3669 -0.4323  0.2540
 6994TIP3   OH245176   4.686   3.902  11.644 -0.4627 -0.3876  0.3682
 6994TIP3    H145177   4.738   3.982  11.636 -2.7899  1.0930 -1.6527
 6994TIP3    H245178   4.663   3.898  11.737  2.0967 -0.4284  1.0792
 6995TIP3   OH245179   7.564   4.904  10.661 -0.1477 -0.3791 -0.1359
 6995TIP3    H145180   7.655   4.883  10.639 -0.0607 -1.6660  1.2762
 6995TIP3    H245181   7.570   4.951  10.745 -0.6929  1.1455 -0.9167
 6996TIP3   OH245182   4.033   6.218  10.854 -0.3167 -0.3611  0.1723
 6996TIP3    H145183   3.950   6.171  10.865 -0.5459 -0.0036  0.0182
 6996TIP3    H245184   4.013   6.307  10.883  0.0883 -0.3411  0.3818
 6997TIP3   OH245185   2.863   2.385  10.998  0.0186 -0.0738 -0.2945
 6997TIP3    H145186   2.956   2.366  11.004 -0.2491 -1.4365 -0.3269
 6997TIP3    H245187   2.858   2.480  11.008  1.2267 -0.1729  1.6417
 6998TIP3   OH245188   4.198   3.102  11.942  0.1623 -0.3169  0.1821
 6998TIP3    H145189   4.205   3.025  11.886 -2.3476 -0.8779  0.5371
 6998TIP3    H245190   4.242   3.076  12.023 -1.2886 -1.7141  0.5791
 6999TIP3   OH245191   1.326   6.582  10.980  0.1634  0.2851 -0.0425
 6999TIP3    H145192   1.377   6.663  10.978  0.5284  0.1193  1.2471
 6999TIP3    H245193   1.268   6.587  10.905  0.5379  1.5071 -0.2628
 7000TIP3   OH245194   0.836   4.703  11.507  0.3291  0.3095  0.1344
 7000TIP3    H145195   0.810   4.623  11.552  1.2178  0.0970  0.2835
 7000TIP3    H245196   0.881   4.755  11.574  0.4886  0.5682 -0.1692
 7001TIP3   OH245197   7.496   6.982  11.577 -0.4813  0.7573 -0.7286
 7001TIP3    H145198   7.576   6.968  11.628 -0.2956 -1.4634 -1.5157
 7001TIP3    H245199   7.516   7.057  11.520 -0.0680  2.1353  1.1375
 7002TIP3   OH245200   4.702   5.752  12.261 -0.1557 -0.1240 -0.5803
 7002TIP3    H145201   4.742   5.808  12.327 -1.0743  0.9802 -0.9341
 7002TIP3    H245202   4.776   5.708  12.218  0.4796 -0.3792  0.7432
 7003TIP3   OH245203   1.136   6.655  12.047 -0.0710  0.2788 -0.1364
 7003TIP3    H145204   1.070   6.694  11.990  0.1035 -0.4479 -0.8701
 7003TIP3    H245205   1.102   6.567  12.066 -0.0163  0.4332  0.7009
 7004TIP3   OH245206   6.630   2.483  10.401  0.0705 -0.3032  0.1076
 7004TIP3    H145207   6.713   2.498  10.445 -0.4660  2.1229  0.4274
 7004TIP3    H245208   6.601   2.570  10.373 -2.6357 -0.9503  0.5615
 7005TIP3   OH245209   0.722   2.384  12.484 -0.3648  0.1143 -0.4352
 7005TIP3    H145210   0.713   2.469  12.441 -0.4314  0.3521  0.0351
 7005TIP3    H245211   0.816   2.368  12.488 -0.3976 -0.6909 -2.1484
 7006TIP3   OH245212   4.696   7.260  10.911 -0.4075  0.2784 -0.1300
 7006TIP3    H145213   4.612   7.216  10.899 -0.3640  0.5562 -1.6454
 7006TIP3    H245214   4.744   7.245  10.829  0.5558  1.0871  0.2576
 7007TIP3   OH245215   6.224   1.606  11.961 -0.0096  0.4067  0.4221
 7007TIP3    H145216   6.237   1.594  11.868 -0.5788  1.0074  0.2501
 7007TIP3    H245217   6.251   1.697  11.978  0.8232  0.0693  0.9918
 7008TIP3   OH245218   6.564   1.988  10.802  0.3696  0.3708  0.2584
 7008TIP3    H145219   6.530   1.991  10.713  1.7361 -1.2056 -0.3739
 7008TIP3    H245220   6.499   2.035  10.855 -1.9921 -1.2436 -1.0601
 7009TIP3   OH245221   7.622   0.018  11.663 -0.0037 -0.0218  0.0926
 7009TIP3    H145222   7.703   0.053  11.699 -0.3583  1.1481 -0.1962
 7009TIP3    H245223   7.563   0.012  11.738 -0.7157  2.3360 -0.1928
 7010TIP3   OH245224   0.062   5.157  13.294  0.1487 -0.2960 -0.2333
 7010TIP3    H145225   0.068   5.242  13.252  1.1743  0.0615  0.5769
 7010TIP3    H245226   0.034   5.176  13.384  1.6196 -0.6538  0.3348
 7011TIP3   OH245227   7.136   7.055  11.475 -0.0600 -0.0283  0.0517
 7011TIP3    H145228   7.066   7.014  11.424 -0.0296  1.4845 -1.3026
 7011TIP3    H245229   7.125   7.149  11.459  2.2657  0.2599 -0.1819
 7012TIP3   OH245230   1.597   3.252  12.400 -1.0223  0.8544 -0.1576
 7012TIP3    H145231   1.528   3.190  12.377  0.6521 -1.3152  0.3264
 7012TIP3    H245232   1.622   3.227  12.489 -0.0377  1.9934 -0.1008
 7013TIP3   OH245233   6.530   2.982  10.453  0.1596  0.1792 -0.2331
 7013TIP3    H145234   6.546   3.072  10.424  0.5766  0.7301  1.5784
 7013TIP3    H245235   6.597   2.967  10.520 -0.8971 -0.9171  0.6037
 7014TIP3   OH245236   1.081   7.488  10.872  0.0329  0.4772 -0.4136
 7014TIP3    H145237   1.171   7.496  10.904  0.5334  1.6302 -1.9832
 7014TIP3    H245238   1.067   7.394  10.861  0.1229  0.0845  2.2402
 7015TIP3   OH245239   4.803   6.150  10.514  0.6412 -0.3954  0.2785
 7015TIP3    H145240   4.856   6.092  10.459 -0.0023  0.1533 -0.9882
 7015TIP3    H245241   4.865   6.213  10.550  0.8156  0.6964 -1.7715
 7016TIP3   OH245242   7.676   5.357  11.988  0.3587  0.2018 -0.2628
 7016TIP3    H145243   7.681   5.452  11.978  0.1284  0.4372  1.5705
 7016TIP3    H245244   7.756   5.333  12.034  0.9371 -0.6676 -1.6653
 7017TIP3   OH245245   4.299   6.810  10.645 -0.3290  0.1267 -0.1853
 7017TIP3    H145246   4.394   6.823  10.644 -0.5155  1.5340 -0.5477
 7017TIP3    H245247   4.283   6.765  10.728  0.5479  0.7051  0.3161
 7018TIP3   OH245248   4.911   0.044  12.162 -0.6724 -0.2216  0.3376
 7018TIP3    H145249   4.905   0.126  12.113 -2.4871 -0.5406 -0.0169
 7018TIP3    H245250   4.821   0.021  12.182 -0.1060 -1.4036  1.6896
 7019TIP3   OH245251   5.260   5.707  11.766 -0.3539  0.0566  0.0444
 7019TIP3    H145252   5.277   5.677  11.855 -0.1609 -1.4320 -0.4767
 7019TIP3    H245253   5.338   5.681  11.716 -0.2206  1.3518 -0.4708
 7020TIP3   OH245254   4.023   5.348  10.895  0.1313 -0.6981 -0.6138
 7020TIP3    H145255   4.084   5.403  10.943 -0.5655  0.8322 -1.4306
 7020TIP3    H245256   3.960   5.319  10.962  0.1583 -0.0091 -0.2827
 7021TIP3   OH245257   1.470   1.133  10.956  0.0033  0.2717  0.1588
 7021TIP3    H145258   1.547   1.097  11.000 -0.4912 -1.6706 -0.4986
 7021TIP3    H245259   1.491   1.127  10.862 -0.4910  0.7971  0.0070
 7022TIP3   OH245260   0.765   5.699  10.934 -0.5993 -0.0045  0.2858
 7022TIP3    H145261   0.784   5.716  10.841 -0.1376  2.5626  0.7722
 7022TIP3    H245262   0.851   5.680  10.972 -0.6363 -0.0182  0.3621
 7023TIP3   OH245263   1.795   2.802  12.068  0.2141  0.0396  0.4966
 7023TIP3    H145264   1.793   2.721  12.118 -0.1994 -0.7407 -0.7369
 7023TIP3    H245265   1.769   2.776  11.979 -1.7046  1.8065  0.4669
 7024TIP3   OH245266   3.566   2.190  11.430 -0.3892  0.6050 -0.2462
 7024TIP3    H145267   3.520   2.133  11.492  0.8420  0.7520  0.8364
 7024TIP3    H245268   3.631   2.236  11.483  0.6281  0.8341 -1.6356
 7025TIP3   OH245269   5.127   3.730  11.995 -0.0805 -0.2562 -0.3400
 7025TIP3    H145270   5.123   3.697  11.905 -0.0420 -0.5180 -0.2458
 7025TIP3    H245271   5.159   3.656  12.047 -2.4908 -0.9110  0.3087
 7026TIP3   OH245272   3.427   4.989  13.155  0.2189 -0.4502 -0.1321
 7026TIP3    H145273   3.491   4.918  13.164  0.6358  0.0730  1.4501
 7026TIP3    H245274   3.480   5.065  13.131  0.2103 -0.0428  1.0644
 7027TIP3   OH245275   2.250   1.745  10.977 -0.4139  0.1483  0.0912
 7027TIP3    H145276   2.163   1.744  11.017 -0.0488 -1.3513  0.9442
 7027TIP3    H245277   2.277   1.653  10.978  1.6970  0.7414  0.9840
 7028TIP3   OH245278   0.387   1.794  11.253  0.1926  0.5198 -0.0559
 7028TIP3    H145279   0.309   1.756  11.294  0.4197  1.6115  1.4603
 7028TIP3    H245280   0.391   1.752  11.167 -1.4289 -0.3859  0.2620
 7029TIP3   OH245281   0.690   0.205  11.982 -0.0932 -0.4164  0.2881
 7029TIP3    H145282   0.738   0.125  12.003  1.2532  1.1279  4.0442
 7029TIP3    H245283   0.608   0.198  12.031 -0.3829  0.1067 -0.1097
 7030TIP3   OH245284   2.298   4.042  10.432  0.3501 -0.4086 -0.3854
 7030TIP3    H145285   2.321   3.992  10.354  0.7438 -2.3597  0.9062
 7030TIP3    H245286   2.225   3.994  10.471  0.0042  0.6559  0.3393
 7031TIP3   OH245287   7.668   1.524  10.447 -0.4374  0.3140  0.2291
 7031TIP3    H145288   7.583   1.510  10.405 -0.1303  1.9444 -1.0410
 7031TIP3    H245289   7.652   1.594  10.510 -0.3559 -0.4532  1.1209
 7032TIP3   OH245290   7.064   5.349  11.150  0.1541  0.1773 -0.0727
 7032TIP3    H145291   7.081   5.381  11.061  0.1699  0.2489 -0.0448
 7032TIP3    H245292   6.979   5.387  11.172  0.4068  0.6197  0.1533
 7033TIP3   OH245293   6.222   0.297  10.322 -0.5049 -0.4971 -0.1090
 7033TIP3    H145294   6.167   0.233  10.277  0.2332 -0.9057 -0.4426
 7033TIP3    H245295   6.255   0.250  10.399  0.6494 -0.7847 -0.7572
 7034TIP3   OH245296   5.357   7.218  13.024  0.6512 -0.2495  0.0101
 7034TIP3    H145297   5.346   7.131  13.064  1.8425  0.6940  2.6221
 7034TIP3    H245298   5.452   7.229  13.018  0.5040  0.5316 -1.1791
 7035TIP3   OH245299   5.636   7.129  13.009  0.0267  0.2899 -0.5389
 7035TIP3    H145300   5.655   7.223  13.014  0.3829  0.1603  1.6134
 7035TIP3    H245301   5.680   7.092  13.085  1.2444 -1.9002 -2.1853
 7036TIP3   OH245302   2.701   2.158  12.665 -0.6035 -0.2606  0.1861
 7036TIP3    H145303   2.694   2.102  12.587  0.6053  1.3458 -1.1548
 7036TIP3    H245304   2.790   2.146  12.696 -0.2047  1.1297 -0.3390
 7037TIP3   OH245305   0.111   6.340  11.539  0.0827  0.3868 -0.3180
 7037TIP3    H145306   0.021   6.311  11.524  0.3909 -0.5515 -0.4422
 7037TIP3    H245307   0.161   6.295  11.470  0.8727 -0.3710  0.7238
 7038TIP3   OH245308   4.142   5.577  18.193 -0.0431 -0.1807 -0.4446
 7038TIP3    H145309   4.178   5.567  18.105  0.7219  1.8660 -0.4108
 7038TIP3    H245310   4.047   5.582  18.180 -0.3653 -3.9703 -0.6920
 7039TIP3   OH245311   1.938   2.095  12.276  0.3190  0.1837  0.2915
 7039TIP3    H145312   1.905   2.009  12.303 -0.2064  0.1368 -0.4674
 7039TIP3    H245313   1.859   2.149  12.266  0.5804  0.5047 -0.0800
 7040TIP3   OH245314   7.027   1.111  11.437  0.2801  0.1103 -0.1933
 7040TIP3    H145315   7.056   1.174  11.503  0.0236  0.6377 -0.5800
 7040TIP3    H245316   6.937   1.089  11.463  0.7584 -0.9753  0.5938
 7041TIP3   OH245317   6.948   6.267  12.713  0.0278 -0.2282  0.2259
 7041TIP3    H145318   6.965   6.194  12.772 -0.2345  0.3527  1.0240
 7041TIP3    H245319   7.034   6.301  12.691  0.0894  0.2115  1.1134
 7042TIP3   OH245320   1.608   0.161  11.810 -0.0817 -0.1234  0.1989
 7042TIP3    H145321   1.625   0.068  11.795 -0.0643 -0.3999  1.8024
 7042TIP3    H245322   1.668   0.186  11.879 -0.9736  0.7580  0.6760
 7043TIP3   OH245323   6.721   2.871  11.060 -0.0927  0.7673 -0.1259
 7043TIP3    H145324   6.661   2.922  11.115 -0.1853  0.8930 -0.3418
 7043TIP3    H245325   6.778   2.937  11.019 -2.0072  1.0375 -2.6391
 7044TIP3   OH245326   6.819   2.323  11.586  0.0373 -0.0353  0.0234
 7044TIP3    H145327   6.781   2.402  11.624  1.3545 -0.2601  1.9565
 7044TIP3    H245328   6.774   2.251  11.631  1.3225 -0.3131  0.9336
 7045TIP3   OH245329   5.707   1.980  11.346  0.1390  0.7858  0.6214
 7045TIP3    H145330   5.735   2.061  11.304  1.1332  1.1352  1.8766
 7045TIP3    H245331   5.686   1.921  11.274 -2.1838  2.6325 -0.3601
 7046TIP3   OH245332   7.475   4.679  12.394  0.1634 -0.1245  0.4268
 7046TIP3    H145333   7.497   4.659  12.303 -0.7088 -1.1697  0.4294
 7046TIP3    H245334   7.413   4.611  12.420  0.9827 -0.3169  2.0583
 7047TIP3   OH245335   6.152   2.341  11.724 -0.2836 -0.1830 -0.4676
 7047TIP3    H145336   6.164   2.354  11.818 -0.6820  0.5051 -0.5115
 7047TIP3    H245337   6.058   2.345  11.711 -0.2790 -0.9317 -0.8109
 7048TIP3   OH245338   6.173   5.246  13.156  0.1672  0.9630  0.3910
 7048TIP3    H145339   6.188   5.287  13.071  1.0460  2.5312  1.2594
 7048TIP3    H245340   6.103   5.298  13.196 -1.2185 -0.5960  0.1273
 7049TIP3   OH245341   7.209   4.554  11.365 -0.8594  0.0729  0.1003
 7049TIP3    H145342   7.227   4.475  11.417 -1.1132  0.2561  0.4691
 7049TIP3    H245343   7.267   4.546  11.289 -0.7449 -0.3758  0.2287
 7050TIP3   OH245344   5.484   4.123  11.754  0.0187 -0.1685 -0.3279
 7050TIP3    H145345   5.431   4.089  11.827  2.2529 -0.9588  1.0296
 7050TIP3    H245346   5.468   4.217  11.755 -0.6040 -0.2641  0.6995
 7051TIP3   OH245347   5.581   1.192  10.494 -0.4610  0.4104  0.1800
 7051TIP3    H145348   5.487   1.188  10.510 -0.3805  0.3859  0.6589
 7051TIP3    H245349   5.615   1.111  10.533 -0.1135  0.9069  0.9130
 7052TIP3   OH245350   0.597   3.228  12.439 -0.0503 -0.1178  0.0270
 7052TIP3    H145351   0.579   3.302  12.381 -0.8189  0.6129  1.1690
 7052TIP3    H245352   0.665   3.259  12.498  1.6112 -1.2569 -1.1683
 7053TIP3   OH245353   3.408   0.585  13.119  0.0254  0.3609 -0.0490
 7053TIP3    H145354   3.401   0.550  13.030  0.2753 -1.2527  0.5322
 7053TIP3    H245355   3.481   0.537  13.158 -0.4768  0.6032  1.2247
 7054TIP3   OH245356   4.761   3.801  12.336 -0.1802 -0.0183 -0.0332
 7054TIP3    H145357   4.667   3.819  12.333 -0.5868 -1.4519  2.1622
 7054TIP3    H245358   4.794   3.855  12.408  0.4046 -0.6444  0.1738
 7055TIP3   OH245359   7.411   4.930  13.419  0.1762  0.4945  0.1829
 7055TIP3    H145360   7.344   4.885  13.471  0.0915  0.6357  0.1973
 7055TIP3    H245361   7.413   4.882  13.337  1.2731 -0.5823  0.8071
 7056TIP3   OH245362   6.184   0.183  10.997  0.0067  0.0074 -0.1734
 7056TIP3    H145363   6.193   0.277  10.979 -1.3898  0.0844 -0.5304
 7056TIP3    H245364   6.143   0.148  10.918  2.1288 -1.2373 -0.7974
 7057TIP3   OH245365   4.435   1.231  12.361 -0.1328  0.3639 -1.0012
 7057TIP3    H145366   4.421   1.144  12.323  0.1471 -0.7366  1.2404
 7057TIP3    H245367   4.357   1.281  12.336 -0.5139 -0.6618 -1.9516
 7058TIP3   OH245368   1.536   5.421  12.066  0.2562 -0.5188 -0.7246
 7058TIP3    H145369   1.531   5.326  12.069 -1.4688 -0.4476  1.0792
 7058TIP3    H245370   1.455   5.450  12.110  2.0932  1.7272  1.4449
 7059TIP3   OH245371   0.874   3.335  11.889  0.5196 -0.6042 -0.3757
 7059TIP3    H145372   0.882   3.320  11.984  4.7049 -0.9170 -0.6193
 7059TIP3    H245373   0.828   3.418  11.882  1.0268 -0.0324  2.0037
 7060TIP3   OH245374   6.619   3.827  12.195  0.3030  0.1143 -0.5100
 7060TIP3    H145375   6.624   3.772  12.116 -1.4967 -0.7131 -0.0899
 7060TIP3    H245376   6.642   3.768  12.267 -2.3861 -0.3954  0.0300
 7061TIP3   OH245377   1.661   5.831  12.863  0.4247 -0.2130 -0.1126
 7061TIP3    H145378   1.570   5.813  12.888  0.1210 -0.4764 -1.3504
 7061TIP3    H245379   1.696   5.746  12.836  0.3661  0.2432 -1.6890
 7062TIP3   OH245380   1.012   2.177  11.279  0.2537  0.1544  0.1509
 7062TIP3    H145381   0.974   2.089  11.269  2.8590 -1.0734  0.3606
 7062TIP3    H245382   1.093   2.174  11.228  0.0610  2.7285 -0.4495
 7063TIP3   OH245383   7.658   0.494  10.241  0.1291 -0.2105  0.0474
 7063TIP3    H145384   7.741   0.482  10.196  0.3609  1.5224 -0.0450
 7063TIP3    H245385   7.682   0.528  10.327 -0.4576 -0.1271  0.1854
 7064TIP3   OH245386   3.823   3.321  12.124 -0.6359  0.5953  0.0526
 7064TIP3    H145387   3.749   3.335  12.183 -0.6944  2.7136 -0.4597
 7064TIP3    H245388   3.807   3.378  12.049  0.8628  0.1078 -0.6944
 7065TIP3   OH245389   4.239   6.873  13.190 -0.4243  0.4823 -0.0893
 7065TIP3    H145390   4.165   6.932  13.177 -1.6171 -1.2531 -1.7208
 7065TIP3    H245391   4.224   6.801  13.128  1.9794 -0.5681  0.4204
 7066TIP3   OH245392   0.221   2.233  11.563  0.1343 -0.4003 -0.0695
 7066TIP3    H145393   0.215   2.186  11.480  0.6003 -0.5350 -0.0321
 7066TIP3    H245394   0.313   2.256  11.571  0.1091 -0.4495  0.4411
 7067TIP3   OH245395   0.541   4.248  12.257 -0.1380  0.0448 -0.1815
 7067TIP3    H145396   0.507   4.213  12.175  2.0103 -1.3083 -0.5613
 7067TIP3    H245397   0.554   4.171  12.312  0.7187  0.6729  0.5260
 7068TIP3   OH245398   5.695   5.546  11.782 -0.2256  0.3605  0.0582
 7068TIP3    H145399   5.672   5.532  11.874  0.9993 -2.2509  0.0495
 7068TIP3    H245400   5.766   5.611  11.785 -0.7689  0.9384  0.8652
 7069TIP3   OH245401   1.271   3.604  11.636  0.6267  0.5741  0.3272
 7069TIP3    H145402   1.181   3.574  11.644  0.2620  1.5139 -0.0295
 7069TIP3    H245403   1.292   3.640  11.722  1.2189 -1.0602  0.8903
 7070TIP3   OH245404   6.210   1.909  11.959  0.0709 -0.1534 -0.2569
 7070TIP3    H145405   6.257   1.972  12.014 -0.7328 -0.9966  1.4826
 7070TIP3    H245406   6.201   1.953  11.874 -1.9686  2.8057  1.3234
 7071TIP3   OH245407   0.134   2.943  12.312  0.4885  0.3775  0.1558
 7071TIP3    H145408   0.064   2.901  12.263  0.8965  0.9454 -0.9378
 7071TIP3    H245409   0.100   2.949  12.402 -0.3634 -0.4407 -0.0943
 7072TIP3   OH245410   3.419   4.262  12.748 -0.6822 -0.0971  0.2140
 7072TIP3    H145411   3.366   4.320  12.693 -1.0593 -1.9905 -1.5774
 7072TIP3    H245412   3.504   4.258  12.704 -1.1213 -1.9782 -0.5758
 7073TIP3   OH245413   1.890   4.631  13.032  0.1812  0.3268 -0.2968
 7073TIP3    H145414   1.809   4.596  12.994 -0.0666  0.7158 -0.1470
 7073TIP3    H245415   1.915   4.703  12.974  0.9059 -0.3400 -0.8245
 7074TIP3   OH245416   5.081   0.449  10.661 -0.1373  0.2942 -0.3005
 7074TIP3    H145417   5.067   0.361  10.697 -0.4783  0.6218  0.3907
 7074TIP3    H245418   5.038   0.507  10.724 -1.3486  0.8457 -1.5791
 7075TIP3   OH245419   6.235   1.270  11.502  0.3181 -0.3557 -0.1131
 7075TIP3    H145420   6.156   1.300  11.547 -1.3655 -4.0393 -0.2768
 7075TIP3    H245421   6.215   1.278  11.409  0.8570  0.2948 -0.1826
 7076TIP3   OH245422   7.539   5.756  10.425  0.2958  0.3940  0.1432
 7076TIP3    H145423   7.588   5.682  10.461  0.3898  0.6621  0.5790
 7076TIP3    H245424   7.456   5.756  10.473  0.2894  0.5584  0.1348
 7077TIP3   OH245425   6.611   5.806  10.722 -0.0224  0.0370 -0.2601
 7077TIP3    H145426   6.527   5.789  10.764  0.8642 -0.9680  1.1933
 7077TIP3    H245427   6.630   5.727  10.672  0.3557 -0.0197 -0.0337
 7078TIP3   OH245428   4.166   0.873  12.051 -0.2511  0.4018  0.5287
 7078TIP3    H145429   4.150   0.914  12.136 -1.6082 -0.6399  0.8157
 7078TIP3    H245430   4.231   0.805  12.069 -0.7775 -0.0362  0.8259
 7079TIP3   OH245431   5.086   6.419  13.007 -0.0877  0.6616  0.1450
 7079TIP3    H145432   5.082   6.323  13.014  0.6349  0.5262 -0.9833
 7079TIP3    H245433   5.159   6.443  13.064 -0.0900  0.5082  0.2151
 7080TIP3   OH245434   4.094   1.295  12.284  0.1954  0.5123 -0.0241
 7080TIP3    H145435   4.048   1.334  12.209  0.0303 -0.1235 -0.2574
 7080TIP3    H245436   4.157   1.236  12.244 -1.4633 -1.6290  0.3545
 7081TIP3   OH245437   0.419   7.418  10.505  0.1094 -0.3041  0.0705
 7081TIP3    H145438   0.338   7.395  10.459  0.8907 -2.7084 -0.2183
 7081TIP3    H245439   0.391   7.438  10.595 -0.9369  0.2160 -0.3574
 7082TIP3   OH245440   6.414   6.022  10.530  0.1887 -0.2693 -0.0482
 7082TIP3    H145441   6.502   6.047  10.501  0.2457 -0.0477  0.3112
 7082TIP3    H245442   6.407   5.929  10.508  0.4011 -0.2140 -0.3520
 7083TIP3   OH245443   0.410   1.251  11.544  0.9792 -0.2026 -0.0934
 7083TIP3    H145444   0.357   1.245  11.464 -0.5678  1.9485  0.6916
 7083TIP3    H245445   0.450   1.164  11.552 -1.8573 -1.7663 -1.1589
 7084TIP3   OH245446   1.363   0.182  12.086 -0.1285 -0.3792  0.4807
 7084TIP3    H145447   1.347   0.274  12.107 -0.9857 -0.2159 -0.8261
 7084TIP3    H245448   1.283   0.152  12.045  1.0134 -1.0085 -1.4107
 7085TIP3   OH245449   0.084   3.180  10.618  0.0882  0.4308  0.7646
 7085TIP3    H145450   0.069   3.247  10.686 -2.3530 -0.3499  1.0939
 7085TIP3    H245451   0.032   3.105  10.647  1.1156 -0.9021 -0.6688
 7086TIP3   OH245452   6.045   0.684  10.314  0.4898  0.3834 -0.5949
 7086TIP3    H145453   6.110   0.631  10.269 -1.3614 -0.2488 -2.6744
 7086TIP3    H245454   6.049   0.769  10.271  0.4488  0.5777 -0.2198
 7087TIP3   OH245455   6.659   3.880  11.748  0.3163  0.0033 -0.0289
 7087TIP3    H145456   6.658   3.785  11.739  2.3497  0.1376 -2.9265
 7087TIP3    H245457   6.660   3.913  11.658  1.0323  2.7157  0.8816
 7088TIP3   OH245458   6.086   4.748  10.983  0.0271  0.3786  0.3789
 7088TIP3    H145459   6.147   4.761  10.911  1.4584 -1.1230  1.2520
 7088TIP3    H245460   6.103   4.659  11.014 -1.5678  0.4576  1.6413
 7089TIP3   OH245461   5.311   6.707  10.742  0.2538 -0.4112 -0.2260
 7089TIP3    H145462   5.351   6.629  10.704 -0.6551 -0.3390 -1.3787
 7089TIP3    H245463   5.375   6.777  10.727  0.0177 -0.4350 -1.4320
 7090TIP3   OH245464   1.145   2.903  11.997  0.0269  0.2992 -0.2594
 7090TIP3    H145465   1.210   2.934  11.935 -1.0636  0.7193 -1.2264
 7090TIP3    H245466   1.148   2.807  11.990 -1.0900  0.3605 -2.0664
 7091TIP3   OH245467   6.944   0.520  11.283  0.1239 -0.0865  0.1889
 7091TIP3    H145468   7.023   0.570  11.265  0.5487 -1.3185 -1.5954
 7091TIP3    H245469   6.912   0.493  11.196 -1.2056 -1.1799  0.9740
 7092TIP3   OH245470   0.199   6.016  10.995 -0.5225 -0.5006 -0.3017
 7092TIP3    H145471   0.273   6.064  10.958 -0.6967  0.9154  1.0841
 7092TIP3    H245472   0.236   5.931  11.020  0.4125 -0.1686 -0.5115
 7093TIP3   OH245473   2.577   3.247  10.969  0.0371 -0.1229  0.2477
 7093TIP3    H145474   2.520   3.317  10.938  1.1202  0.4681 -0.4911
 7093TIP3    H245475   2.528   3.166  10.952 -1.1102  0.4298  0.8581
 7094TIP3   OH245476   4.077   1.265  10.623  0.3444  0.5939 -0.0805
 7094TIP3    H145477   4.134   1.199  10.583 -0.3361  1.2074 -2.2123
 7094TIP3    H245478   4.122   1.348  10.606  1.0943  0.7663  2.3922
 7095TIP3   OH245479   6.529   3.483  10.416 -0.3386  0.3789 -0.1313
 7095TIP3    H145480   6.573   3.531  10.346  0.3099 -1.2931 -0.9331
 7095TIP3    H245481   6.489   3.551  10.471  1.5249  1.8871 -0.5172
 7096TIP3   OH245482   1.828   5.369  11.724  0.2471 -0.1847  0.1273
 7096TIP3    H145483   1.807   5.457  11.691 -0.8059 -0.4014  0.1843
 7096TIP3    H245484   1.809   5.311  11.651 -0.7543 -0.5280  0.6430
 7097TIP3   OH245485   3.079   6.601  12.966  0.0553  0.0230 -0.3081
 7097TIP3    H145486   3.101   6.511  12.990  1.2164  0.5717  0.8796
 7097TIP3    H245487   2.987   6.598  12.941 -0.5066 -1.1423  1.7000
 7098TIP3   OH245488   5.342   1.151  12.424 -0.1561  1.2340 -0.0392
 7098TIP3    H145489   5.411   1.116  12.480 -0.7207 -0.5242 -0.3500
 7098TIP3    H245490   5.381   1.228  12.382  1.5178  0.4572 -0.0026
 7099TIP3   OH245491   4.493   4.686  12.524 -0.6220  0.1341  0.8418
 7099TIP3    H145492   4.414   4.723  12.484 -0.2885  0.3467  0.3640
 7099TIP3    H245493   4.510   4.606  12.474 -0.4499  0.1723  0.8368
 7100TIP3   OH245494   5.572   0.419  12.178  0.1308  0.1708 -0.3197
 7100TIP3    H145495   5.655   0.466  12.186  0.7113 -0.9118  0.2110
 7100TIP3    H245496   5.527   0.434  12.261  0.7913 -1.0659  0.2811
 7101TIP3   OH245497   7.525   7.663  10.375 -0.4741 -0.1939 -0.1559
 7101TIP3    H145498   7.518   7.606  10.452 -1.5319 -1.0027 -0.8302
 7101TIP3    H245499   7.616   7.653  10.347  0.1302  0.6662  1.3834
 7102TIP3   OH245500   3.871   0.354  10.738 -0.1271  0.3606  0.1047
 7102TIP3    H145501   3.902   0.367  10.828 -0.5840  1.3421  0.1347
 7102TIP3    H245502   3.934   0.401  10.684  0.1435 -0.2245 -0.0936
 7103TIP3   OH245503   3.503   3.117  12.709 -0.3132  0.1085  0.4586
 7103TIP3    H145504   3.547   3.105  12.794 -0.0468 -1.5063  0.1236
 7103TIP3    H245505   3.427   3.059  12.712 -1.3857  1.4523  0.2867
 7104TIP3   OH245506   0.172   6.975  12.566  0.1889  0.1221  0.0813
 7104TIP3    H145507   0.166   6.953  12.659  0.2650 -0.5690 -0.0691
 7104TIP3    H245508   0.259   6.943  12.541 -1.0162 -2.6851 -0.9638
 7105TIP3   OH245509   1.125   5.232  10.791 -0.1968 -0.0442  0.6916
 7105TIP3    H145510   1.120   5.290  10.867 -0.8550  1.2632 -0.3001
 7105TIP3    H245511   1.112   5.144  10.827  0.2710  0.4635  2.1714
 7106TIP3   OH245512   6.831   3.384  11.170  0.3724 -0.3500  0.0778
 7106TIP3    H145513   6.840   3.436  11.251 -0.2568  0.9495 -0.6595
 7106TIP3    H245514   6.752   3.417  11.128  0.8098 -0.8484 -1.1940
 7107TIP3   OH245515   2.933   6.267  12.697  0.0970  0.8794 -0.0271
 7107TIP3    H145516   2.891   6.350  12.674 -0.9721  0.8943  1.7070
 7107TIP3    H245517   2.991   6.289  12.770  1.1284  0.3736 -0.6721
 7108TIP3   OH245518   7.507   3.491  10.585 -0.2857  0.2722 -0.4336
 7108TIP3    H145519   7.430   3.435  10.593  0.6329 -0.9912 -0.1431
 7108TIP3    H245520   7.473   3.575  10.555 -1.8049 -0.1705 -0.0260
 7109TIP3   OH245521   3.925   1.446  12.131  0.2369  0.6423 -0.3775
 7109TIP3    H145522   3.896   1.537  12.131 -0.0115  0.5827 -1.7675
 7109TIP3    H245523   3.843   1.395  12.130  0.3794  0.4269 -1.1328
 7110TIP3   OH245524   4.557   1.382  11.034 -0.4693 -0.2979  0.5251
 7110TIP3    H145525   4.463   1.367  11.020 -0.6881  0.6303  0.9265
 7110TIP3    H245526   4.567   1.386  11.129 -0.4431  1.9362  0.4811
 7111TIP3   OH245527   7.303   5.220  12.007 -0.2395  0.0266  0.2815
 7111TIP3    H145528   7.251   5.156  11.959 -0.7581 -1.0626  2.1854
 7111TIP3    H245529   7.393   5.187  12.003 -0.6003 -1.2603  1.8188
 7112TIP3   OH245530   6.694   0.729  10.766 -0.5020  0.0174  0.2284
 7112TIP3    H145531   6.690   0.753  10.858 -0.1701  1.8159 -0.1783
 7112TIP3    H245532   6.604   0.712  10.741 -0.6600  0.0586  0.7663
 7113TIP3   OH245533   1.577   3.112  10.749  0.1179  0.7690 -0.1844
 7113TIP3    H145534   1.553   3.053  10.820 -2.0936  0.3070 -1.2276
 7113TIP3    H245535   1.504   3.173  10.743  2.6818  4.3479  1.4433
 7114TIP3   OH245536   0.210   0.878  11.135  0.3277 -0.1015  0.3355
 7114TIP3    H145537   0.187   0.785  11.129  2.7607 -0.7997  0.7076
 7114TIP3    H245538   0.176   0.905  11.220  0.3144 -0.9004  0.6005
 7115TIP3   OH245539   0.315   4.332  11.630  0.2544  0.0425  0.5233
 7115TIP3    H145540   0.372   4.287  11.692 -0.1408  0.1576  0.9740
 7115TIP3    H245541   0.292   4.414  11.674 -0.3915 -0.0767  0.4183
 7116TIP3   OH245542   6.532   1.439  13.105 -0.1327  0.5325  0.3095
 7116TIP3    H145543   6.613   1.490  13.116  0.0581  0.2548  0.1798
 7116TIP3    H245544   6.537   1.404  13.017  0.2856 -0.6622  0.7846
 7117TIP3   OH245545   3.828   6.151  11.900  0.6046  0.3906  0.4179
 7117TIP3    H145546   3.842   6.193  11.815 -0.0420 -0.1568  0.0324
 7117TIP3    H245547   3.762   6.204  11.943  0.3953  0.2579  0.2683
 7118TIP3   OH245548   2.333   2.639  10.610  0.4987  0.0681  0.4758
 7118TIP3    H145549   2.398   2.656  10.678  0.6708  0.8414  0.1307
 7118TIP3    H245550   2.361   2.693  10.536 -2.2829  3.0281  1.3490
 7119TIP3   OH245551   2.100   0.410  10.977  0.5484  0.3415 -0.2285
 7119TIP3    H145552   2.122   0.478  11.042 -1.1043  1.6862 -1.0083
 7119TIP3    H245553   2.076   0.334  11.030 -2.8794  2.0355  0.9830
 7120TIP3   OH245554   0.212   3.312  11.685  0.0066  0.1383  0.0106
 7120TIP3    H145555   0.288   3.341  11.736  0.3140  0.7662 -0.8008
 7120TIP3    H245556   0.148   3.284  11.752  0.1596  1.5195  0.7759
 7121TIP3   OH245557   4.281   5.372  11.297  0.3136  0.9043 -0.8945
 7121TIP3    H145558   4.303   5.405  11.384  1.1098  0.3290 -0.8646
 7121TIP3    H245559   4.337   5.421  11.238  1.8293 -0.6134 -0.8131
 7122TIP3   OH245560   5.780   7.174  13.243  0.0963  0.0677  0.2181
 7122TIP3    H145561   5.741   7.255  13.276 -0.4214 -0.9506  2.2921
 7122TIP3    H245562   5.874   7.193  13.240  0.2467  0.1368  2.8591
 7123TIP3   OH245563   4.228   2.094  11.596 -0.6276 -0.9843  0.0532
 7123TIP3    H145564   4.187   2.178  11.618 -0.7174 -0.7878 -0.8390
 7123TIP3    H245565   4.319   2.103  11.625 -0.5790 -0.4972 -0.2487
 7124TIP3   OH245566   3.308   4.407  12.543  0.5359 -0.0989  0.2343
 7124TIP3    H145567   3.362   4.381  12.469 -0.1032 -1.1527  0.1261
 7124TIP3    H245568   3.229   4.353  12.537 -1.2531  2.3778 -0.4615
 7125TIP3   OH245569   3.340   6.725  12.963 -0.0351 -0.2445  0.0721
 7125TIP3    H145570   3.352   6.815  12.993 -0.0035 -0.4465  0.6721
 7125TIP3    H245571   3.247   6.708  12.975 -0.0315 -0.3129  0.0063
 7126TIP3   OH245572   1.555   0.839  12.568  0.7359  0.5013  0.1612
 7126TIP3    H145573   1.543   0.934  12.572  1.4414  0.5590  1.8081
 7126TIP3    H245574   1.550   0.810  12.659  0.6090 -1.0425 -0.3043
 7127TIP3   OH245575   4.164   0.722  11.582 -0.5457 -0.1567  0.0568
 7127TIP3    H145576   4.103   0.701  11.512  0.8663 -1.5941 -0.8231
 7127TIP3    H245577   4.170   0.640  11.633  0.0850  0.1942  0.5612
 7128TIP3   OH245578   4.210   4.253  12.503 -0.4185 -0.5114 -0.0419
 7128TIP3    H145579   4.126   4.298  12.495  0.0029  0.2653 -0.2048
 7128TIP3    H245580   4.262   4.308  12.560  0.8854  0.4281 -2.0268
 7129TIP3   OH245581   0.191   4.930  12.789  0.2275 -0.6341  0.3790
 7129TIP3    H145582   0.173   4.949  12.881  0.5014  1.8935 -0.0145
 7129TIP3    H245583   0.153   5.004  12.741 -0.6114 -2.2849 -1.6415
 7130TIP3   OH245584   6.595   0.863  10.388  0.6569 -0.7981  0.0199
 7130TIP3    H145585   6.679   0.821  10.367  0.2124 -0.9459 -1.6241
 7130TIP3    H245586   6.532   0.791  10.392  0.3734 -0.5637 -0.1586
 7131TIP3   OH245587   0.890   5.531  11.966 -0.2958  0.5835  0.0952
 7131TIP3    H145588   0.930   5.470  12.029 -2.7049 -0.2613  0.9159
 7131TIP3    H245589   0.890   5.615  12.010  0.4532  0.5911  0.1033
 7132TIP3   OH245590   0.982   5.540  11.088  0.1123  0.0979 -0.2837
 7132TIP3    H145591   1.065   5.494  11.076  0.4208  0.5260  0.1521
 7132TIP3    H245592   0.925   5.477  11.132  0.8325  0.4243  1.1703
 7133TIP3   OH245593   6.300   2.840  10.548 -0.3911 -0.1967  0.2467
 7133TIP3    H145594   6.375   2.891  10.517 -0.4723  0.2432  0.7797
 7133TIP3    H245595   6.232   2.904  10.566 -0.2035 -0.3985  1.7613
 7134TIP3   OH245596   6.857   5.742  11.145  0.3275 -0.1203 -0.0776
 7134TIP3    H145597   6.765   5.765  11.129  0.2558 -1.2989 -1.5544
 7134TIP3    H245598   6.861   5.719  11.238 -0.4871  1.5378  0.4196
 7135TIP3   OH245599   6.094   4.487  12.529  0.5061 -0.1091 -0.3231
 7135TIP3    H145600   6.088   4.451  12.617  0.8523  0.5056 -0.0468
 7135TIP3    H245601   6.039   4.565  12.531  0.0386 -0.4142 -0.8219
 7136TIP3   OH245602   3.016   2.149  12.124  0.2221  0.0942  0.1921
 7136TIP3    H145603   3.070   2.225  12.146  0.4781 -0.1038  0.2585
 7136TIP3    H245604   3.023   2.141  12.029  2.9914 -1.8589  0.4457
 7137TIP3   OH245605   0.267   0.808  12.935 -0.1953  0.3287 -0.5586
 7137TIP3    H145606   0.338   0.762  12.980  0.2812 -0.3726 -1.9552
 7137TIP3    H245607   0.213   0.844  13.005  1.1015  0.2042  0.5478
 7138TIP3   OH245608   6.750   4.181  12.398  0.3693  0.1003  0.3247
 7138TIP3    H145609   6.722   4.261  12.443 -1.4968  0.0204 -0.6142
 7138TIP3    H245610   6.801   4.212  12.324 -0.1080  0.4213  0.1253
 7139TIP3   OH245611   1.295   2.273  11.571  0.1429 -0.3293  0.1703
 7139TIP3    H145612   1.295   2.271  11.666  0.6619  0.6746  0.2023
 7139TIP3    H245613   1.348   2.350  11.548 -0.4767 -0.2001 -0.9159
 7140TIP3   OH245614   3.342   0.689  12.312  0.1409 -0.4452 -0.1052
 7140TIP3    H145615   3.364   0.715  12.222 -1.3031 -2.1869 -1.0367
 7140TIP3    H245616   3.426   0.668  12.352  0.6456 -3.0379 -2.2232
 7141TIP3   OH245617   2.878   4.252  11.876  0.2586 -0.2894  0.4733
 7141TIP3    H145618   2.904   4.160  11.874 -0.7607 -0.5781  0.0025
 7141TIP3    H245619   2.845   4.269  11.788 -2.9272 -0.4944  1.5233
 7142TIP3   OH245620   4.615   7.442  10.356 -0.3472  0.3235  0.4691
 7142TIP3    H145621   4.604   7.514  10.417  0.0044 -0.3800  1.3769
 7142TIP3    H245622   4.543   7.382  10.376 -1.6312  1.1498 -1.3785
 7143TIP3   OH245623   4.763   3.156  11.427 -0.8323 -0.2984  0.1240
 7143TIP3    H145624   4.802   3.229  11.377 -1.2066  0.0515  0.3417
 7143TIP3    H245625   4.802   3.164  11.514 -0.8203 -0.4040  0.1275
 7144TIP3   OH245626   0.966   0.006  13.327  0.4065 -0.1169  0.2551
 7144TIP3    H145627   0.923   0.088  13.302  0.2573 -0.5815 -1.1013
 7144TIP3    H245628   1.029  -0.010  13.256  0.7673 -0.9340  0.7488
 7145TIP3   OH245629   6.182   2.710  12.547  1.0334 -0.2282 -0.0064
 7145TIP3    H145630   6.165   2.801  12.571 -0.5199 -0.7070  0.8861
 7145TIP3    H245631   6.211   2.669  12.629 -1.3041 -1.1899  0.4224
 7146TIP3   OH245632   5.431   7.083  11.396 -0.1669  0.0936 -0.1452
 7146TIP3    H145633   5.405   7.162  11.444  0.4220 -0.6245  1.4288
 7146TIP3    H245634   5.508   7.110  11.346  0.6983  0.2934  1.2156
 7147TIP3   OH245635   2.292   0.704  12.804  0.0086 -0.6085  0.1427
 7147TIP3    H145636   2.239   0.726  12.881  0.0569  0.1138 -0.0239
 7147TIP3    H245637   2.252   0.625  12.769 -1.6131  0.4971 -0.5873
 7148TIP3   OH245638   1.128   2.084  11.993  0.0911  0.2420  0.2087
 7148TIP3    H145639   1.038   2.074  12.023  0.3498 -0.2488  0.8597
 7148TIP3    H245640   1.137   2.178  11.975 -0.9876  0.0950 -1.3646
 7149TIP3   OH245641   2.717   5.944  11.662 -0.2879  0.5394 -0.2044
 7149TIP3    H145642   2.687   6.033  11.644  1.1313  0.9540 -0.7187
 7149TIP3    H245643   2.749   5.948  11.752 -2.7451 -0.2145  0.7830
 7150TIP3   OH245644   7.468   1.792  11.155 -0.2469  0.1062  0.0190
 7150TIP3    H145645   7.434   1.815  11.069 -0.4285  0.0065  0.0654
 7150TIP3    H245646   7.557   1.760  11.137  0.1873  1.2573 -0.0015
 7151TIP3   OH245647   7.657   1.536  11.455 -0.4775 -0.3281 -0.1139
 7151TIP3    H145648   7.675   1.453  11.410  0.9741 -0.4213  0.5808
 7151TIP3    H245649   7.724   1.541  11.523 -0.7532  1.2680  0.0729
 7152TIP3   OH245650   7.535   7.042  13.501 -0.0372 -0.4430 -0.2575
 7152TIP3    H145651   7.549   6.955  13.462 -1.3055 -0.0404 -1.6986
 7152TIP3    H245652   7.620   7.085  13.494 -0.1814 -0.4183 -2.6299
 7153TIP3   OH245653   5.492   1.713  10.384  0.1634  0.5975 -0.3737
 7153TIP3    H145654   5.432   1.639  10.383  1.7488 -0.7267 -1.6020
 7153TIP3    H245655   5.475   1.756  10.468 -1.0057 -0.9443  0.2245
 7154TIP3   OH245656   6.008   6.329  12.544  0.3875  0.3766  0.0106
 7154TIP3    H145657   5.969   6.275  12.475  0.8084  0.2851 -0.1622
 7154TIP3    H245658   6.034   6.409  12.499 -1.0345  1.1087  0.4371
 7155TIP3   OH245659   0.221   0.578  12.605 -0.7750  0.2948 -0.6751
 7155TIP3    H145660   0.284   0.548  12.671  0.3492  0.1785 -1.7680
 7155TIP3    H245661   0.256   0.547  12.522 -2.1722  0.4356 -1.3493
 7156TIP3   OH245662   2.532   3.931  12.059 -0.2594 -0.5736 -0.3782
 7156TIP3    H145663   2.484   3.999  12.010 -0.1025 -0.3127 -0.1670
 7156TIP3    H245664   2.623   3.958  12.055 -0.0230 -1.4465 -1.3931
 7157TIP3   OH245665   3.944   1.613  10.560 -0.1834 -0.4283  0.1019
 7157TIP3    H145666   4.000   1.664  10.501  0.6491 -2.2593 -0.7854
 7157TIP3    H245667   4.003   1.584  10.630 -0.5180 -0.5866  0.3210
 7158TIP3   OH245668   2.717   2.931  11.014 -0.0807  0.1903 -0.9780
 7158TIP3    H145669   2.741   3.004  10.956  0.0302  0.2556 -0.8537
 7158TIP3    H245670   2.713   2.971  11.101 -0.6005  0.1668 -0.9907
 7159TIP3   OH245671   1.597   6.776  10.610 -0.0104 -0.8747 -0.2924
 7159TIP3    H145672   1.592   6.859  10.562  1.4688 -0.4745  0.1756
 7159TIP3    H245673   1.625   6.801  10.698  0.4789 -1.8713 -0.1480
 7160TIP3   OH245674   5.230   0.817  11.317  0.7924  0.0163 -0.0693
 7160TIP3    H145675   5.276   0.848  11.394  3.2641 -0.9066 -1.0719
 7160TIP3    H245676   5.244   0.722  11.317 -2.0233 -0.4924  0.0740
 7161TIP3   OH245677   6.299   4.813  13.135  0.1609 -0.1283 -0.1524
 7161TIP3    H145678   6.342   4.878  13.190  0.9118 -1.8482  1.3940
 7161TIP3    H245679   6.210   4.846  13.123  0.5344  1.1733  0.5577
 7162TIP3   OH245680   7.184   3.747  11.158 -0.2247  0.1081  0.0377
 7162TIP3    H145681   7.218   3.659  11.172 -0.2739  0.0172 -0.3967
 7162TIP3    H245682   7.205   3.794  11.239 -0.1744 -0.2916  0.2602
 7163TIP3   OH245683   7.245   1.552  13.229 -0.1050  0.3972  0.0080
 7163TIP3    H145684   7.190   1.592  13.161  2.2640  0.9469 -1.7324
 7163TIP3    H245685   7.335   1.567  13.199  1.0560 -0.0944  2.8977
 7164TIP3   OH245686   4.826   6.814  12.501  0.1235 -0.3423  0.3470
 7164TIP3    H145687   4.774   6.861  12.567  1.1302  1.2236  0.0790
 7164TIP3    H245688   4.914   6.812  12.537  0.3915 -0.7476 -0.3249
 7165TIP3   OH245689   6.303   1.229  12.651 -0.9314 -0.4133 -0.0331
 7165TIP3    H145690   6.368   1.166  12.619 -1.3646 -0.0807 -1.6375
 7165TIP3    H245691   6.294   1.209  12.744  1.3077 -0.6147  0.1943
 7166TIP3   OH245692   0.873   2.933  11.838 -0.2128  0.0607 -0.1188
 7166TIP3    H145693   0.957   2.947  11.881 -0.5811  1.5441  0.1876
 7166TIP3    H245694   0.809   2.934  11.910 -0.5922 -0.0571 -0.4508
 7167TIP3   OH245695   2.846   7.201  11.639 -0.1834  0.1385 -0.4894
 7167TIP3    H145696   2.794   7.201  11.559 -0.7751 -0.1263 -0.1150
 7167TIP3    H245697   2.856   7.293  11.662 -0.6900  0.1819 -0.4407
 7168TIP3   OH245698   6.232   3.680  11.897 -0.0131  0.1337  0.2861
 7168TIP3    H145699   6.249   3.712  11.808 -1.3640  1.8653  0.6089
 7168TIP3    H245700   6.211   3.758  11.947  1.1778 -0.7600  2.2805
 7169TIP3   OH245701   2.032   1.331  10.953  0.1791 -0.2239  0.5053
 7169TIP3    H145702   2.068   1.397  11.011 -1.1927 -0.4423  1.6542
 7169TIP3    H245703   1.953   1.299  10.998 -0.8466 -0.5183 -1.3978
 7170TIP3   OH245704   1.437   3.048  12.344 -0.1795  0.0903  0.1153
 7170TIP3    H145705   1.513   3.023  12.293 -0.9206  0.0448 -1.0013
 7170TIP3    H245706   1.362   3.033  12.286 -0.9507  1.2521  0.7456
 7171TIP3   OH245707   2.751   0.275  10.909  0.0966  0.2321 -0.4656
 7171TIP3    H145708   2.813   0.315  10.847 -1.3574  1.5001 -1.1693
 7171TIP3    H245709   2.803   0.256  10.987  1.2163  1.9514 -0.7601
 7172TIP3   OH245710   1.603   4.267  12.293  0.0829  0.5254 -0.3436
 7172TIP3    H145711   1.623   4.352  12.253 -0.6996  0.4421 -0.9313
 7172TIP3    H245712   1.532   4.285  12.354  0.8330  0.5293  0.5511
 7173TIP3   OH245713   5.339   5.741  10.871 -0.1268 -0.2351  0.2085
 7173TIP3    H145714   5.377   5.745  10.958 -0.9911  4.0785  0.6522
 7173TIP3    H245715   5.411   5.765  10.812 -0.4959  1.2118  0.3041
 7174TIP3   OH245716   6.659   4.855  12.590 -0.3891 -0.2159 -0.3513
 7174TIP3    H145717   6.686   4.796  12.660 -1.8886  0.0590  0.5097
 7174TIP3    H245718   6.654   4.941  12.633 -1.8967 -0.1469 -0.6352
 7175TIP3   OH245719   5.688   6.297  10.555  0.6564  0.3613  0.3150
 7175TIP3    H145720   5.727   6.224  10.603 -1.1550  0.4008  1.9604
 7175TIP3    H245721   5.711   6.374  10.607  0.0214  0.6009  0.2448
 7176TIP3   OH245722   4.898   3.002  10.854 -0.1114  0.0376 -0.2248
 7176TIP3    H145723   4.819   3.045  10.886 -0.4596 -0.3046 -0.6161
 7176TIP3    H245724   4.967   3.068  10.866 -1.0885  1.8714 -3.4116
 7177TIP3   OH245725   1.113   1.141  11.200 -0.0074  0.5690 -0.2682
 7177TIP3    H145726   1.079   1.056  11.229  1.1836  0.5841  1.3124
 7177TIP3    H245727   1.035   1.191  11.175 -0.9387 -0.2596  0.8442
 7178TIP3   OH245728   4.183   6.004  10.309  0.2641 -0.0928 -0.9354
 7178TIP3    H145729   4.119   6.028  10.377 -0.9336  0.7812 -2.3163
 7178TIP3    H245730   4.136   5.943  10.252  1.2573 -0.8130 -1.0186
 7179TIP3   OH245731   0.226   0.958  12.699  0.2241 -0.3016  0.2066
 7179TIP3    H145732   0.244   0.893  12.767 -0.1983  0.1499  0.7610
 7179TIP3    H245733   0.205   1.038  12.747  1.0675  0.3425 -0.4708
 7180TIP3   OH245734   5.337   0.432  10.503  0.3544  0.3884 -0.0482
 7180TIP3    H145735   5.406   0.489  10.534 -0.7618  1.8548 -0.1570
 7180TIP3    H245736   5.267   0.442  10.568  0.0054 -0.6344 -0.2354
 7181TIP3   OH245737   5.494   7.119  12.759 -0.2059  1.1405  0.4646
 7181TIP3    H145738   5.550   7.089  12.830 -0.2412 -0.7700 -0.2422
 7181TIP3    H245739   5.555   7.137  12.687 -0.3265  1.1867  0.3739
 7182TIP3   OH245740   7.141   0.722  10.852  0.2210  0.8440  0.2598
 7182TIP3    H145741   7.180   0.742  10.766 -1.1783 -2.5871 -1.3534
 7182TIP3    H245742   7.051   0.697  10.831 -0.2914  0.3355  2.8476
 7183TIP3   OH245743   4.894   0.943  10.863 -0.5943  0.3463 -0.3780
 7183TIP3    H145744   4.866   1.023  10.909  0.6083 -0.6081  2.2328
 7183TIP3    H245745   4.817   0.886  10.865 -0.3054 -0.0679  1.5368
 7184TIP3   OH245746   5.607   5.580  13.109 -0.0872  0.0111 -0.0620
 7184TIP3    H145747   5.526   5.607  13.065 -0.0243 -0.2253 -0.3224
 7184TIP3    H245748   5.659   5.660  13.115  0.4198 -0.1927 -1.5160
 7185TIP3   OH245749   4.719   5.311  12.044  0.4120 -0.0871  0.2912
 7185TIP3    H145750   4.710   5.326  12.138  1.2748 -0.6102  0.4651
 7185TIP3    H245751   4.724   5.216  12.035 -2.9486 -0.3094 -0.6018
 7186TIP3   OH245752   7.184   7.455  10.832  0.2090 -0.0814 -0.4974
 7186TIP3    H145753   7.224   7.527  10.880  1.9162 -1.1089 -0.3214
 7186TIP3    H245754   7.185   7.484  10.740  2.6102 -0.5764 -0.6868
 7187TIP3   OH245755   5.027   7.422  10.060  0.1962  0.3322  0.9045
 7187TIP3    H145756   4.972   7.500  10.072 -1.6966 -0.6150 -0.8979
 7187TIP3    H245757   4.964   7.352  10.041  1.9111 -1.4256  1.4114
 7188TIP3   OH245758   1.217   4.285  12.022 -0.3091  0.0709  0.0927
 7188TIP3    H145759   1.299   4.247  12.051  0.0673 -0.6803 -1.7747
 7188TIP3    H245760   1.174   4.316  12.102 -0.2110 -3.4042  1.6400
 7189TIP3   OH245761   2.700   6.188  12.586 -0.1460  0.1901 -0.0290
 7189TIP3    H145762   2.643   6.249  12.632 -0.1423 -1.4187  2.2661
 7189TIP3    H245763   2.786   6.200  12.628  0.2422 -0.2320 -0.6961
 7190TIP3   OH245764   4.977   1.870  10.585 -0.7005  0.8296  0.3764
 7190TIP3    H145765   4.974   1.965  10.600 -3.9240  0.7130  1.0839
 7190TIP3    H245766   5.037   1.860  10.511  1.5350  3.1557  1.6966
 7191TIP3   OH245767   1.922   6.194  11.017 -0.2297  0.3671 -0.0254
 7191TIP3    H145768   1.909   6.114  10.966  0.8838  0.2363 -0.1424
 7191TIP3    H245769   1.840   6.207  11.064 -0.4623 -0.7930 -0.0872
 7192TIP3   OH245770   1.971   6.612  11.162  0.1243 -0.0181  0.1112
 7192TIP3    H145771   1.946   6.581  11.249  0.3252  0.8475  0.4882
 7192TIP3    H245772   1.968   6.534  11.106  3.3516 -1.3847  1.5797
 7193TIP3   OH245773   1.812   7.374  12.785 -0.1703  0.2848 -0.6760
 7193TIP3    H145774   1.864   7.436  12.734 -0.2993  1.2836  0.3763
 7193TIP3    H245775   1.724   7.412  12.786 -0.1618  0.2842  0.3001
 7194TIP3   OH245776   2.150   7.213  11.094  0.1056 -0.0366 -0.1484
 7194TIP3    H145777   2.159   7.168  11.179  0.0412  0.6820  0.2444
 7194TIP3    H245778   2.236   7.251  11.078  0.2185 -0.4623 -0.5826
 7195TIP3   OH245779   6.642   6.997  13.366  0.0752 -0.1792  0.5625
 7195TIP3    H145780   6.580   7.064  13.338  0.3169  0.2905  1.1313
 7195TIP3    H245781   6.728   7.038  13.354  0.2396 -0.5085  0.6011
 7196TIP3   OH245782   1.793   1.881  12.319  0.0338 -0.1615  0.1967
 7196TIP3    H145783   1.824   1.853  12.405  1.4640 -0.6070 -0.4300
 7196TIP3    H245784   1.698   1.890  12.329  0.4083  2.7141  2.6467
 7197TIP3   OH245785   6.182   4.912  11.896  0.8474 -0.1419  0.1376
 7197TIP3    H145786   6.227   4.900  11.980  1.2556 -0.5811 -0.1392
 7197TIP3    H245787   6.204   4.833  11.846 -0.5798 -0.5851  0.1599
 7198TIP3   OH245788   2.419   3.292  12.537  0.0482  0.1946 -0.2075
 7198TIP3    H145789   2.472   3.225  12.580  0.3417 -0.4258 -1.4984
 7198TIP3    H245790   2.435   3.371  12.588 -0.7863 -0.8020  1.7340
 7199TIP3   OH245791   2.906   0.622  12.441  0.5066 -0.3124  0.4510
 7199TIP3    H145792   2.948   0.692  12.391  1.0416 -0.7977  0.2078
 7199TIP3    H245793   2.973   0.594  12.503  0.6761 -1.3190 -0.1649
 7200TIP3   OH245794   1.015   0.826  12.618 -0.9936 -0.0455  0.2120
 7200TIP3    H145795   1.015   0.874  12.701 -0.4378 -1.2436  0.9333
 7200TIP3    H245796   1.108   0.807  12.602 -1.0222  0.7495 -1.0542
 7201TIP3   OH245797   1.797   3.858  11.796 -0.3739 -0.3773 -0.7155
 7201TIP3    H145798   1.764   3.784  11.746  0.3414 -0.3611 -1.2266
 7201TIP3    H245799   1.891   3.840  11.806 -0.6046 -0.7021  1.1707
 7202TIP3   OH245800   0.122   0.012  12.273 -0.0230  0.2334 -0.2165
 7202TIP3    H145801   0.073  -0.008  12.353  1.6952 -0.6245  0.6676
 7202TIP3    H245802   0.076   0.087  12.236 -0.8892  0.6436  1.5543
 7203TIP3   OH245803   5.616   2.203  10.508  1.0277 -0.2629 -0.0685
 7203TIP3    H145804   5.693   2.256  10.490  0.7508  0.1794  0.0325
 7203TIP3    H245805   5.625   2.127  10.450 -0.7260  1.9545 -3.5731
 7204TIP3   OH245806   6.617   4.867  12.064  0.2121 -0.0563 -0.1357
 7204TIP3    H145807   6.537   4.839  12.019  0.2050 -1.2555  0.5690
 7204TIP3    H245808   6.585   4.925  12.134 -0.0837 -0.7154  0.2909
 7205TIP3   OH245809   6.674   0.448  11.388  0.3452 -0.4060 -0.3100
 7205TIP3    H145810   6.691   0.355  11.399 -1.0430 -0.7687 -1.0229
 7205TIP3    H245811   6.745   0.480  11.332 -1.1017 -1.8437 -3.1789
 7206TIP3   OH245812   5.013   2.315  11.273  0.8847  0.1343  0.2821
 7206TIP3    H145813   5.079   2.246  11.264 -0.5249 -1.4238  1.3605
 7206TIP3    H245814   5.028   2.351  11.361  1.8737  1.5243 -0.4281
 7207TIP3   OH245815   0.598   2.565  11.044  0.3872 -0.1986  0.2269
 7207TIP3    H145816   0.635   2.563  11.132 -0.5062  1.7767  0.7057
 7207TIP3    H245817   0.666   2.608  10.991 -0.1907  1.2379  0.6005
 7208TIP3   OH245818   7.380   1.624  10.519 -0.6069 -0.1681  0.5497
 7208TIP3    H145819   7.398   1.551  10.459  0.7261 -1.2424  2.1563
 7208TIP3    H245820   7.311   1.591  10.576  0.4346 -0.4628  1.6800
 7209TIP3   OH245821   6.503   6.532  12.108  0.3401  0.9475 -0.5753
 7209TIP3    H145822   6.495   6.616  12.152  1.7638 -0.1789  2.0769
 7209TIP3    H245823   6.596   6.525  12.087  0.8497 -1.0527  1.8530
 7210TIP3   OH245824   6.731   0.879  11.021 -0.0593  0.1708 -0.3547
 7210TIP3    H145825   6.784   0.934  10.963 -0.9611  0.4855 -0.9149
 7210TIP3    H245826   6.794   0.839  11.081  0.9730 -0.4756 -1.7913
 7211TIP3   OH245827   6.320   1.047  10.893  0.5924 -0.1836 -0.1744
 7211TIP3    H145828   6.308   0.952  10.890  0.1790 -0.1293 -0.3027
 7211TIP3    H245829   6.231   1.083  10.888  0.7559  0.2143 -0.2965
 7212TIP3   OH245830   5.663   4.907  12.669 -0.6738 -0.2454 -0.1164
 7212TIP3    H145831   5.691   4.861  12.748 -1.8844 -0.2411  0.3492
 7212TIP3    H245832   5.741   4.953  12.639 -0.4175  0.6640  1.7386
 7213TIP3   OH245833   2.072   0.002  11.032  0.3946  0.4251  0.3715
 7213TIP3    H145834   1.997  -0.014  11.089 -0.0088  0.4613 -0.1400
 7213TIP3    H245835   2.137   0.044  11.088  0.8119 -1.4130  1.3136
 7214TIP3   OH245836   2.568   1.893  11.252 -0.2193 -0.1864  0.0627
 7214TIP3    H145837   2.561   1.805  11.216  0.7625 -0.9944  1.7356
 7214TIP3    H245838   2.653   1.925  11.221  0.0253 -0.3633  0.5370
 7215TIP3   OH245839   5.523   0.951  11.310  0.0526  0.4050 -0.2615
 7215TIP3    H145840   5.469   0.954  11.231 -0.1040  0.5431 -0.1492
 7215TIP3    H245841   5.461   0.940  11.381  0.2983 -1.8489 -0.2996
 7216TIP3   OH245842   4.922   5.651  11.447  0.5060 -0.3782 -0.7037
 7216TIP3    H145843   4.860   5.706  11.398  0.2042 -0.0511  0.0263
 7216TIP3    H245844   4.991   5.712  11.473  1.0271 -0.6974 -1.3234
 7217TIP3   OH245845   4.830   4.750  11.501 -0.6297 -0.4340 -0.0342
 7217TIP3    H145846   4.887   4.750  11.578  3.9674  1.0298 -3.0132
 7217TIP3    H245847   4.852   4.669  11.455 -2.7386 -0.9324 -0.2475
 7218TIP3   OH245848   6.154   3.729  12.494 -0.5401 -0.1250 -0.0618
 7218TIP3    H145849   6.183   3.693  12.410  2.6677  0.5531  0.6599
 7218TIP3    H245850   6.193   3.671  12.559 -0.8777  0.8189  1.0089
 7219TIP3   OH245851   6.194   1.686  11.551  0.6125 -0.0980  0.4903
 7219TIP3    H145852   6.240   1.610  11.515 -1.4086 -1.9598  1.6096
 7219TIP3    H245853   6.104   1.677  11.521 -0.2769  0.3316  2.8097
 7220TIP3   OH245854   7.215   5.460  11.854  0.1726 -0.3799  0.4121
 7220TIP3    H145855   7.266   5.388  11.891  0.8855  0.8141  1.8915
 7220TIP3    H245856   7.210   5.524  11.925 -2.7015 -0.0664  0.0646
 7221TIP3   OH245857   7.241   7.418  11.907 -0.5547  0.2077 -0.5131
 7221TIP3    H145858   7.261   7.390  11.996  0.5715  3.7546  0.5102
 7221TIP3    H245859   7.268   7.344  11.852 -0.6364 -1.8138  1.9687
 7222TIP3   OH245860   6.320   6.520  11.750 -0.2420  0.3631  0.0221
 7222TIP3    H145861   6.236   6.509  11.705  0.0623  0.3690 -0.5624
 7222TIP3    H245862   6.386   6.496  11.684  0.1676 -1.3807  1.0232
 7223TIP3   OH245863   4.842   5.863  11.281  0.3599  0.1692 -0.0945
 7223TIP3    H145864   4.758   5.867  11.325  0.2942 -0.1538 -0.1894
 7223TIP3    H245865   4.887   5.944  11.307 -0.5392  1.0453 -1.1740
 7224TIP3   OH245866   5.861   5.535  10.809 -0.2059 -0.0904  0.0822
 7224TIP3    H145867   5.903   5.452  10.787 -0.2800  0.2723 -1.5402
 7224TIP3    H245868   5.777   5.510  10.846  0.5570 -0.7639  1.4638
 7225TIP3   OH245869   5.685   4.000  12.349  0.0318 -0.7676  0.1636
 7225TIP3    H145870   5.706   4.079  12.399 -0.1702 -1.4028  1.2842
 7225TIP3    H245871   5.747   3.934  12.382  2.2726 -0.3651 -2.8616
 7226TIP3   OH245872   4.198   2.607  10.561  0.2169  0.4894 -0.2152
 7226TIP3    H145873   4.216   2.679  10.501 -1.4738 -0.5270 -2.0621
 7226TIP3    H245874   4.212   2.528  10.508 -1.0491 -0.4429  0.7725
 7227TIP3   OH245875   6.822   7.637  10.363  0.2532 -0.2158 -0.0225
 7227TIP3    H145876   6.886   7.705  10.384  2.8403 -2.0698 -1.4289
 7227TIP3    H245877   6.809   7.589  10.444  1.8117 -0.6990 -0.0316
 7228TIP3   OH245878   3.827   3.993  11.025  0.2049  0.2789  0.3049
 7228TIP3    H145879   3.876   3.949  11.094 -0.2331  1.1139  1.1775
 7228TIP3    H245880   3.754   3.934  11.005 -0.0042  0.2960  0.9911
 7229TIP3   OH245881   4.758   0.260  10.653  0.2397  0.7231 -0.1182
 7229TIP3    H145882   4.826   0.215  10.703 -0.7374 -2.2626 -1.2078
 7229TIP3    H245883   4.702   0.300  10.719  0.9698 -0.0463  1.0069
 7230TIP3   OH245884   3.554   6.871  12.039 -0.0647  0.5342  0.6641
 7230TIP3    H145885   3.531   6.883  11.947 -0.2322  0.4364  0.6930
 7230TIP3    H245886   3.500   6.935  12.086 -0.3270  0.2569  0.7388
 7231TIP3   OH245887   1.817   0.149  10.885 -0.1660 -0.4062 -0.0536
 7231TIP3    H145888   1.901   0.118  10.920 -0.3219 -1.2081 -0.3861
 7231TIP3    H245889   1.842   0.214  10.819  0.1691 -0.1771  0.2881
 7232TIP3   OH245890   4.266   0.486  12.096 -0.1808  0.1177  0.0097
 7232TIP3    H145891   4.346   0.535  12.115  0.4320 -1.0623  0.6031
 7232TIP3    H245892   4.297   0.401  12.065 -1.2091  0.3229 -1.7047
 7233TIP3   OH245893   0.068   2.764  11.111 -0.4471  0.2994 -0.1557
 7233TIP3    H145894   0.051   2.826  11.183  2.8932  0.8139  0.3490
 7233TIP3    H245895   0.031   2.807  11.034  0.9523  2.6240  0.3364
 7234TIP3   OH245896   3.749   5.233  12.418 -0.2764 -0.1593 -0.5162
 7234TIP3    H145897   3.761   5.253  12.326 -2.8227  2.1007 -0.4931
 7234TIP3    H245898   3.762   5.316  12.463 -1.3630 -0.6817  0.8513
 7235TIP3   OH245899   2.957   3.971  12.041  0.5255 -0.3332 -0.0139
 7235TIP3    H145900   3.031   4.018  12.002  0.6853 -1.1497 -0.7139
 7235TIP3    H245901   2.997   3.911  12.105  0.8141 -2.8082 -2.3368
 7236TIP3   OH245902   3.968   4.305  12.266 -0.1535 -0.3355 -0.2476
 7236TIP3    H145903   3.979   4.356  12.186  1.7933 -0.7419 -0.2743
 7236TIP3    H245904   3.973   4.369  12.337 -1.0612 -0.0875 -0.3887
 7237TIP3   OH245905   4.379   3.941  10.964  0.1979  0.0395 -0.1092
 7237TIP3    H145906   4.420   3.987  10.891 -1.1317 -1.5655 -1.9924
 7237TIP3    H245907   4.345   4.010  11.021 -0.9949  1.4406 -2.3731
 7238TIP3   OH245908   1.412   1.325  10.642  0.2530 -0.0976  0.6230
 7238TIP3    H145909   1.400   1.362  10.729  1.6197  1.4021  0.2325
 7238TIP3    H245910   1.328   1.338  10.598 -1.2849 -3.0517  2.3723
 7239TIP3   OH245911   2.389   0.863  11.841  0.0255 -0.5449  0.3101
 7239TIP3    H145912   2.426   0.796  11.784 -1.1704 -1.4387  0.5334
 7239TIP3    H245913   2.443   0.860  11.920  1.8032  0.8219 -0.7834
 7240TIP3   OH245914   0.054   3.864  10.566  0.2107 -0.1136  0.1769
 7240TIP3    H145915  -0.006   3.850  10.492  1.5437 -2.1604 -0.6166
 7240TIP3    H245916  -0.004   3.887  10.639 -1.2252  1.1546 -1.2807
 7241TIP3   OH245917   3.578   1.214  13.315 -0.0324 -0.1868 -0.4019
 7241TIP3    H145918   3.617   1.131  13.287  1.3431 -0.1084  1.0768
 7241TIP3    H245919   3.633   1.281  13.275 -1.1420  0.0321 -1.5943
 7242TIP3   OH245920   4.500   2.503  11.851 -0.3428 -0.1891 -0.4186
 7242TIP3    H145921   4.440   2.527  11.922  0.9247 -1.1857  1.0570
 7242TIP3    H245922   4.483   2.410  11.836  2.3993 -1.1780  1.7521
 7243TIP3   OH245923   2.376   5.345  11.836 -0.4427  0.0153 -0.0458
 7243TIP3    H145924   2.424   5.403  11.896  0.0004 -2.0274  1.7000
 7243TIP3    H245925   2.319   5.294  11.893  0.7296 -2.7394 -1.1823
 7244TIP3   OH245926   5.653   7.379  13.036 -0.6307 -0.3337  0.5264
 7244TIP3    H145927   5.577   7.437  13.037 -1.7377 -1.7245  0.1994
 7244TIP3    H245928   5.696   7.394  13.120 -0.6201  1.2574  0.2752
 7245TIP3   OH245929   0.323   5.150  12.359 -0.5641 -0.1384  0.3769
 7245TIP3    H145930   0.229   5.132  12.360 -1.1945  2.6327  0.0785
 7245TIP3    H245931   0.349   5.130  12.269 -1.1875  0.3090  0.0823
 7246TIP3   OH245932   3.287   1.607  10.887  0.3166  0.3611 -0.1249
 7246TIP3    H145933   3.253   1.648  10.807 -0.2931  1.8211  0.8282
 7246TIP3    H245934   3.376   1.640  10.895 -0.1993  1.6536  0.6828
 7247TIP3   OH245935   7.377   0.460  11.920  0.1366  0.6083 -0.0669
 7247TIP3    H145936   7.341   0.515  11.990  0.4793  0.5459  0.1654
 7247TIP3    H245937   7.396   0.377  11.963  2.9992  1.4279  0.5122
 7248TIP3   OH245938   0.234   2.355  11.843 -0.4252  0.1321 -0.2710
 7248TIP3    H145939   0.141   2.335  11.831 -0.2572 -0.2086 -1.0992
 7248TIP3    H245940   0.270   2.277  11.884 -0.6118  0.5004  0.6136
 7249TIP3   OH245941   7.065   4.466  11.783  0.4740  0.1785 -0.3664
 7249TIP3    H145942   7.097   4.438  11.868 -0.4087  0.7255  0.1555
 7249TIP3    H245943   7.113   4.548  11.765 -1.4812  1.7093  1.0111
 7250TIP3   OH245944   0.376   2.969  11.724  0.2049  0.0726 -0.3888
 7250TIP3    H145945   0.356   2.905  11.792 -1.2215  0.1936 -0.6670
 7250TIP3    H245946   0.420   2.919  11.656 -0.0208 -0.4233 -0.1772
 7251TIP3   OH245947   5.335   3.215  12.037  0.1835 -0.4236  0.0510
 7251TIP3    H145948   5.287   3.151  11.984  0.7327 -1.9298  1.2795
 7251TIP3    H245949   5.424   3.178  12.043  1.1418  1.5589 -0.9678
 7252TIP3   OH245950   7.270   3.558  10.223 -0.1282  0.1472  0.5061
 7252TIP3    H145951   7.293   3.584  10.134 -0.8044 -0.1344  0.2443
 7252TIP3    H245952   7.326   3.483  10.242  1.7099  1.6135  1.2005
 7253TIP3   OH245953   3.836   2.852  10.555 -0.0641 -0.1965  0.3563
 7253TIP3    H145954   3.749   2.885  10.577 -0.4446 -0.5127 -0.6488
 7253TIP3    H245955   3.832   2.759  10.575 -0.1418 -0.3218 -0.2364
 7254TIP3   OH245956   7.571   5.067  10.876  0.0955 -0.3987  0.1338
 7254TIP3    H145957   7.549   5.160  10.868 -0.5779 -0.5737 -0.1987
 7254TIP3    H245958   7.666   5.063  10.863 -0.0706  0.0759 -1.5031
 7255TIP3   OH245959   3.921   3.994  12.534 -0.5546 -0.5180 -0.3004
 7255TIP3    H145960   3.983   3.940  12.486 -0.3635 -0.6788  0.1172
 7255TIP3    H245961   3.835   3.965  12.504 -0.4350 -0.3555 -0.8172
 7256TIP3   OH245962   3.555   4.829  11.619 -0.1980  0.1278 -0.1534
 7256TIP3    H145963   3.618   4.795  11.682  1.7530  1.9903 -0.9734
 7256TIP3    H245964   3.533   4.916  11.652 -1.4708 -0.0457 -0.4945
 7257TIP3   OH245965   1.474   7.359  11.840 -0.0937 -0.0793 -1.0295
 7257TIP3    H145966   1.454   7.413  11.917  2.2703  0.2647 -0.5942
 7257TIP3    H245967   1.388   7.334  11.806 -1.2453 -0.7313  2.0285
 7258TIP3   OH245968   7.243   4.115  11.158  0.3277 -0.8767 -0.1348
 7258TIP3    H145969   7.240   4.186  11.093  0.4619 -0.2075  0.5836
 7258TIP3    H245970   7.151   4.093  11.174  0.2877 -0.9150 -0.4090
 7259TIP3   OH245971   1.054   4.798  12.310  0.1581 -0.7364 -0.1547
 7259TIP3    H145972   1.108   4.734  12.262  0.1051  0.4728 -1.8921
 7259TIP3    H245973   0.974   4.806  12.259 -0.1836  0.1274  0.4892
 7260TIP3   OH245974   2.768   6.626  13.435  0.4676  0.1914 -0.1429
 7260TIP3    H145975   2.691   6.569  13.435 -0.1455  1.0049 -0.2673
 7260TIP3    H245976   2.825   6.589  13.368 -0.4212  0.3633 -1.0183
 7261TIP3   OH245977   7.643   7.385  11.721  0.2883  0.4901  0.8627
 7261TIP3    H145978   7.729   7.395  11.681  0.3875  1.6047  1.3123
 7261TIP3    H245979   7.594   7.463  11.693 -0.9668 -0.6462 -0.2960
 7262TIP3   OH245980   1.790   6.962  12.906  0.2417  0.3948 -0.4251
 7262TIP3    H145981   1.843   6.884  12.895  0.2567  0.5202 -1.3367
 7262TIP3    H245982   1.754   6.955  12.994  0.4836 -0.4854 -0.3895
 7263TIP3   OH245983   1.096   0.963  12.845 -0.4036  0.7654  0.3769
 7263TIP3    H145984   1.061   1.049  12.821  1.0154  1.2411 -0.1207
 7263TIP3    H245985   1.082   0.957  12.939 -1.3815  1.1192  0.2682
 7264TIP3   OH245986   5.307   4.582  11.530  0.1651  0.3691 -0.3935
 7264TIP3    H145987   5.231   4.528  11.551  0.5166 -0.0765 -0.2443
 7264TIP3    H245988   5.318   4.639  11.607 -0.2718  0.7400 -0.5976
 7265TIP3   OH245989   3.096   2.711  18.709 -0.5287  0.0258 -0.1613
 7265TIP3    H145990   3.072   2.671  18.792 -1.4044 -2.0466 -1.3192
 7265TIP3    H245991   3.170   2.659  18.678 -1.0759 -0.1093 -1.2877
 7266TIP3   OH245992   2.144   7.012  12.353  0.4941 -0.1843  0.5307
 7266TIP3    H145993   2.139   7.078  12.423 -0.4767 -2.5981  2.8991
 7266TIP3    H245994   2.236   7.011  12.328  0.5649  1.9245  0.5000
 7267TIP3   OH245995   6.647   5.657  11.387 -0.0360 -0.1967  0.2628
 7267TIP3    H145996   6.616   5.646  11.297  0.5328  0.0232  0.0339
 7267TIP3    H245997   6.583   5.714  11.429 -0.9849 -1.2964  0.3682
 7268TIP3   OH245998   0.069   7.008  10.767  0.3668  0.2831  0.1261
 7268TIP3    H145999   0.164   7.022  10.765  0.4250 -0.1830 -0.9216
 7268TIP3    H246000   0.032   7.093  10.742  0.3795  1.2379  2.9583
 7269TIP3   OH246001   3.369   1.346  13.460  0.3793 -0.2486  0.4679
 7269TIP3    H146002   3.455   1.319  13.430  1.3920  2.0425  1.0947
 7269TIP3    H246003   3.378   1.439  13.479 -1.9662 -0.1629  1.5362
 7270TIP3   OH246004   1.264   4.829  10.843  0.0770 -0.4326  0.5713
 7270TIP3    H146005   1.194   4.798  10.785  0.4402  0.0622 -0.1461
 7270TIP3    H246006   1.221   4.892  10.900  0.1083  0.5838 -0.4905
 7271TIP3   OH246007   0.158   7.393  10.316 -0.0009 -0.2564  0.0130
 7271TIP3    H146008   0.189   7.362  10.231  1.1586  0.9407 -0.0250
 7271TIP3    H246009   0.116   7.316  10.355  1.5450 -1.4784 -0.6374
 7272TIP3   OH246010   1.506   3.082  11.405 -0.0087  0.0179  0.5843
 7272TIP3    H146011   1.560   3.049  11.333 -0.7511  2.4095 -1.1597
 7272TIP3    H246012   1.569   3.122  11.465  0.4239 -0.1281  0.2315
 7273TIP3   OH246013   4.924   4.485  12.406  0.7434 -0.1832  0.7492
 7273TIP3    H146014   4.874   4.413  12.367  2.1742 -0.8623  0.1206
 7273TIP3    H246015   4.895   4.488  12.497 -0.1204 -0.8268  0.5106
 7274TIP3   OH246016   0.320   6.856  11.417  0.2216 -0.1572 -0.6809
 7274TIP3    H146017   0.242   6.875  11.364  0.4285  0.4131 -0.7905
 7274TIP3    H246018   0.287   6.805  11.491 -0.1971 -0.2534 -0.9284
 7275TIP3   OH246019   2.304   4.482  11.358 -0.0016  0.4663  0.1817
 7275TIP3    H146020   2.258   4.457  11.438  0.8648 -2.5484 -0.1391
 7275TIP3    H246021   2.311   4.577  11.363 -0.1818  0.4228  3.5832
 7276TIP3   OH246022   4.424   5.328  12.851 -0.9990  0.1186 -0.0735
 7276TIP3    H146023   4.410   5.384  12.774 -3.0178  0.2242  0.3229
 7276TIP3    H246024   4.508   5.286  12.835  0.1760  2.5440 -0.8427
 7277TIP3   OH246025   4.708   1.375  11.564 -0.6617  0.1407  0.1670
 7277TIP3    H146026   4.626   1.405  11.524 -0.3741  0.1731 -0.3978
 7277TIP3    H246027   4.755   1.455  11.587 -0.0055  0.1537 -1.1161
 7278TIP3   OH246028   1.170   1.327  11.576  0.0109  0.3810 -0.3870
 7278TIP3    H146029   1.133   1.350  11.491  0.6056  0.4166 -0.6395
 7278TIP3    H246030   1.094   1.315  11.633 -0.3488  3.0045 -0.2099
 7279TIP3   OH246031   0.845   0.337  12.768  0.3651  0.0919 -0.7036
 7279TIP3    H146032   0.751   0.341  12.784  0.4332  2.5470 -0.3954
 7279TIP3    H246033   0.884   0.360  12.852  1.2499 -1.0199 -0.7983
 7280TIP3   OH246034   1.441   1.337  12.409  0.2023 -0.3495 -0.4610
 7280TIP3    H146035   1.461   1.312  12.500  2.4512 -0.1305 -0.8515
 7280TIP3    H246036   1.522   1.375  12.376 -0.2331 -1.3876 -2.9114
 7281TIP3   OH246037   7.624   5.540  13.529  0.3298  0.4731 -0.6038
 7281TIP3    H146038   7.668   5.479  13.589  0.6470  0.3180 -0.9939
 7281TIP3    H246039   7.692   5.603  13.505  0.8523 -0.7902 -2.6189
 7282TIP3   OH246040   1.856   1.522  13.197 -0.2090 -0.6272 -0.6292
 7282TIP3    H146041   1.943   1.503  13.232  0.1381 -0.2944 -1.2947
 7282TIP3    H246042   1.802   1.449  13.225  0.0687 -0.3964  0.5502
 7283TIP3   OH246043   3.011   7.107  12.852 -0.9127  0.5081  0.3165
 7283TIP3    H146044   2.931   7.087  12.901 -0.3278  1.8281  1.9225
 7283TIP3    H246045   3.081   7.098  12.916  0.3654 -1.3591 -1.2389
 7284TIP3   OH246046   2.573   7.303  11.979  0.2731 -0.8261  0.3377
 7284TIP3    H146047   2.653   7.253  11.995  0.6576 -0.3240  0.0337
 7284TIP3    H246048   2.587   7.343  11.893 -0.9440 -1.9462 -0.4165
 7285TIP3   OH246049   4.643   6.054  10.778  0.0996 -0.1228 -0.7603
 7285TIP3    H146050   4.657   6.058  10.683 -0.1277 -0.4317 -0.8093
 7285TIP3    H246051   4.693   6.128  10.813  0.7273 -0.4044 -1.0534
 7286TIP3   OH246052   4.504   4.297  11.514 -0.0143  0.2979 -0.3638
 7286TIP3    H146053   4.514   4.208  11.480 -3.8301 -0.3520 -0.2812
 7286TIP3    H246054   4.547   4.295  11.599 -0.3658 -1.6445 -0.1813
 7287TIP3   OH246055   4.517   1.653  10.758 -0.0079 -0.5635 -0.0632
 7287TIP3    H146056   4.520   1.744  10.729  0.9528 -0.8421 -0.8771
 7287TIP3    H246057   4.456   1.654  10.832 -1.1532  0.4768 -0.9747
 7288TIP3   OH246058   6.035   4.871  13.160 -0.4236 -0.7258  0.0916
 7288TIP3    H146059   5.951   4.874  13.115 -0.6436 -0.4875  0.5121
 7288TIP3    H246060   6.043   4.782  13.192 -0.8365 -0.5614  0.6544
 7289TIP3   OH246061   2.778   6.313  11.341 -0.1399 -0.2281 -0.1930
 7289TIP3    H146062   2.793   6.404  11.318 -1.2487  0.4332  1.5110
 7289TIP3    H246063   2.723   6.278  11.271 -2.0952  1.2570  0.5174
 7290TIP3   OH246064   7.238   5.836  10.891 -0.2941 -0.4785 -0.6425
 7290TIP3    H146065   7.181   5.913  10.889 -0.4498 -0.5752 -0.1447
 7290TIP3    H246066   7.311   5.861  10.948 -0.7891 -0.9870  0.2514
 7291TIP3   OH246067   7.469   1.947  12.840 -0.7598  0.0135 -0.3702
 7291TIP3    H146068   7.420   2.017  12.884  1.6723  0.2078  2.2780
 7291TIP3    H246069   7.411   1.870  12.847 -0.9347  0.2810  2.4509
 7292TIP3   OH246070   5.150   1.251  11.138  0.0312  0.0741 -0.1554
 7292TIP3    H146071   5.100   1.332  11.132  0.0480  0.5935  4.1302
 7292TIP3    H246072   5.084   1.182  11.146  0.0060  0.2161  0.8695
 7293TIP3   OH246073   2.318   0.649  13.455  0.2997  0.3598 -0.4705
 7293TIP3    H146074   2.245   0.661  13.515 -0.6242  0.7783 -1.6191
 7293TIP3    H246075   2.281   0.669  13.369  0.9518 -2.3434 -1.4953
 7294TIP3   OH246076   0.314   4.927  11.116  0.6548  0.4937 -0.0189
 7294TIP3    H146077   0.356   5.003  11.075 -0.3444  0.2771 -1.5288
 7294TIP3    H246078   0.280   4.876  11.043 -1.6793  0.3367  1.0736
 7295TIP3   OH246079   0.050   2.251  12.083 -0.3397  0.2766 -0.5179
 7295TIP3    H146080   0.130   2.223  12.039  0.6038  1.1258  0.6180
 7295TIP3    H246081   0.041   2.190  12.157 -1.2069 -0.3180 -1.0830
 7296TIP3   OH246082   3.110   2.241  11.809 -0.0839 -0.0414  0.4695
 7296TIP3    H146083   3.129   2.221  11.718 -2.6293  1.1543 -0.4161
 7296TIP3    H246084   3.140   2.331  11.821  0.0790 -0.1322  0.7734
 7297TIP3   OH246085   3.038   4.330  10.823 -0.2853  0.1893 -0.0418
 7297TIP3    H146086   2.976   4.345  10.895  0.2705 -1.0420  0.7229
 7297TIP3    H246087   3.102   4.401  10.832  0.9093 -1.0462  1.9780
 7298TIP3   OH246088   3.468   3.695  12.893  0.8132 -0.1588 -0.1188
 7298TIP3    H146089   3.545   3.664  12.941 -0.0764 -1.1682  0.7144
 7298TIP3    H246090   3.407   3.622  12.898  0.7121 -0.3596 -2.9472
 7299TIP3   OH246091   0.359   6.437  11.236  0.2145 -0.3605  0.2059
 7299TIP3    H146092   0.299   6.363  11.241 -0.9167  0.5731  0.8066
 7299TIP3    H246093   0.417   6.416  11.163 -1.3098 -0.9485 -0.8874
 7300TIP3   OH246094   3.170   4.937  10.943 -0.1831 -0.4420  0.4536
 7300TIP3    H146095   3.255   4.979  10.950 -0.8322  1.1488 -0.7330
 7300TIP3    H246096   3.107   5.009  10.943 -1.3032 -1.2894 -2.3519
 7301TIP3   OH246097   4.455   4.625  13.256 -0.5120 -0.5871 -0.1239
 7301TIP3    H146098   4.446   4.537  13.291  0.8496 -0.7155 -0.0582
 7301TIP3    H246099   4.520   4.667  13.312 -1.7844  0.7799  0.4087
 7302TIP3   OH246100   2.982   1.214  10.691 -0.4887 -0.5210 -0.4411
 7302TIP3    H146101   3.057   1.273  10.693 -1.5790  1.0820 -2.3647
 7302TIP3    H246102   3.016   1.132  10.655  0.1641  0.5915 -2.5122
 7303TIP3   OH246103   0.201   3.386  10.786 -0.3279  0.4726  0.5225
 7303TIP3    H146104   0.155   3.466  10.761 -1.0609 -0.3653 -0.9970
 7303TIP3    H246105   0.238   3.405  10.872 -0.8080  2.2940  0.3685
 7304TIP3   OH246106   4.082   7.010  12.376  0.5917 -0.9370 -0.5924
 7304TIP3    H146107   4.028   7.030  12.452 -2.4438 -0.2558 -2.7261
 7304TIP3    H246108   4.147   7.079  12.373  0.3258 -0.5897  0.9647
 7305TIP3   OH246109   1.056   2.412  10.869 -0.1647 -0.0374  0.0159
 7305TIP3    H146110   0.977   2.466  10.872 -0.5272 -0.5275 -0.4865
 7305TIP3    H246111   1.125   2.468  10.903 -0.4930  0.7994 -0.6680
 7306TIP3   OH246112   1.125   0.246  10.382 -0.0725  0.3860  0.8286
 7306TIP3    H146113   1.045   0.194  10.377 -0.1253  0.5364 -0.0695
 7306TIP3    H246114   1.196   0.183  10.365 -0.1740  0.6872 -0.8399
 7307TIP3   OH246115   6.303   0.147  12.447 -0.1281 -0.6919 -0.1725
 7307TIP3    H146116   6.324   0.240  12.440  1.4697 -0.9754  0.3607
 7307TIP3    H246117   6.290   0.132  12.541 -0.5447 -0.9779 -0.2715
 7308TIP3   OH246118   6.913   6.809  12.276  0.1713 -0.3752  0.3986
 7308TIP3    H146119   6.964   6.820  12.195 -1.1282  0.9320 -0.2873
 7308TIP3    H246120   6.929   6.889  12.326 -1.8701  0.5376 -0.2697
 7309TIP3   OH246121   4.040   4.369  12.778 -0.5160 -0.7315  0.4682
 7309TIP3    H146122   3.958   4.348  12.822 -1.0715  1.2577  0.4961
 7309TIP3    H246123   4.095   4.405  12.846 -1.1254  1.7034 -0.2225
 7310TIP3   OH246124   4.124   5.486  12.451 -0.5338 -0.4079  0.4136
 7310TIP3    H146125   4.154   5.421  12.387  4.3844  0.6824  1.2007
 7310TIP3    H246126   4.112   5.436  12.532  0.8531 -0.7430  0.4342
 7311TIP3   OH246127   3.379   6.003  11.457  0.3416 -0.1312 -0.0820
 7311TIP3    H146128   3.330   6.086  11.457  0.8329  0.1787  0.7906
 7311TIP3    H246129   3.412   5.995  11.368 -1.6036 -0.5561 -0.8236
 7312TIP3   OH246130   7.027   3.000  12.816 -0.2427  0.1907 -0.3247
 7312TIP3    H146131   7.008   2.994  12.723 -0.0674 -1.2123 -0.2927
 7312TIP3    H246132   6.941   2.994  12.858 -0.2756  0.2784 -0.3799
 7313TIP3   OH246133   5.098   2.158  11.821  0.5818  0.4792  0.0438
 7313TIP3    H146134   5.041   2.202  11.884  0.1085  0.9093 -0.6660
 7313TIP3    H246135   5.119   2.226  11.757  0.8990  0.0008 -0.3647
 7314TIP3   OH246136   3.419   5.143  12.399 -0.0380  0.1032  0.3464
 7314TIP3    H146137   3.433   5.055  12.365  0.4406 -0.0942  1.0311
 7314TIP3    H246138   3.498   5.191  12.376 -1.3780  1.1566 -2.4047
 7315TIP3   OH246139   4.772   0.439  11.433  0.2927 -0.3179 -0.7571
 7315TIP3    H146140   4.798   0.389  11.510  2.0713 -1.1209 -1.8217
 7315TIP3    H246141   4.830   0.515  11.432 -1.8368  1.4727  0.3782
 7316TIP3   OH246142   1.752   3.053  11.261  0.3048  0.2288 -0.6522
 7316TIP3    H146143   1.749   2.976  11.204 -0.5816 -0.9949  0.9639
 7316TIP3    H246144   1.820   3.032  11.326 -0.6088  0.3412  0.3761
 7317TIP3   OH246145   5.256   4.343  12.230  0.2396 -0.5464 -0.1748
 7317TIP3    H146146   5.231   4.429  12.264  1.2898  0.4271 -1.7369
 7317TIP3    H246147   5.184   4.286  12.256 -1.1874  1.0975 -0.2980
 7318TIP3   OH246148   2.871   3.196  11.997 -0.0724  0.5008  0.3121
 7318TIP3    H146149   2.937   3.130  11.976 -1.6243 -0.8223 -0.5861
 7318TIP3    H246150   2.863   3.192  12.092  1.1886  0.7501  0.4426
 7319TIP3   OH246151   0.618   0.987  11.803 -0.4050  0.7451  0.0020
 7319TIP3    H146152   0.585   0.897  11.806  1.1319  0.1640  0.1273
 7319TIP3    H246153   0.591   1.019  11.717 -1.1942  0.2717  0.0556
 7320TIP3   OH246154   0.052   0.251  12.173  0.0896  0.2189  0.6506
 7320TIP3    H146155   0.135   0.297  12.165 -0.1120  0.2589 -1.8002
 7320TIP3    H246156   0.016   0.249  12.085 -1.7454 -1.2540  1.3499
 7321TIP3   OH246157   4.933   6.077  12.717  0.3215 -0.4080 -0.1975
 7321TIP3    H146158   4.880   6.156  12.713 -0.9511 -1.0811  1.7483
 7321TIP3    H246159   5.021   6.106  12.695 -0.3163  1.3165 -0.6396
 7322TIP3   OH246160   5.253   5.772  11.162 -0.2876  0.3582  0.4384
 7322TIP3    H146161   5.244   5.860  11.125  0.1015  0.6605  1.0449
 7322TIP3    H246162   5.271   5.786  11.255  1.2893 -0.3074  0.2798
 7323TIP3   OH246163   3.192   4.463  11.317  0.1504  0.3888 -0.0863
 7323TIP3    H146164   3.178   4.543  11.266  2.2254  0.9767  0.1757
 7323TIP3    H246165   3.268   4.482  11.372 -1.3246 -0.6346  2.4418
 7324TIP3   OH246166   1.657   7.257  12.554 -0.0687 -0.2461 -0.0973
 7324TIP3    H146167   1.708   7.254  12.472 -0.2925 -0.0031 -0.2474
 7324TIP3    H246168   1.714   7.303  12.615 -0.0612 -0.0664 -0.2363
 7325TIP3   OH246169   5.420   7.661  10.581  0.0322  0.4951  0.3924
 7325TIP3    H146170   5.450   7.733  10.525 -0.9299  0.0986 -0.6814
 7325TIP3    H246171   5.494   7.644  10.639  1.4852  0.2899 -1.3996
 7326TIP3   OH246172   2.250   1.806  11.702  0.8253 -0.3293  0.0382
 7326TIP3    H146173   2.253   1.714  11.731  0.1834 -0.4711 -0.3175
 7326TIP3    H246174   2.325   1.847  11.745 -0.3336 -0.4237  2.2985
 7327TIP3   OH246175   1.687   1.880  10.826  0.1066 -0.1790  0.7687
 7327TIP3    H146176   1.695   1.785  10.818 -1.6018 -0.1969 -2.6115
 7327TIP3    H246177   1.774   1.914  10.805 -0.3244 -1.0077 -3.1164
 7328TIP3   OH246178   4.632   6.262  11.428 -0.1642 -0.6676 -0.2270
 7328TIP3    H146179   4.566   6.329  11.445 -0.6189 -1.3836  0.9685
 7328TIP3    H246180   4.655   6.274  11.336  0.1347  1.4347  0.0677
 7329TIP3   OH246181   2.128   7.652  11.346  0.0259  0.0617 -0.2817
 7329TIP3    H146182   2.101   7.561  11.359  1.0774 -0.7061 -2.9019
 7329TIP3    H246183   2.047   7.697  11.319 -0.0491 -0.6594 -1.3104
 7330TIP3   OH246184   2.966   6.233  11.780 -0.0830  0.3499 -0.6355
 7330TIP3    H146185   2.958   6.146  11.741 -0.2056 -0.3144  0.7976
 7330TIP3    H246186   2.905   6.232  11.854  0.6277  1.3129 -0.0081
 7331TIP3   OH246187   5.142   1.293  11.974  0.6109  0.2956  0.3066
 7331TIP3    H146188   5.208   1.249  11.921  0.2560  1.5593 -1.2738
 7331TIP3    H246189   5.146   1.250  12.059  2.8494 -0.2286 -0.0131
 7332TIP3   OH246190   2.883   6.891  11.277  0.1726 -0.0518  0.1630
 7332TIP3    H146191   2.950   6.834  11.240  0.3368 -1.1104  1.9588
 7332TIP3    H246192   2.834   6.924  11.201  0.8050 -1.6615 -1.0045
 7333TIP3   OH246193   6.734   5.799  12.703  0.6995  0.0280 -0.4601
 7333TIP3    H146194   6.648   5.759  12.702 -0.1130  1.7054 -0.8371
 7333TIP3    H246195   6.721   5.886  12.664  2.2736  0.8430  0.7094
 7334TIP3   OH246196   5.445   4.100  13.122 -0.2986 -0.3366  0.3288
 7334TIP3    H146197   5.379   4.108  13.053 -0.6908  0.0704  0.7357
 7334TIP3    H246198   5.518   4.055  13.081 -0.3062  0.3675 -0.5042
 7335TIP3   OH246199   4.079   6.035  12.812 -0.2865  0.9773 -0.3821
 7335TIP3    H146200   4.030   6.028  12.730 -1.4802 -2.7933  0.4778
 7335TIP3    H246201   4.163   5.995  12.793 -0.5262  0.1934  0.1817
 7336TIP3   OH246202   6.356   2.626  10.669 -0.6865  0.5233 -0.0346
 7336TIP3    H146203   6.321   2.701  10.622  2.8662  1.8968 -0.8242
 7336TIP3    H246204   6.335   2.643  10.761 -1.8113  1.3169 -0.4124
 7337TIP3   OH246205   5.241   3.035  11.361  0.0573  0.3609 -0.0366
 7337TIP3    H146206   5.264   3.128  11.351  3.3315 -0.4001 -0.8865
 7337TIP3    H246207   5.277   3.010  11.445  0.1501 -0.3764 -0.2870
 7338TIP3   OH246208   2.948   4.332  11.093 -0.1135  0.3460  0.0276
 7338TIP3    H146209   3.040   4.306  11.083 -0.4874 -0.9963 -0.1270
 7338TIP3    H246210   2.901   4.250  11.104 -1.3320  1.0055 -0.0853
 7339TIP3   OH246211   1.141   4.898  12.675 -0.7943 -0.7297  0.8243
 7339TIP3    H146212   1.142   4.928  12.766 -1.2378  0.2639  0.5265
 7339TIP3    H246213   1.051   4.910  12.647 -0.8238 -1.7278  0.4641
 7340TIP3   OH246214   6.696   6.305  12.610  0.9572  0.5530 -0.5669
 7340TIP3    H146215   6.790   6.304  12.630  1.2503 -0.2665 -1.8827
 7340TIP3    H246216   6.656   6.251  12.678  1.4250  0.9025 -0.0000
 7341TIP3   OH246217   2.301   2.930  12.564 -0.1940  0.0171  0.0153
 7341TIP3    H146218   2.328   2.874  12.635  0.5564  0.3047 -0.0371
 7341TIP3    H246219   2.219   2.892  12.532 -0.6112 -0.0263  1.1157
 7342TIP3   OH246220   2.644   6.731  11.436 -0.2078 -0.2341  0.5657
 7342TIP3    H146221   2.580   6.777  11.383  0.6433 -2.9089 -3.2197
 7342TIP3    H246222   2.712   6.796  11.455 -0.8464  1.0273 -1.2318
 7343TIP3   OH246223   6.502   6.052  13.004  0.7263 -0.0886 -0.2927
 7343TIP3    H146224   6.411   6.071  13.025  0.7452  0.6907 -0.8897
 7343TIP3    H246225   6.529   5.989  13.071  0.0815  0.5167  0.5618
 7344TIP3   OH246226   6.952   6.289  11.240  0.3805  0.6525  0.4407
 7344TIP3    H146227   7.022   6.305  11.177  1.3107  0.1177  1.3255
 7344TIP3    H246228   6.993   6.240  11.311 -0.8480  0.4806  1.0622
 7345TIP3   OH246229   7.130   4.960  10.615  0.1170 -0.6380 -0.2525
 7345TIP3    H146230   7.192   4.891  10.593  1.5201  0.1191  1.0799
 7345TIP3    H246231   7.185   5.031  10.649 -1.3374  0.8279 -0.8307
 7346TIP3   OH246232   1.266   6.052  12.066  0.2695  0.2803  0.7359
 7346TIP3    H146233   1.278   6.128  12.009  2.5440 -1.4848 -1.3420
 7346TIP3    H246234   1.176   6.024  12.050  0.8847 -0.2558 -2.2459
 7347TIP3   OH246235   4.217   4.499  12.967 -0.2972 -0.4158 -0.0091
 7347TIP3    H146236   4.171   4.573  13.006 -0.7964 -0.3376 -0.7156
 7347TIP3    H246237   4.290   4.482  13.025 -1.5787 -0.9686  1.5129
 7348TIP3   OH246238   2.786   4.205  12.865 -0.3709 -0.6362  0.0563
 7348TIP3    H146239   2.742   4.256  12.797  0.5444 -0.8347 -0.6977
 7348TIP3    H246240   2.835   4.270  12.915 -0.1684 -0.6305 -0.1515
 7349TIP3   OH246241   6.764   5.060  12.340 -0.9450 -0.2851 -0.3483
 7349TIP3    H146242   6.782   5.144  12.298 -0.5684  0.0639  0.4740
 7349TIP3    H246243   6.784   5.076  12.433 -0.8704 -1.2837 -0.1868
 7350TIP3   OH246244   7.382   7.250  11.741  0.1008 -0.0949 -0.4372
 7350TIP3    H146245   7.457   7.308  11.727  0.8655 -1.1358 -0.7188
 7350TIP3    H246246   7.369   7.207  11.657 -1.4392  0.7646 -0.6858
 7351TIP3   OH246247   5.495   6.796  12.060 -0.2244  0.5515  0.0711
 7351TIP3    H146248   5.404   6.818  12.082 -0.5678 -0.1848 -0.5666
 7351TIP3    H246249   5.520   6.861  11.995 -0.6536  0.1204 -0.5317
 7352TIP3   OH246250   4.989   2.782  12.979  0.1309  0.3517 -0.1031
 7352TIP3    H146251   5.041   2.843  13.031  1.0242 -1.4180  1.2382
 7352TIP3    H246252   4.929   2.742  13.043  0.8406 -1.4606 -0.5199
 7353TIP3   OH246253   2.676   5.998  11.105  0.8254  0.0392  0.2631
 7353TIP3    H146254   2.727   5.978  11.183  1.1732  0.0035  0.0295
 7353TIP3    H246255   2.586   5.978  11.129  1.0180 -0.6589  0.4228
 7354TIP3   OH246256   6.711   5.012  10.262  0.2827 -0.2184 -0.5283
 7354TIP3    H146257   6.742   4.922  10.272  1.2198  0.1912  0.4810
 7354TIP3    H246258   6.774   5.065  10.310 -0.5696  0.9321 -0.6152
 7355TIP3   OH246259   2.430   3.275  11.245 -0.0944  0.5093  0.6169
 7355TIP3    H146260   2.402   3.202  11.190 -0.1261 -0.0838  1.3869
 7355TIP3    H246261   2.521   3.291  11.220 -0.0912  0.2135  0.4299
 7356TIP3   OH246262   2.793   1.763  12.229 -0.2236  0.1810  0.1726
 7356TIP3    H146263   2.765   1.848  12.195  1.0423  0.3944 -0.3584
 7356TIP3    H246264   2.883   1.777  12.258 -0.9167 -0.2301  2.7823
 7357TIP3   OH246265   2.686   0.456  12.426 -0.4099 -0.4410 -0.4429
 7357TIP3    H146266   2.750   0.527  12.416 -1.3811  0.4903 -0.2277
 7357TIP3    H246267   2.613   0.482  12.370 -0.9890 -1.0133  0.0354
 7358TIP3   OH246268   1.507   1.712  13.091  0.3625  0.6608 -0.1619
 7358TIP3    H146269   1.508   1.805  13.112  2.2945  0.2092  2.4009
 7358TIP3    H246270   1.600   1.687  13.092 -0.1675 -1.5220  0.6424
 7359TIP3   OH246271   5.247   5.975  10.475 -0.2765  0.2152 -0.3466
 7359TIP3    H146272   5.213   6.058  10.509  0.2027 -0.2533  1.3949
 7359TIP3    H246273   5.341   5.992  10.461 -0.3959  0.2861 -1.0875
 7360TIP3   OH246274   2.316   3.344  11.493 -0.0516  0.4531 -0.1021
 7360TIP3    H146275   2.357   3.332  11.408  0.0115 -0.7760  0.0839
 7360TIP3    H246276   2.378   3.306  11.556 -0.9438 -0.4323  0.2861
 7361TIP3   OH246277   1.379   7.359  10.797  0.0771  0.3098 -0.0638
 7361TIP3    H146278   1.434   7.340  10.721  0.3921  0.6603  0.0737
 7361TIP3    H246279   1.334   7.277  10.815  1.5935 -0.3970  0.6736
 7362TIP3   OH246280   5.492   7.339  10.634  0.0912  0.0710 -0.0945
 7362TIP3    H146281   5.427   7.344  10.565 -0.6563 -1.4022  0.4761
 7362TIP3    H246282   5.550   7.414  10.617 -0.2012 -0.1047 -2.1500
 7363TIP3   OH246283   2.886   4.654  11.623 -0.0440  0.6773  0.5849
 7363TIP3    H146284   2.823   4.652  11.552 -0.4716  3.2095  0.8118
 7363TIP3    H246285   2.839   4.616  11.698 -0.0854 -0.6130 -0.0592
 7364TIP3   OH246286   2.158   0.293  11.394 -1.4067 -0.0627 -0.5404
 7364TIP3    H146287   2.233   0.342  11.430  0.3751 -2.3571 -0.9509
 7364TIP3    H246288   2.098   0.285  11.468  1.1265 -2.6177  1.4575
 7365TIP3   OH246289   3.584   6.457  10.794 -0.3125 -0.1858 -0.6459
 7365TIP3    H146290   3.503   6.496  10.761 -1.6736  0.3263  2.8036
 7365TIP3    H246291   3.649   6.527  10.790 -1.3122  0.8711  0.6061
 7366TIP3   OH246292   1.087   0.541  12.215  0.3117 -0.3266  0.1871
 7366TIP3    H146293   1.031   0.529  12.292 -0.1700 -2.2105 -0.3856
 7366TIP3    H246294   1.124   0.629  12.225 -3.6654  1.5908  0.0275
 7367TIP3   OH246295   7.619   2.494  12.092 -0.3086  0.1752 -0.2273
 7367TIP3    H146296   7.617   2.398  12.090  2.0997  0.0715 -1.1087
 7367TIP3    H246297   7.590   2.520  12.005  0.5475  0.1595 -0.5259
 7368TIP3   OH246298   0.840   5.309  10.727  0.3838  0.4470  0.5778
 7368TIP3    H146299   0.811   5.323  10.637 -1.0720 -0.7581  0.8301
 7368TIP3    H246300   0.935   5.314  10.722  0.6160 -3.1301 -1.7333
 7369TIP3   OH246301   2.452   4.181  12.285 -0.1300  1.2364  1.1007
 7369TIP3    H146302   2.527   4.185  12.226 -1.6739 -0.4098 -1.1192
 7369TIP3    H246303   2.425   4.089  12.284 -2.3804  1.8338  1.5606
 7370TIP3   OH246304   2.385   6.954  12.195  0.8990  0.4119  0.4251
 7370TIP3    H146305   2.360   6.999  12.114  0.7788 -1.3071 -0.5349
 7370TIP3    H246306   2.477   6.933  12.185  0.8477  0.0512  0.6692
 7371TIP3   OH246307   0.245   5.715  11.874 -0.1964 -0.1738  0.0498
 7371TIP3    H146308   0.258   5.769  11.952  0.7674 -0.0455 -0.1901
 7371TIP3    H246309   0.150   5.704  11.868 -0.3843  1.0876  0.3761
 7372TIP3   OH246310   2.972   0.671  13.002  0.6864 -0.4402 -0.2860
 7372TIP3    H146311   3.015   0.625  13.074 -0.9653  0.2229  1.2024
 7372TIP3    H246312   3.031   0.742  12.980  1.6533 -1.2155 -0.2501
 7373TIP3   OH246313   4.053   2.495  13.160  0.2242 -0.2340 -0.0047
 7373TIP3    H146314   4.040   2.588  13.142 -0.3220 -0.1463  0.7652
 7373TIP3    H246315   3.969   2.455  13.137  0.0120 -0.3298  0.9018
 7374TIP3   OH246316   0.776   6.342  12.679 -0.7004  0.1015  0.1117
 7374TIP3    H146317   0.796   6.270  12.739 -1.1916 -0.2955 -0.1969
 7374TIP3    H246318   0.840   6.334  12.609 -0.8279 -0.1039  0.0190
 7375TIP3   OH246319   3.945   5.049  11.463  0.0100  0.2679 -0.1820
 7375TIP3    H146320   3.883   5.026  11.394 -1.0626  1.7166  0.2532
 7375TIP3    H246321   4.028   5.065  11.417 -0.7694  1.5503 -1.1915
 7376TIP3   OH246322   5.765   1.715  12.395 -0.1085 -0.2123  0.2125
 7376TIP3    H146323   5.701   1.774  12.354  1.6256  1.0870 -0.8179
 7376TIP3    H246324   5.848   1.739  12.353  1.3437 -0.6571  2.6549
 7377TIP3   OH246325   0.362   5.894  11.526 -0.3464  0.4084  0.4237
 7377TIP3    H146326   0.442   5.895  11.473 -0.2367  1.5388  0.5777
 7377TIP3    H246327   0.313   5.818  11.495 -0.1658  0.8914 -1.1163
 7378TIP3   OH246328   3.902   0.868  11.246 -0.1155  0.0262 -0.8577
 7378TIP3    H146329   3.946   0.936  11.298 -0.3285 -0.9820  0.7200
 7378TIP3    H246330   3.963   0.794  11.248 -0.6798 -0.4486 -0.9933
 7379TIP3   OH246331   1.566   5.163  11.414 -0.0474  0.1364 -0.2883
 7379TIP3    H146332   1.596   5.075  11.390 -1.8412 -0.2377 -1.3418
 7379TIP3    H246333   1.479   5.149  11.452 -1.1195  1.5673 -2.0888
 7380TIP3   OH246334   2.964   2.155  12.473 -0.0196  0.0784 -0.4148
 7380TIP3    H146335   2.945   2.082  12.531 -3.0877  1.8923  1.1080
 7380TIP3    H246336   2.933   2.128  12.387 -0.3318 -0.7052 -0.0588
 7381TIP3   OH246337   3.481   6.598  12.005 -0.4466  0.6391 -0.6502
 7381TIP3    H146338   3.563   6.586  11.957 -0.5482  0.1469 -0.7068
 7381TIP3    H246339   3.479   6.691  12.025  1.5257  0.2524  1.8737
 7382TIP3   OH246340   0.109   0.639  10.467  0.1619  0.0975 -0.1713
 7382TIP3    H146341   0.040   0.685  10.515  0.5196  0.3745  0.0844
 7382TIP3    H246342   0.163   0.709  10.430  0.4952 -0.1197 -0.0976
 7383TIP3   OH246343   3.643   2.995  11.065 -0.2218 -0.0453 -0.0317
 7383TIP3    H146344   3.697   2.948  11.001  0.2606  1.0601 -0.4779
 7383TIP3    H246345   3.598   3.062  11.013  1.2290  1.7825  0.9244
 7384TIP3   OH246346   3.569   2.239  10.559 -0.1965 -0.0421 -0.5763
 7384TIP3    H146347   3.579   2.328  10.594  1.3975  0.2387 -1.6732
 7384TIP3    H246348   3.624   2.185  10.615  0.7252  0.0712 -1.3545
 7385TIP3   OH246349   5.650   1.951  10.378 -0.2954  0.4466  0.0764
 7385TIP3    H146350   5.598   1.873  10.358 -0.2207  0.0528  1.3426
 7385TIP3    H246351   5.740   1.923  10.366 -0.3079  1.1489 -2.1857
 7386TIP3   OH246352   1.903   3.500  12.166  0.0814  0.5106 -0.2935
 7386TIP3    H146353   1.851   3.577  12.187 -0.7193  0.2089 -1.0871
 7386TIP3    H246354   1.896   3.491  12.071 -0.7936 -1.1648 -0.1108
 7387TIP3   OH246355   0.376   1.101  12.240 -0.1373  0.2780 -0.3379
 7387TIP3    H146356   0.342   1.080  12.327 -0.2963 -2.3698 -0.9648
 7387TIP3    H246357   0.471   1.090  12.249 -0.1762 -0.2270 -0.5633
 7388TIP3   OH246358   6.058   1.984  12.806 -0.0706  0.4325  0.1279
 7388TIP3    H146359   6.045   2.003  12.713  0.4733 -2.2790 -0.6132
 7388TIP3    H246360   5.970   1.985  12.844 -0.2340  2.2050 -0.2213
 7389TIP3   OH246361   2.809   3.998  12.682 -0.3834  0.1480 -0.4471
 7389TIP3    H146362   2.811   4.061  12.753  1.1159 -0.2941 -0.0540
 7389TIP3    H246363   2.719   3.967  12.679 -0.6790  0.8652  0.6368
 7390TIP3   OH246364   1.991   4.522  10.719 -0.3305 -0.0543 -0.2738
 7390TIP3    H146365   1.900   4.542  10.743  0.1786  1.2608  0.6569
 7390TIP3    H246366   2.025   4.603  10.681 -0.7705 -1.7215 -4.8388
 7391TIP3   OH246367   1.321   1.373  12.180  0.3661  0.1675 -0.0546
 7391TIP3    H146368   1.357   1.365  12.268  0.6466 -0.4219 -0.2151
 7391TIP3    H246369   1.386   1.423  12.131  0.7729 -0.5373 -0.2364
 7392TIP3   OH246370   4.009   0.256  11.291 -0.3897  0.0570  0.1053
 7392TIP3    H146371   3.990   0.344  11.257 -1.7566  0.5835  2.1027
 7392TIP3    H246372   4.092   0.266  11.337  0.8685 -0.3951 -1.9173
 7393TIP3   OH246373   3.756   7.575  11.319 -0.3034  0.1807 -0.1460
 7393TIP3    H146374   3.768   7.627  11.239  1.3117 -0.5657 -0.4402
 7393TIP3    H246375   3.662   7.573  11.333 -0.6543 -0.0014 -2.2742
 7394TIP3   OH246376   5.582   1.909  12.295 -0.0001 -0.3375  0.4702
 7394TIP3    H146377   5.499   1.953  12.312 -1.2390 -2.9006  1.4696
 7394TIP3    H246378   5.647   1.980  12.296 -1.9502  1.5432  1.1963
 7395TIP3   OH246379   4.897   1.523  12.172 -0.4894 -0.1955  0.5413
 7395TIP3    H146380   4.983   1.491  12.146 -0.6082 -1.2923  1.4185
 7395TIP3    H246381   4.908   1.551  12.263 -1.1192 -0.5984  0.7507
 7396TIP3   OH246382   3.793   4.003  11.418  0.2667 -0.1119  0.6795
 7396TIP3    H146383   3.809   4.043  11.503  0.4204  0.0885  0.5568
 7396TIP3    H246384   3.701   3.977  11.421  0.9513 -2.7095  1.9858
 7397TIP3   OH246385   7.546   1.132  10.366  0.3701 -0.0055 -0.7052
 7397TIP3    H146386   7.485   1.068  10.402 -0.3717 -0.7136 -3.0727
 7397TIP3    H246387   7.600   1.083  10.304  1.3447  1.2071 -0.8666
 7398TIP3   OH246388   2.361   4.525  13.436 -0.1230  0.0789 -0.6019
 7398TIP3    H146389   2.444   4.479  13.449  0.3313  1.3855  1.6031
 7398TIP3    H246390   2.317   4.475  13.367  0.9143 -2.8127  0.6596
 7399TIP3   OH246391   4.940   1.544  11.814  0.1495  0.0062  0.0806
 7399TIP3    H146392   4.911   1.559  11.724  0.4552  0.3970  0.0445
 7399TIP3    H246393   4.878   1.479  11.849  0.4226 -0.6277 -0.6067
 7400TIP3   OH246394   5.386   2.688  11.732 -0.3034 -0.4008  0.4113
 7400TIP3    H146395   5.474   2.651  11.738 -0.9611 -1.9897  1.0864
 7400TIP3    H246396   5.330   2.622  11.774 -1.9515  0.0567 -0.9494
 7401TIP3   OH246397   4.569   3.563  11.537  0.4714  0.8538  0.2762
 7401TIP3    H146398   4.522   3.646  11.542  0.4006  0.7546  1.8976
 7401TIP3    H246399   4.502   3.498  11.514  0.3998  1.1350 -0.3265
 7402TIP3   OH246400   5.074   6.024  10.734 -0.1256 -0.0365 -0.3681
 7402TIP3    H146401   4.987   5.984  10.745  0.7865 -1.5223  2.6881
 7402TIP3    H246402   5.069   6.107  10.781 -0.2505  0.5247 -1.3559
 7403TIP3   OH246403   0.720   2.520  10.499 -0.1250 -0.1860 -0.1853
 7403TIP3    H146404   0.807   2.492  10.527  0.2531  1.7654  0.7508
 7403TIP3    H246405   0.712   2.487  10.410  1.1483 -1.2700  0.0637
 7404TIP3   OH246406   2.165   5.636  11.711  0.0380 -0.8867  0.3247
 7404TIP3    H146407   2.201   5.616  11.625  0.0431  0.2767  0.0285
 7404TIP3    H246408   2.223   5.704  11.746  1.3889 -2.9131  2.2406
 7405TIP3   OH246409   1.496   6.509  12.671 -0.1421 -0.2985  0.3720
 7405TIP3    H146410   1.543   6.467  12.744  0.0319 -1.9323 -0.6348
 7405TIP3    H246411   1.442   6.576  12.713  1.0508 -0.2003  1.8460
 7406TIP3   OH246412   5.479   5.139  11.143 -0.6743  0.1645 -0.2481
 7406TIP3    H146413   5.397   5.126  11.095 -0.6212 -1.2344 -0.0120
 7406TIP3    H246414   5.520   5.052  11.144  0.7322  0.8050 -0.2153
 7407TIP3   OH246415   5.082   5.313  12.068 -0.0788 -0.5110  0.2558
 7407TIP3    H146416   5.074   5.303  12.163  1.4676  0.5367  0.5454
 7407TIP3    H246417   5.146   5.247  12.042 -0.0259 -0.3764  0.0412
 7408TIP3   OH246418   4.530   1.141  11.961  0.0382 -0.7284  0.2048
 7408TIP3    H146419   4.541   1.047  11.949 -2.3615 -1.4612  2.7153
 7408TIP3    H246420   4.614   1.172  11.994  0.8400 -1.9812 -0.6216
 7409TIP3   OH246421   4.333   5.663  10.685  0.1893 -0.6268  0.2418
 7409TIP3    H146422   4.413   5.700  10.723 -0.4209  1.0899 -0.0768
 7409TIP3    H246423   4.327   5.703  10.598 -0.9981 -0.7659  0.2441
 7410TIP3   OH246424   2.952   2.421  10.714  0.1150 -0.3335  0.8463
 7410TIP3    H146425   2.919   2.437  10.803  1.3494 -0.4494  1.3478
 7410TIP3    H246426   3.033   2.371  10.727  2.3618  2.7009 -0.0442
 7411TIP3   OH246427   7.411   2.007  12.124 -0.0604 -0.4323 -0.3382
 7411TIP3    H146428   7.363   2.089  12.128  0.3832 -0.1412 -0.8520
 7411TIP3    H246429   7.454   2.008  12.038 -0.0412 -1.1912 -0.3445
 7412TIP3   OH246430   6.822   2.720  11.981  0.6998  0.3286  0.4218
 7412TIP3    H146431   6.752   2.720  12.046 -0.4175  1.1910 -0.7122
 7412TIP3    H246432   6.889   2.779  12.017 -1.5221  3.9080 -0.7164
 7413TIP3   OH246433   2.763   1.998  12.050 -0.4479  0.1735  0.0361
 7413TIP3    H146434   2.716   2.055  11.990  1.4618  1.3658 -0.3935
 7413TIP3    H246435   2.788   1.922  11.997  1.4556  1.3392 -0.8210
 7414TIP3   OH246436   2.614   2.569  11.227 -0.2510  0.1381  0.1915
 7414TIP3    H146437   2.599   2.574  11.133 -2.5834  1.3898  0.5508
 7414TIP3    H246438   2.528   2.553  11.264  0.5476  0.1369  2.1566
 7415TIP3   OH246439   1.354   0.761  11.346  0.6109  0.0540 -0.3473
 7415TIP3    H146440   1.414   0.833  11.327  1.0091 -0.1118  0.2900
 7415TIP3    H246441   1.389   0.687  11.297  2.0100 -0.5494  1.4615
 7416TIP3   OH246442   1.706   1.422  12.355 -0.4816 -0.3685  0.2372
 7416TIP3    H146443   1.755   1.487  12.405 -1.3854 -0.4072  1.2046
 7416TIP3    H246444   1.759   1.343  12.361 -1.3370 -0.8451  2.5899
 7417TIP3   OH246445   2.012   1.929  12.666  0.4599 -0.1678  0.0555
 7417TIP3    H146446   1.932   1.981  12.667  0.9482  0.6952 -1.7990
 7417TIP3    H246447   1.983   1.839  12.677 -0.9735 -0.0561 -2.2676
 7418TIP3   OH246448   1.049   4.526  11.406  0.1613  0.4894  0.0113
 7418TIP3    H146449   1.010   4.441  11.429  0.4677  1.0078  2.6504
 7418TIP3    H246450   0.974   4.579  11.376 -0.2361 -0.2548 -0.3514
 7419TIP3   OH246451   4.253   1.676  11.367  0.2374  0.6192 -1.0891
 7419TIP3    H146452   4.212   1.735  11.431 -0.5427  0.3420 -1.3195
 7419TIP3    H246453   4.319   1.731  11.324 -1.2199  1.7207 -2.0807
 7420TIP3   OH246454   5.483   4.374  10.901 -0.4566  0.0667  0.2443
 7420TIP3    H146455   5.558   4.380  10.961  0.4745 -0.0473 -0.8706
 7420TIP3    H246456   5.458   4.282  10.903 -0.4952  0.0811  0.5229
 7421TIP3   OH246457   6.044   6.946  11.674  0.5367 -0.5244  0.4488
 7421TIP3    H146458   6.037   7.024  11.618  0.4288 -1.0714 -0.3085
 7421TIP3    H246459   6.050   6.982  11.763  2.0250  0.4122  0.0107
 7422TIP3   OH246460   6.411   2.381  12.147 -0.4113  0.2355  0.3884
 7422TIP3    H146461   6.405   2.419  12.235  1.4252  1.6429 -0.0446
 7422TIP3    H246462   6.465   2.443  12.097  0.7109 -1.7754 -1.0404
 7423TIP3   OH246463   6.879   5.136  12.564 -0.1383  0.5385  0.0660
 7423TIP3    H146464   6.889   5.162  12.655  0.0151  1.9579 -0.3373
 7423TIP3    H246465   6.953   5.177  12.519  1.1815 -2.0582 -0.3629
 7424TIP3   OH246466   1.636   5.704  10.998  0.1340  0.1517 -0.3372
 7424TIP3    H146467   1.665   5.616  10.977 -0.3837 -0.1349  0.1440
 7424TIP3    H246468   1.556   5.717  10.948 -1.1168 -0.5395  1.3755
 7425TIP3   OH246469   7.378   5.324  13.484 -0.2752  0.6251 -0.7712
 7425TIP3    H146470   7.450   5.386  13.492 -0.2939  0.7721 -1.6289
 7425TIP3    H246471   7.299   5.376  13.503 -0.1881  0.5560 -0.2175
 7426TIP3   OH246472   2.722   4.210  11.623 -0.5354 -0.3889  0.0594
 7426TIP3    H146473   2.770   4.218  11.541 -2.7657  1.8321 -1.1614
 7426TIP3    H246474   2.665   4.134  11.611 -1.2404  0.2492 -0.7004
 7427TIP3   OH246475   2.189   1.843  12.038 -0.2275  0.3320  0.0789
 7427TIP3    H146476   2.280   1.873  12.040 -0.4847  1.1339  1.5579
 7427TIP3    H246477   2.194   1.754  12.002  1.1110  0.4520 -0.0952
 7428TIP3   OH246478   2.143   3.320  12.526  0.2145  0.1478 -0.7404
 7428TIP3    H146479   2.202   3.251  12.496  0.6858  0.1969  0.0511
 7428TIP3    H246480   2.200   3.384  12.567 -0.3034  0.6221 -0.7453
 7429TIP3   OH246481   5.557   2.509  10.406 -0.0013  0.2239 -0.7524
 7429TIP3    H146482   5.497   2.441  10.374  1.4705 -1.6171  0.1975
 7429TIP3    H246483   5.639   2.492  10.360  0.1326  2.0988 -1.2981
 7430TIP3   OH246484   3.697   3.399  11.540 -0.3946  0.1508 -0.8024
 7430TIP3    H146485   3.607   3.393  11.507 -0.1277  0.4842 -1.6176
 7430TIP3    H246486   3.701   3.484  11.584 -0.1796  0.6440 -1.7420
 7431TIP3   OH246487   4.978   5.241  11.053  0.0573 -0.3037  0.1988
 7431TIP3    H146488   4.946   5.238  11.143  0.8861  1.7583  0.6375
 7431TIP3    H246489   4.901   5.227  10.999 -0.7405 -0.0388  1.2418
 7432TIP3   OH246490   2.919   5.386  11.879  0.6216  0.5730  1.0875
 7432TIP3    H146491   2.969   5.463  11.854  0.9211  0.2124  0.5545
 7432TIP3    H246492   2.871   5.362  11.800  0.5963  0.1648  1.2225
 7433TIP3   OH246493   0.138   2.570  10.841  0.0340  0.3006 -0.4282
 7433TIP3    H146494   0.226   2.602  10.862 -0.1402  1.2365 -1.0932
 7433TIP3    H246495   0.098   2.640  10.790 -1.4204  0.2528  0.5929
 7434TIP3   OH246496   4.716   3.546  12.002  0.3340  0.0875 -0.4863
 7434TIP3    H146497   4.780   3.593  11.948  0.4687  0.6373  0.1321
 7434TIP3    H246498   4.634   3.594  11.989 -0.0866 -0.8900 -1.6397
 7435TIP3   OH246499   4.035   7.343  11.086  0.8771 -0.1802 -0.3788
 7435TIP3    H146500   4.031   7.436  11.063  0.0594  0.1036  0.8605
 7435TIP3    H246501   3.947   7.310  11.067  0.2714 -0.0124  1.9339
 7436TIP3   OH246502   2.297   3.610  10.598  0.0785  0.2469 -0.4415
 7436TIP3    H146503   2.353   3.687  10.607 -0.2964  0.5164 -0.4061
 7436TIP3    H246504   2.213   3.637  10.636  0.1787 -0.4330  0.2995
 7437TIP3   OH246505   6.506   5.668  12.131  0.2366 -0.3782 -0.2019
 7437TIP3    H146506   6.423   5.621  12.116 -0.2104  0.1283  0.6010
 7437TIP3    H246507   6.525   5.653  12.224  0.7875 -0.0727 -0.2642
 7438TIP3   OH246508   2.590   4.146  13.058 -0.0250 -0.1598  0.4006
 7438TIP3    H146509   2.523   4.214  13.048 -0.2859 -0.6495 -1.7741
 7438TIP3    H246510   2.659   4.171  12.996  1.2198 -0.3666  1.6632
 7439TIP3   OH246511   0.099   2.126  10.575  0.1609  0.2955  0.1713
 7439TIP3    H146512   0.105   2.210  10.620  1.0617  0.0253  0.5694
 7439TIP3    H246513   0.116   2.147  10.483  1.6480  0.3935  0.4377
 7440TIP3   OH246514   0.879   6.999  12.045 -0.2569  0.5060  0.5809
 7440TIP3    H146515   0.887   7.080  11.996  0.3761  0.0882 -0.0169
 7440TIP3    H246516   0.897   6.930  11.982 -0.1164 -0.0710  1.2327
 7441TIP3   OH246517   3.577   3.863  12.222  0.2013  0.3555  0.3135
 7441TIP3    H146518   3.500   3.912  12.192 -0.2473  0.2698  1.2709
 7441TIP3    H246519   3.547   3.772  12.226  0.5106  0.2488  0.1770
 7442TIP3   OH246520   4.115   1.822  12.943 -0.3843  0.0926  0.5066
 7442TIP3    H146521   4.166   1.877  13.003  0.9331 -1.4642  0.8828
 7442TIP3    H246522   4.130   1.861  12.856  1.0080  0.0069  0.6882
 7443TIP3   OH246523   1.521   1.538  12.162 -0.4336  0.0065  0.1265
 7443TIP3    H146524   1.599   1.511  12.209  0.9706 -0.5679 -2.3624
 7443TIP3    H246525   1.505   1.628  12.192 -0.6976 -0.8631  2.9007
 7444TIP3   OH246526   2.108   5.612  13.210 -0.1292 -0.3354 -0.0108
 7444TIP3    H146527   2.052   5.566  13.272 -1.6653  1.0867 -0.2869
 7444TIP3    H246528   2.110   5.702  13.241  1.8251 -0.2705 -0.1701
 7445TIP3   OH246529   4.503   5.545  11.925 -0.0805 -0.5077 -0.5420
 7445TIP3    H146530   4.497   5.461  11.969  0.0681  0.2056  0.9024
 7445TIP3    H246531   4.443   5.602  11.973  2.4131  1.1461  0.8703
 7446TIP3   OH246532   0.954   4.071  12.750 -0.4203  0.8346  0.3567
 7446TIP3    H146533   0.920   3.981  12.744 -0.3052  0.8759 -1.1230
 7446TIP3    H246534   1.045   4.060  12.778  0.1338  0.3590 -1.5273
 7447TIP3   OH246535   7.474   3.693  12.362 -0.0017  0.2996  0.1668
 7447TIP3    H146536   7.417   3.735  12.426  0.2213 -0.1716  0.6801
 7447TIP3    H246537   7.454   3.737  12.279 -1.3928 -0.1166  0.2553
 7448TIP3   OH246538   2.997   0.964  10.582 -1.4210 -0.3489  0.4176
 7448TIP3    H146539   3.040   0.931  10.503 -1.4910  0.9687 -0.2021
 7448TIP3    H246540   2.961   0.886  10.624  0.5447 -1.3531  0.3451
 7449TIP3   OH246541   0.637   5.448  10.886  0.0187 -0.0117 -0.4662
 7449TIP3    H146542   0.697   5.395  10.833 -0.4421  0.7500 -1.8129
 7449TIP3    H246543   0.693   5.514  10.927  0.7867 -2.1069  2.1495
 7450TIP3   OH246544   0.299   1.109  10.511 -0.1083  0.7273 -0.6232
 7450TIP3    H146545   0.328   1.200  10.510  1.4450  0.3184  1.3509
 7450TIP3    H246546   0.378   1.058  10.491 -0.1985 -0.2811  1.3617
 7451TIP3   OH246547   5.470   0.358  11.097 -0.1833 -0.1167  0.2045
 7451TIP3    H146548   5.435   0.280  11.140  1.7541 -0.0729  1.9867
 7451TIP3    H246549   5.397   0.390  11.044 -1.5539 -2.1820  0.7160
 7452TIP3   OH246550   2.581   7.635  12.087  0.6223 -0.1232 -0.2288
 7452TIP3    H146551   2.603   7.709  12.143  0.1620  0.0801 -0.3172
 7452TIP3    H246552   2.645   7.639  12.015  0.8229 -0.0270 -0.0463
 7453TIP3   OH246553   6.551   5.202  10.626 -0.3282  0.5083 -0.2154
 7453TIP3    H146554   6.531   5.125  10.573 -0.6817  1.5770 -1.7097
 7453TIP3    H246555   6.646   5.212  10.618 -0.4451  0.9993 -1.1811
 7454TIP3   OH246556   1.343   5.544  12.241  0.3276 -0.2209  0.5149
 7454TIP3    H146557   1.258   5.576  12.213  1.0103  1.3317  0.1167
 7454TIP3    H246558   1.378   5.613  12.298  1.9564 -0.0905 -0.5700
 7455TIP3   OH246559   3.753   0.666  12.888 -0.4888  0.5793  0.4282
 7455TIP3    H146560   3.729   0.576  12.867  1.6556  0.1098 -0.2644
 7455TIP3    H246561   3.841   0.676  12.852 -0.0920  2.4996  1.7866
 7456TIP3   OH246562   7.650   3.497  12.212 -0.1093 -0.4038  0.0612
 7456TIP3    H146563   7.624   3.406  12.195 -0.4042 -0.4395  0.6605
 7456TIP3    H246564   7.594   3.524  12.285 -1.8408  1.1054 -1.7442
 7457TIP3   OH246565   0.754   6.156  11.504  0.5157 -0.5910  0.3084
 7457TIP3    H146566   0.708   6.239  11.507  1.0869 -0.2966  1.4997
 7457TIP3    H246567   0.785   6.142  11.593 -0.2649 -2.4921  0.3360
 7458TIP3   OH246568   4.795   4.432  13.116  0.0514 -0.1564 -0.1741
 7458TIP3    H146569   4.864   4.430  13.050  0.1344  2.1530 -0.2514
 7458TIP3    H246570   4.714   4.439  13.064  0.0202  0.2793 -0.0763
 7459TIP3   OH246571   0.306   7.298  12.338  0.2013 -0.2765 -0.1775
 7459TIP3    H146572   0.257   7.305  12.420 -1.2984 -1.5064 -0.9070
 7459TIP3    H246573   0.275   7.216  12.299  2.7849 -1.0345 -0.7780
 7460TIP3   OH246574   0.340   2.185  10.340  0.4221 -0.6869  0.0199
 7460TIP3    H146575   0.253   2.197  10.301  0.1398  0.3042  0.9216
 7460TIP3    H246576   0.371   2.102  10.303 -0.8018 -0.9350 -0.5074
 7461TIP3   OH246577   1.133   3.835  12.716  0.0962 -0.0333 -0.6928
 7461TIP3    H146578   1.159   3.904  12.778 -1.2847 -1.7824  2.0405
 7461TIP3    H246579   1.039   3.848  12.703 -0.2370 -1.4414  0.0486
 7462TIP3   OH246580   4.085   3.342  12.051 -0.0006  0.1761  0.0905
 7462TIP3    H146581   3.994   3.333  12.081 -0.5383  1.7356 -0.9730
 7462TIP3    H246582   4.110   3.253  12.024 -1.1176 -0.3119  0.5975
 7463TIP3   OH246583   4.977   7.493  12.594 -0.4680  0.6121 -0.1386
 7463TIP3    H146584   5.028   7.425  12.638  1.2862  2.1425  0.2882
 7463TIP3    H246585   4.989   7.476  12.501 -0.8245 -0.1938 -0.0487
 7464TIP3   OH246586   6.860   2.832  12.348 -0.0612  0.1590  0.0922
 7464TIP3    H146587   6.783   2.798  12.303  0.5274 -0.5764 -0.3935
 7464TIP3    H246588   6.932   2.819  12.286  0.3857  1.2333  0.3634
 7465TIP3   OH246589   5.593   0.442  10.782  0.2804  0.0532 -0.3480
 7465TIP3    H146590   5.668   0.468  10.834 -1.8421  2.5646  1.7367
 7465TIP3    H246591   5.577   0.517  10.724 -0.4505 -0.5697 -0.9756
 7466TIP3   OH246592   1.417   6.289  13.429 -0.3618  0.1741 -0.0962
 7466TIP3    H146593   1.476   6.345  13.479 -1.0452  0.1629  0.7547
 7466TIP3    H246594   1.425   6.203  13.471  0.3669 -0.2853 -1.1260
 7467TIP3   OH246595   1.143   6.182  13.367 -0.1780 -0.7300  0.1293
 7467TIP3    H146596   1.223   6.232  13.382 -1.1141  1.3437 -1.1512
 7467TIP3    H246597   1.163   6.094  13.396  2.0062  0.1024  1.3982
 7468TIP3   OH246598   3.382   6.472  11.277  0.1567 -0.4659 -0.7769
 7468TIP3    H146599   3.362   6.476  11.371 -0.6003 -0.0924 -0.9446
 7468TIP3    H246600   3.316   6.413  11.242  1.7416 -2.3350 -0.7635
 7469TIP3   OH246601   0.622   5.433  12.268  0.2770  0.5680  0.1064
 7469TIP3    H146602   0.574   5.505  12.309  1.7639  1.1237  0.9669
 7469TIP3    H246603   0.600   5.439  12.175 -2.8586 -0.4702  0.6758
 7470TIP3   OH246604   0.368   7.557  12.251 -0.5591 -0.2579  0.5222
 7470TIP3    H146605   0.348   7.469  12.282  0.0329 -0.4155  0.4591
 7470TIP3    H246606   0.286   7.605  12.260 -0.8447 -0.7776  0.6902
 7471TIP3   OH246607   2.860   1.555  10.755  0.3566 -0.3143 -0.1315
 7471TIP3    H146608   2.921   1.491  10.720  1.4087  0.6052 -0.0073
 7471TIP3    H246609   2.888   1.638  10.718 -2.3020 -0.1137 -2.0916
 7472TIP3   OH246610   0.073   4.024  11.370  0.1578  0.0332  0.4677
 7472TIP3    H146611   0.018   4.081  11.317  0.2618 -0.4050 -0.1264
 7472TIP3    H246612   0.151   4.075  11.388  0.8898 -0.4150 -1.2874
 7473TIP3   OH246613   4.347   7.227  12.162  0.1013  0.2914 -0.1599
 7473TIP3    H146614   4.395   7.220  12.079  1.7598  0.7239  0.7045
 7473TIP3    H246615   4.300   7.144  12.170  1.4075 -0.5375 -0.6716
 7474TIP3   OH246616   5.136   6.404  12.420 -0.4017 -0.2792 -0.1476
 7474TIP3    H146617   5.166   6.314  12.408  0.0841 -0.0482 -0.6572
 7474TIP3    H246618   5.088   6.402  12.503 -0.3407 -0.9927 -0.1263
 7475TIP3   OH246619   2.076   1.258  12.068  0.7216 -0.2584 -0.3135
 7475TIP3    H146620   1.990   1.296  12.050  0.9235  0.2985 -0.1217
 7475TIP3    H246621   2.134   1.296  12.002  0.8450 -0.5323 -0.3622
 7476TIP3   OH246622   3.958   4.448  12.519  0.1769  0.3615  0.8696
 7476TIP3    H146623   3.986   4.538  12.534 -0.4522  0.2408  3.1322
 7476TIP3    H246624   3.968   4.405  12.605 -0.2047 -1.5318  0.0222
 7477TIP3   OH246625   0.331   6.279  10.486  0.2088  0.1950  0.0877
 7477TIP3    H146626   0.317   6.192  10.449  0.8370  0.5954 -1.1762
 7477TIP3    H246627   0.266   6.287  10.555 -0.9385 -0.6675 -0.8509
 7478TIP3   OH246628   1.747   4.123  11.800  0.3198  0.7938 -0.2776
 7478TIP3    H146629   1.657   4.118  11.768 -0.0200  0.6476  0.6873
 7478TIP3    H246630   1.775   4.031  11.807  0.4421  0.8299 -0.2894
 7479TIP3   OH246631   0.127   3.192  17.363 -0.0063 -0.5547 -0.1863
 7479TIP3    H146632   0.198   3.149  17.315  0.5768 -1.1074  1.1190
 7479TIP3    H246633   0.094   3.125  17.423 -0.5893  0.1598  0.3147
 7480TIP3   OH246634   2.392   6.439  11.861  0.0823  0.2138 -0.5530
 7480TIP3    H146635   2.463   6.468  11.919  0.1607  2.1689 -1.5002
 7480TIP3    H246636   2.330   6.395  11.918  0.8678  0.7129  0.7423
 7481TIP3   OH246637   2.588   6.403  10.472  0.2787 -0.3981  0.6970
 7481TIP3    H146638   2.660   6.354  10.511 -0.1238 -1.8300 -0.3130
 7481TIP3    H246639   2.624   6.437  10.390  0.3642  0.5120  1.0946
 7482TIP3   OH246640   6.099   6.456  11.620 -0.0912 -0.2635 -0.0754
 7482TIP3    H146641   6.042   6.383  11.645 -0.2041  0.2553  1.2874
 7482TIP3    H246642   6.042   6.517  11.574 -0.4554 -0.1472  0.5130
 7483TIP3   OH246643   4.930   4.209  11.407 -0.5173 -0.3823 -0.0636
 7483TIP3    H146644   5.018   4.174  11.414 -0.5425 -0.2399  1.4658
 7483TIP3    H246645   4.910   4.208  11.314  1.1342 -0.3176 -0.4446
 7484TIP3   OH246646   2.460   2.638  12.622 -0.1199  0.9078  0.5748
 7484TIP3    H146647   2.379   2.675  12.658 -0.4634  1.1656 -0.4202
 7484TIP3    H246648   2.430   2.566  12.566  0.3081  1.1775 -0.0155
 7485TIP3   OH246649   6.469   4.463  10.674  0.2654 -0.0497 -0.0330
 7485TIP3    H146650   6.513   4.386  10.709  0.9356  0.0360 -0.6563
 7485TIP3    H246651   6.454   4.519  10.751 -0.5520 -0.9447  0.4734
 7486TIP3   OH246652   5.052   4.530  11.312 -0.4660  0.7079  0.5659
 7486TIP3    H146653   4.994   4.454  11.310 -1.2980  1.3123 -2.2228
 7486TIP3    H246654   5.102   4.525  11.231  2.0824  1.2572  1.9956
 7487TIP3   OH246655   3.230   6.314  11.763 -0.6984 -0.4828 -0.2973
 7487TIP3    H146656   3.142   6.282  11.784 -0.9221  0.6616  0.5805
 7487TIP3    H246657   3.259   6.360  11.842  0.2657  0.0613 -0.9452
 7488TIP3   OH246658   4.470   3.068  10.809 -0.1411  0.1207  0.2680
 7488TIP3    H146659   4.520   3.149  10.797 -1.0751  0.7735  0.6599
 7488TIP3    H246660   4.475   3.051  10.903  0.9500 -0.8885  0.0527
 7489TIP3   OH246661   3.064   6.892  12.658 -0.0725  0.0790  0.8831
 7489TIP3    H146662   2.977   6.853  12.649 -0.0442  0.1173  0.4315
 7489TIP3    H246663   3.047   6.977  12.697 -0.4348  0.8847 -0.9129
 7490TIP3   OH246664   0.260   7.398  11.734  0.0629  0.0982  0.1745
 7490TIP3    H146665   0.236   7.371  11.823  3.4124 -0.5896  1.0015
 7490TIP3    H246666   0.247   7.319  11.681  2.0499 -0.8079  0.9631
 7491TIP3   OH246667   5.889   5.670  12.079 -1.1601 -0.1877 -0.1686
 7491TIP3    H146668   5.807   5.622  12.071 -1.7573  0.7201  0.2626
 7491TIP3    H246669   5.896   5.719  11.998  0.4669 -2.4622 -1.5013
 7492TIP3   OH246670   4.214   4.536  12.265  0.2405 -0.0341  0.1483
 7492TIP3    H146671   4.230   4.620  12.223  1.0098  0.0155  0.5257
 7492TIP3    H246672   4.299   4.492  12.264  0.1885 -0.1923  1.3123
 7493TIP3   OH246673   2.986   0.155  12.080 -0.5133 -0.2586 -0.2819
 7493TIP3    H146674   3.064   0.133  12.028  0.4227  0.7943  0.6473
 7493TIP3    H246675   3.015   0.223  12.140 -1.8797 -0.6201  0.8428
 7494TIP3   OH246676   5.823   4.292  12.702  0.3588 -0.2524  0.5007
 7494TIP3    H146677   5.882   4.228  12.661 -0.8016 -1.7365  1.0729
 7494TIP3    H246678   5.767   4.240  12.759 -0.8953  1.2384  0.6833
 7495TIP3   OH246679   3.490   4.475  11.724 -0.2042 -0.1776  0.0806
 7495TIP3    H146680   3.489   4.407  11.792  0.0690 -0.4626 -0.1951
 7495TIP3    H246681   3.411   4.457  11.672  0.7184 -1.3349 -0.9959
 7496TIP3   OH246682   3.187   3.944  10.828 -0.3335 -0.2408 -0.3310
 7496TIP3    H146683   3.272   3.987  10.837  0.1533 -1.1864 -0.3014
 7496TIP3    H246684   3.198   3.883  10.756 -0.6160 -1.2538  0.4630
 7497TIP3   OH246685   3.732   3.876  12.956 -0.0522  0.9022 -0.0380
 7497TIP3    H146686   3.741   3.804  12.893 -0.0261  1.2442 -0.4338
 7497TIP3    H246687   3.707   3.833  13.038  1.5390  0.2834  0.1596
 7498TIP3   OH246688   7.025   3.709  11.836 -0.3589  0.6341 -0.3902
 7498TIP3    H146689   6.955   3.666  11.787  0.5442 -0.7945 -0.4876
 7498TIP3    H246690   6.989   3.721  11.924 -1.2472  1.3057 -0.8348
 7499TIP3   OH246691   7.432   1.729  12.008 -0.8690 -0.1252  0.0751
 7499TIP3    H146692   7.380   1.712  11.929  0.6416 -0.8744 -0.8126
 7499TIP3    H246693   7.476   1.813  11.990  0.4652 -0.9050 -0.4801
 7500TIP3   OH246694   3.510   7.452  10.933  0.4629 -0.2229  0.0399
 7500TIP3    H146695   3.442   7.411  10.879  0.8202 -0.1977 -0.4382
 7500TIP3    H246696   3.521   7.539  10.895 -0.3360  0.3643  1.0904
 7501TIP3   OH246697   1.425   0.281  11.382  0.0502  0.4936  0.2990
 7501TIP3    H146698   1.448   0.193  11.352 -0.4415  0.3907  0.2160
 7501TIP3    H246699   1.480   0.295  11.459  1.1143  0.6429 -0.4625
 7502TIP3   OH246700   3.252   1.939  12.134 -0.2338 -0.5809  0.1466
 7502TIP3    H146701   3.319   1.872  12.128  0.6451  0.3296 -0.5821
 7502TIP3    H246702   3.300   2.021  12.146 -1.1819  0.1263 -0.6696
 7503TIP3   OH246703   4.516   5.801  10.867  0.3271  0.1420  0.3398
 7503TIP3    H146704   4.475   5.859  10.803 -0.1564  1.1116  1.4884
 7503TIP3    H246705   4.554   5.860  10.932  1.6049 -0.8032  0.4889
 7504TIP3   OH246706   7.032   5.244  12.358 -0.2272 -0.0756  0.1499
 7504TIP3    H146707   7.076   5.171  12.314  1.3322  0.6103  0.5267
 7504TIP3    H246708   6.997   5.297  12.287  0.6028  0.0055 -0.2044
 7505TIP3   OH246709   4.805   3.535  12.260  0.8825  0.3308  0.1404
 7505TIP3    H146710   4.778   3.624  12.281 -0.1094 -0.2948  1.8109
 7505TIP3    H246711   4.774   3.521  12.171  0.2014  1.3634  0.1942
 7506TIP3   OH246712   5.765   5.913  11.570 -0.0149  0.3154 -0.2333
 7506TIP3    H146713   5.793   5.995  11.530 -1.8212  1.5836  0.9170
 7506TIP3    H246714   5.718   5.867  11.501 -0.8730  1.2937 -0.3328
 7507TIP3   OH246715   7.262   5.137  12.877 -0.1809 -0.4867  0.4028
 7507TIP3    H146716   7.222   5.224  12.867  0.7376  0.0843  1.4477
 7507TIP3    H246717   7.192   5.081  12.909 -0.3073  0.3602  1.6535
 7508TIP3   OH246718   1.544   1.966  12.858  0.3295  0.7301 -0.5697
 7508TIP3    H146719   1.456   1.928  12.848  1.8071 -3.1805 -0.4543
 7508TIP3    H246720   1.534   2.056  12.827 -3.6770  0.4817 -0.6147
 7509TIP3   OH246721   7.366   4.623  11.581 -0.4982  0.3814  0.0983
 7509TIP3    H146722   7.404   4.535  11.579 -0.8660  0.2173  0.2558
 7509TIP3    H246723   7.298   4.621  11.513 -0.0493  0.7601 -0.3769
 7510TIP3   OH246724   0.116   5.285  11.608  0.3794  0.4091 -0.3402
 7510TIP3    H146725   0.071   5.201  11.624  2.5310 -0.7149  0.2422
 7510TIP3    H246726   0.046   5.348  11.594 -1.3266 -1.4341 -0.4647
 7511TIP3   OH246727   3.815   2.005  12.458  0.0082 -0.2223  0.1292
 7511TIP3    H146728   3.815   1.936  12.392 -1.9721 -0.8054  0.6854
 7511TIP3    H246729   3.828   2.086  12.409 -0.4990 -0.7229 -0.8528
 7512TIP3   OH246730   6.592   4.389  11.614  0.2563 -0.2086 -0.1649
 7512TIP3    H146731   6.575   4.351  11.700  0.9597  0.0133  0.0810
 7512TIP3    H246732   6.674   4.437  11.625  0.4493 -0.3322 -1.0105
 7513TIP3   OH246733   0.781   2.778  12.867 -0.0455  0.0034 -0.4582
 7513TIP3    H146734   0.825   2.853  12.828 -0.6294 -0.0004 -1.1363
 7513TIP3    H246735   0.843   2.706  12.859  0.9669  0.6285  1.1731
 7514TIP3   OH246736   7.518   6.200  12.369  0.3863  0.4363 -0.1182
 7514TIP3    H146737   7.607   6.199  12.335  0.1510  0.2920 -0.7433
 7514TIP3    H246738   7.529   6.205  12.464  1.0364  3.0071 -0.2689
 7515TIP3   OH246739   6.901   3.609  10.339  0.4591 -0.0766 -0.4893
 7515TIP3    H146740   6.867   3.541  10.398 -2.2699  0.2906 -1.5178
 7515TIP3    H246741   6.968   3.654  10.391 -2.4586  0.8939  2.8072
 7516TIP3   OH246742   2.965   7.456  11.700 -0.0321  0.0927  0.1385
 7516TIP3    H146743   3.026   7.510  11.650  1.0674 -0.4826  0.8147
 7516TIP3    H246744   3.010   7.440  11.783 -0.8524 -0.8549  0.4195
 7517TIP3   OH246745   0.732   4.425  11.585 -0.2677 -0.6398  0.1655
 7517TIP3    H146746   0.683   4.434  11.503  1.7881  1.1270 -0.9974
 7517TIP3    H246747   0.762   4.334  11.585 -0.4711 -0.7265 -0.9718
 7518TIP3   OH246748   2.383   7.237  10.756 -0.4900 -1.0848 -0.6554
 7518TIP3    H146749   2.442   7.287  10.813 -0.6880  0.5363 -1.7951
 7518TIP3    H246750   2.379   7.150  10.796  1.1542 -0.6769  0.5189
 7519TIP3   OH246751   3.525   6.122  12.967  0.3187 -0.1157  0.0255
 7519TIP3    H146752   3.584   6.159  13.032  0.4279 -0.0242 -0.1265
 7519TIP3    H246753   3.580   6.104  12.891 -0.4168  3.3722 -1.5192
 7520TIP3   OH246754   1.894   5.988  12.216  0.0759  0.5698  0.2268
 7520TIP3    H146755   1.882   5.965  12.124  0.4130  2.1708 -0.2594
 7520TIP3    H246756   1.899   5.905  12.262 -0.2250 -0.2572 -1.1856
 7521TIP3   OH246757   3.824   4.718  11.839 -0.3917 -0.2376  0.1553
 7521TIP3    H146758   3.779   4.660  11.900 -0.8322  0.0183  0.0812
 7521TIP3    H246759   3.801   4.806  11.868 -0.4394 -0.1134 -0.2528
 7522TIP3   OH246760   1.129   1.264  10.561  0.6506  0.0050 -0.2824
 7522TIP3    H146761   1.048   1.271  10.511  0.5493  0.7182 -0.0429
 7522TIP3    H246762   1.159   1.174  10.548 -0.7798 -0.6276  0.5453
 7523TIP3   OH246763   7.459   5.134  12.324  0.0987 -0.7312  0.3612
 7523TIP3    H146764   7.524   5.140  12.253 -0.1639 -0.2592  0.1566
 7523TIP3    H246765   7.486   5.057  12.374  0.1168 -1.2550 -0.4274
 7524TIP3   OH246766   5.241   5.112  11.962  0.2745 -0.1538  0.2247
 7524TIP3    H146767   5.268   5.036  12.013  0.2364  0.1192  0.6553
 7524TIP3    H246768   5.270   5.093  11.873 -3.4346 -2.7081 -0.7097
 7525TIP3   OH246769   5.337   5.272  13.285  0.4786 -0.4240  0.4091
 7525TIP3    H146770   5.272   5.229  13.229  0.4223  0.2695 -0.0677
 7525TIP3    H246771   5.357   5.207  13.353  0.4468 -1.2225 -0.3335
 7526TIP3   OH246772   5.769   5.116  12.389  0.0155 -0.3463 -0.3365
 7526TIP3    H146773   5.814   5.091  12.470 -3.1007 -1.6456  1.1356
 7526TIP3    H246774   5.716   5.192  12.415  0.0426  0.1098 -1.5739
 7527TIP3   OH246775   1.085   0.291  13.723 -0.2827  0.8831 -0.2334
 7527TIP3    H146776   0.992   0.301  13.703 -0.4262  2.0727  0.8883
 7527TIP3    H246777   1.093   0.202  13.758 -0.9884  0.7463 -0.4088
 7528TIP3   OH246778   7.271   7.096  13.424  0.1287 -0.2070 -0.5084
 7528TIP3    H146779   7.283   7.180  13.380  0.5486  0.2614  0.4604
 7528TIP3    H246780   7.359   7.068  13.448 -0.1411  0.1261  1.0191
 7529TIP3   OH246781   2.551   2.671  10.772 -0.2859 -0.6232  0.4170
 7529TIP3    H146782   2.641   2.677  10.740 -0.0043 -0.1205  1.2817
 7529TIP3    H246783   2.541   2.579  10.796 -0.1793 -0.7935 -0.1718
 7530TIP3   OH246784   0.518   6.354  11.025 -0.1531 -0.0837  0.4645
 7530TIP3    H146785   0.612   6.338  11.037 -0.2154 -3.8315 -2.3533
 7530TIP3    H246786   0.514   6.430  10.967  1.4108 -1.6566 -1.8842
 7531TIP3   OH246787   5.495   5.302  11.891  0.3903 -0.1194 -0.6438
 7531TIP3    H146788   5.550   5.280  11.816 -0.2301  3.1491 -2.2512
 7531TIP3    H246789   5.405   5.284  11.862  0.1158  1.5245 -0.9284
 7532TIP3   OH246790   1.768   2.574  11.856 -0.4470 -0.0019  0.4807
 7532TIP3    H146791   1.739   2.511  11.922 -0.2816 -1.2205 -0.5684
 7532TIP3    H246792   1.766   2.525  11.774  0.5431  1.1061 -0.2342
 7533TIP3   OH246793   0.245   3.268  12.069 -0.0307 -0.3565  0.9906
 7533TIP3    H146794   0.154   3.246  12.051 -0.1297  0.5324  0.2987
 7533TIP3    H246795   0.241   3.354  12.112  0.5262  0.3270 -0.2624
 7534TIP3   OH246796   4.279   3.923  11.781 -0.2174  0.1863 -0.2825
 7534TIP3    H146797   4.274   4.009  11.739  0.5104  0.2044 -0.3531
 7534TIP3    H246798   4.207   3.922  11.844 -1.1154  0.2866 -1.2897
 7535TIP3   OH246799   7.666   2.102  12.328  0.1503 -0.0672 -0.0401
 7535TIP3    H146800   7.572   2.090  12.316  0.0950  1.1620 -1.1302
 7535TIP3    H246801   7.674   2.154  12.407  0.0210 -1.3373  0.8423
 7536TIP3   OH246802   0.382   0.566  11.204 -0.1602 -0.5417  0.3712
 7536TIP3    H146803   0.293   0.576  11.170 -0.3511  1.5661  1.3756
 7536TIP3    H246804   0.428   0.645  11.177  0.6628 -0.3954  2.0420
 7537TIP3   OH246805   6.952   5.655  12.713  0.1102 -0.1137  0.7759
 7537TIP3    H146806   6.860   5.682  12.719 -0.8643 -3.1103  0.9864
 7537TIP3    H246807   6.991   5.685  12.795 -1.1907 -0.3522  1.5154
 7538TIP3   OH246808   7.283   4.405  10.503 -0.0482  0.2002 -0.2163
 7538TIP3    H146809   7.221   4.333  10.511 -2.2406  2.2043  3.2648
 7538TIP3    H246810   7.369   4.363  10.498 -1.2929 -2.6489  0.4825
 7539TIP3   OH246811   6.911   6.749  11.074  0.4480 -0.2852 -0.5375
 7539TIP3    H146812   6.908   6.764  11.168 -2.5194  0.6768 -0.6867
 7539TIP3    H246813   6.919   6.836  11.036 -0.7361 -0.4437 -1.1828
 7540TIP3   OH246814   0.697   6.510  12.878  0.1849  0.3569 -0.2233
 7540TIP3    H146815   0.706   6.474  12.789 -0.1312 -0.0153 -0.1107
 7540TIP3    H246816   0.787   6.527  12.906  0.3742 -0.6284 -0.1775
 7541TIP3   OH246817   4.463   4.644  12.962  0.3434  1.0135 -0.3063
 7541TIP3    H146818   4.369   4.644  12.945  0.2744 -1.6790 -0.3671
 7541TIP3    H246819   4.470   4.650  13.058  0.0908  0.7209 -0.2690
 7542TIP3   OH246820   6.326   0.428  10.723 -0.0988  0.7913 -0.3564
 7542TIP3    H146821   6.253   0.414  10.783  0.8077 -1.0537  0.3908
 7542TIP3    H246822   6.326   0.350  10.667  0.0942  1.7039 -1.6616
 7543TIP3   OH246823   2.797   2.015  11.073  0.1787  0.4686  0.4061
 7543TIP3    H146824   2.847   1.937  11.052  0.3101  0.7679 -0.4186
 7543TIP3    H246825   2.719   2.009  11.018 -0.5049  0.2152  1.3702
 7544TIP3   OH246826   4.942   2.249  10.982 -0.0930 -0.4589 -0.5216
 7544TIP3    H146827   4.867   2.263  11.039 -1.1695 -0.1198 -1.9754
 7544TIP3    H246828   5.008   2.311  11.014 -1.1614  0.6928 -0.4961
 7545TIP3   OH246829   2.890   5.585  11.101  0.1431 -0.7055 -0.0910
 7545TIP3    H146830   2.914   5.538  11.182  1.5442 -0.9458 -0.6093
 7545TIP3    H246831   2.948   5.548  11.034  0.9883  1.4028 -0.6263
 7546TIP3   OH246832   0.045   4.432  11.641  0.4694 -0.0301 -0.1824
 7546TIP3    H146833  -0.037   4.383  11.633  0.3611  0.1310 -0.0705
 7546TIP3    H246834   0.109   4.381  11.592  0.3000 -0.1541 -0.2737
 7547TIP3   OH246835   2.968   6.734  12.416 -0.1090 -0.8334  0.1785
 7547TIP3    H146836   3.031   6.800  12.445 -2.3680  0.8894  1.5122
 7547TIP3    H246837   2.948   6.757  12.326  0.6756 -0.9868 -0.0347
 7548TIP3   OH246838   3.036   5.607  11.813 -0.0470 -0.0986 -0.1370
 7548TIP3    H146839   3.055   5.692  11.852  0.2939 -0.1524 -0.1769
 7548TIP3    H246840   3.028   5.624  11.720 -1.8480  0.1956  0.0313
 7549TIP3   OH246841   1.539   2.164  11.101 -0.0168  0.0046  0.1805
 7549TIP3    H146842   1.465   2.103  11.098 -0.4932  0.5990 -1.2259
 7549TIP3    H246843   1.575   2.161  11.012  0.1747  1.4772  0.1872
 7550TIP3   OH246844   6.456   7.216  10.900  0.3628 -0.5357 -0.1233
 7550TIP3    H146845   6.361   7.225  10.894  0.2896 -1.3522 -0.2729
 7550TIP3    H246846   6.475   7.133  10.856  1.1167 -0.5085  0.1399
 7551TIP3   OH246847   0.524   3.148  11.874  0.2124 -0.1062 -0.3330
 7551TIP3    H146848   0.456   3.105  11.822  0.9984 -2.0751  0.1881
 7551TIP3    H246849   0.605   3.135  11.823  1.0929 -2.5452  1.5077
 7552TIP3   OH246850   1.821   5.385  12.160  0.3754 -0.3374  0.6773
 7552TIP3    H146851   1.733   5.406  12.130  0.5654  0.2869  0.5370
 7552TIP3    H246852   1.878   5.415  12.089  0.6276 -1.9434  0.1661
 7553TIP3   OH246853   1.056   0.929  13.116  0.7047  0.6121 -0.1756
 7553TIP3    H146854   1.146   0.962  13.116  2.0670 -2.6448  1.4794
 7553TIP3    H246855   1.039   0.906  13.207 -1.6903  0.7407 -0.5256
 7554TIP3   OH246856   1.150   0.496  12.615 -0.6425 -0.0281 -0.0552
 7554TIP3    H146857   1.194   0.569  12.572  0.5046 -0.7706 -0.2100
 7554TIP3    H246858   1.196   0.418  12.583 -3.2745 -1.0515 -1.6766
 7555TIP3   OH246859   5.015   3.931  12.696 -0.2432  0.1424  0.8645
 7555TIP3    H146860   5.047   3.854  12.743 -0.9919 -0.7938 -0.1270
 7555TIP3    H246861   5.006   3.998  12.764  2.7423  0.1561  1.3602
 7556TIP3   OH246862   0.839   4.681  12.051  0.3704  0.1233  0.5608
 7556TIP3    H146863   0.880   4.643  11.973 -0.5561  0.0124  0.1051
 7556TIP3    H246864   0.778   4.614  12.081  0.4411  0.3214  1.1504
 7557TIP3   OH246865   7.515   5.428  12.340 -0.3731  0.2622  0.0459
 7557TIP3    H146866   7.581   5.407  12.406 -0.9465  2.3496  1.3598
 7557TIP3    H246867   7.476   5.343  12.317  0.6127 -0.6387  1.5370
 7558TIP3   OH246868   5.571   7.303  12.536  0.0738  0.1498 -0.0239
 7558TIP3    H146869   5.641   7.342  12.485 -0.3784  0.4397 -0.4209
 7558TIP3    H246870   5.576   7.209  12.516  1.3678 -0.0656  1.1876
 7559TIP3   OH246871   6.654   4.774  11.166 -0.5060 -0.2389 -0.1029
 7559TIP3    H146872   6.669   4.680  11.157 -1.1008 -0.3832  0.4080
 7559TIP3    H246873   6.622   4.785  11.255  1.0292  0.6419  0.3882
 7560TIP3   OH246874   3.658   7.420  11.875 -0.3733  0.3567  0.7043
 7560TIP3    H146875   3.683   7.391  11.787  0.8470  0.4424  1.0114
 7560TIP3    H246876   3.728   7.479  11.902 -1.5049  1.5532  1.1426
 7561TIP3   OH246877   3.157   1.432  13.102 -0.0619 -0.4838  0.0698
 7561TIP3    H146878   3.238   1.381  13.109 -0.1719 -0.4851  1.9367
 7561TIP3    H246879   3.091   1.369  13.075  0.4760 -0.5573 -1.1328
 7562TIP3   OH246880   2.043   5.589  12.196  0.2378 -0.1715 -0.1336
 7562TIP3    H146881   1.985   5.664  12.212 -1.9710 -1.8566  0.3061
 7562TIP3    H246882   2.036   5.573  12.102  1.1051  0.4286 -0.3155
 7563TIP3   OH246883   3.649   5.208  12.138 -0.2822  0.3904  0.3027
 7563TIP3    H146884   3.689   5.266  12.074  0.1818 -0.6582 -0.3956
 7563TIP3    H246885   3.720   5.149  12.164 -0.5410  0.6126  1.5728
 7564TIP3   OH246886   0.762   1.567  12.511  0.1863  0.4952 -0.1114
 7564TIP3    H146887   0.692   1.632  12.514  0.2486  0.5262  1.0350
 7564TIP3    H246888   0.782   1.549  12.603  1.4903  0.2751 -0.4250
 7565TIP3   OH246889   5.166   1.622  11.955  0.2504  0.1148 -0.2871
 7565TIP3    H146890   5.093   1.643  11.897 -0.2705 -1.9458 -0.4425
 7565TIP3    H246891   5.175   1.527  11.950  0.2794 -0.1689  2.8770
 7566TIP3   OH246892   0.069   5.237  11.029  0.6058 -0.4900  0.4701
 7566TIP3    H146893   0.035   5.235  11.118 -0.2836  0.2708  0.1681
 7566TIP3    H246894   0.040   5.322  10.994  0.8445 -0.8217 -0.5720
 7567TIP3   OH246895   0.714   0.114  12.368 -0.2085  0.0054 -0.7762
 7567TIP3    H146896   0.759   0.180  12.314  2.0684 -0.7434  0.1167
 7567TIP3    H246897   0.684   0.163  12.445  1.9890 -0.0098  0.1683
 7568TIP3   OH246898   2.469   6.342  11.328 -0.4975 -0.2570  0.9518
 7568TIP3    H146899   2.510   6.394  11.396 -0.0531  1.7470 -0.7390
 7568TIP3    H246900   2.378   6.372  11.326 -0.5034 -0.2903  0.6483
 7569TIP3   OH246901   2.908   0.050  10.650  0.5943 -0.3082 -0.2958
 7569TIP3    H146902   2.937   0.108  10.580  1.6068  0.5978  0.8339
 7569TIP3    H246903   2.854  -0.016  10.606  2.5327 -0.7622 -2.1683
 7570TIP3   OH246904   0.337   3.962  11.810 -0.0052 -0.4317 -0.0315
 7570TIP3    H146905   0.254   4.006  11.795 -1.3104 -2.7301 -0.0047
 7570TIP3    H246906   0.383   3.967  11.727 -0.2877  0.5921 -0.1328
 7571TIP3   OH246907   2.303   0.698  12.512  0.4318  0.4574 -0.3223
 7571TIP3    H146908   2.307   0.611  12.550  0.1345 -0.1686 -1.6652
 7571TIP3    H246909   2.217   0.702  12.469 -0.1623  1.9364  0.8829
 7572TIP3   OH246910   6.191   2.197  10.794  0.5213  0.3887  0.3382
 7572TIP3    H146911   6.190   2.261  10.723 -2.4158 -0.9494 -0.9881
 7572TIP3    H246912   6.108   2.213  10.841  0.6004 -1.2390  1.0811
 7573TIP3   OH246913   7.522   7.320  11.140  0.2341  0.0638  0.3626
 7573TIP3    H146914   7.537   7.394  11.081  0.6853 -0.9351 -0.8123
 7573TIP3    H246915   7.584   7.253  11.111 -0.2842 -0.8510  1.2961
 7574TIP3   OH246916   2.026   3.095  12.615 -0.1093 -0.2976 -0.2534
 7574TIP3    H146917   1.973   3.141  12.680  0.5333 -1.0053  0.7939
 7574TIP3    H246918   2.069   3.164  12.565  0.2051  0.2514  0.7554
 7575TIP3   OH246919   5.145   6.473  11.770 -0.1350 -0.2334 -0.2552
 7575TIP3    H146920   5.093   6.417  11.828 -0.1858 -0.7104 -0.7501
 7575TIP3    H246921   5.230   6.429  11.764 -0.4683 -0.7641 -1.3703
 7576TIP3   OH246922   1.149   5.756  10.553  0.5600  0.0746  0.4233
 7576TIP3    H146923   1.123   5.668  10.528  0.6905  0.1839 -0.1003
 7576TIP3    H246924   1.117   5.813  10.483 -0.1950  0.5418  1.1327
 7577TIP3   OH246925   4.447   1.333  11.801 -0.3859  0.2488  0.0881
 7577TIP3    H146926   4.426   1.400  11.866 -0.8875 -0.2175  0.4059
 7577TIP3    H246927   4.483   1.260  11.852  1.8960  0.9275 -0.3973
 7578TIP3   OH246928   3.089   3.918  11.341  0.5547  0.4873  0.0087
 7578TIP3    H146929   3.172   3.877  11.363 -0.1967 -0.7119  0.7674
 7578TIP3    H246930   3.081   3.908  11.246  0.0850 -1.8822  0.2168
 7579TIP3   OH246931   0.102   2.458  11.624  0.0392  0.0880 -0.2771
 7579TIP3    H146932   0.047   2.468  11.546  1.1162  0.1527 -1.0540
 7579TIP3    H246933   0.161   2.386  11.602  1.1806  0.9222 -0.0212
 7580TIP3   OH246934   0.054   5.154  12.308 -0.3475  0.2904 -0.5121
 7580TIP3    H146935   0.091   5.241  12.323 -1.7182  0.9658 -0.8486
 7580TIP3    H246936   0.029   5.123  12.394  0.5871  0.0071 -0.3332
 7581TIP3   OH246937   5.752   1.720  11.229 -0.1354  0.0694 -0.2733
 7581TIP3    H146938   5.776   1.641  11.182 -0.3175 -0.8475  1.1232
 7581TIP3    H246939   5.834   1.766  11.242  0.0424 -0.1392 -0.6527
 7582TIP3   OH246940   1.132   7.079  12.204 -0.0987 -0.1433 -0.5305
 7582TIP3    H146941   1.188   7.091  12.127  1.5619 -1.0115  0.4971
 7582TIP3    H246942   1.070   7.011  12.178  0.6684 -0.6766 -1.0025
 7583TIP3   OH246943   3.707   2.221  11.987 -0.5246  0.0792  0.7374
 7583TIP3    H146944   3.721   2.246  11.896 -1.5466 -0.3653  0.4412
 7583TIP3    H246945   3.680   2.303  12.030  1.6390  0.6816  1.0641
 7584TIP3   OH246946   5.175   7.145  10.621 -0.3034 -0.3690 -0.1611
 7584TIP3    H146947   5.256   7.179  10.583  0.3859 -0.8291  0.8523
 7584TIP3    H246948   5.125   7.223  10.647  0.2770 -0.0967  0.1416
 7585TIP3   OH246949   5.577   1.898  11.568 -1.0196 -0.2717 -0.2956
 7585TIP3    H146950   5.628   1.926  11.492 -0.4876 -0.9668 -0.2080
 7585TIP3    H246951   5.643   1.863  11.629 -1.6788 -2.1245 -0.5909
 7586TIP3   OH246952   2.671   7.391  11.030 -0.0975  0.5543  0.0788
 7586TIP3    H146953   2.684   7.467  10.974 -0.3121  0.9993  0.6222
 7586TIP3    H246954   2.643   7.428  11.115 -0.9629 -0.1529  0.1219
 7587TIP3   OH246955   0.485   5.584  11.778  0.3157  0.3117 -0.0035
 7587TIP3    H146956   0.414   5.648  11.785  2.1120  2.4714 -0.5473
 7587TIP3    H246957   0.565   5.633  11.798  1.6757 -2.1504  1.1731
 7588TIP3   OH246958   6.791   4.420  10.685  0.1804  0.6191  0.3633
 7588TIP3    H146959   6.783   4.515  10.697  2.6723  0.8421  0.9873
 7588TIP3    H246960   6.872   4.410  10.635  1.6142 -1.2486  2.8259
 7589TIP3   OH246961   1.993   5.541  11.909 -0.3342  0.3703  0.3673
 7589TIP3    H146962   2.074   5.572  11.869 -0.8572  1.5228  0.1720
 7589TIP3    H246963   1.942   5.506  11.836 -0.4790  0.6834  0.3172
 7590TIP3   OH246964   3.933   6.972  12.647 -0.0201  0.2181  0.6458
 7590TIP3    H146965   3.858   6.929  12.606  0.2546 -0.9908  1.3486
 7590TIP3    H246966   3.980   6.900  12.690  1.4019  0.9903  0.4274
 7591TIP3   OH246967   0.118   6.111  12.288 -0.2250  0.1500 -0.2363
 7591TIP3    H146968   0.131   6.203  12.262  1.4511  0.0599  0.1443
 7591TIP3    H246969   0.157   6.105  12.375 -0.0168 -1.0021 -0.3965
 7592TIP3   OH246970   7.370   7.208  10.868 -0.0594 -0.5044 -0.0169
 7592TIP3    H146971   7.400   7.238  10.782  1.1003 -0.2420  0.4582
 7592TIP3    H246972   7.306   7.274  10.895  1.3833  0.7818  0.3728
 7593TIP3   OH246973   4.463   5.966  11.668  0.0668  0.6555 -0.1039
 7593TIP3    H146974   4.510   6.048  11.655  1.5917 -0.0923  0.4922
 7593TIP3    H246975   4.419   5.977  11.753  0.0161  0.9618 -0.1684
 7594TIP3   OH246976   2.826   7.440  11.363 -0.2503 -0.1317  0.3912
 7594TIP3    H146977   2.745   7.484  11.388 -0.6507  0.0578 -1.1439
 7594TIP3    H246978   2.800   7.350  11.343 -0.7601  0.6473 -3.1314
 7595TIP3   OH246979   3.907   4.577  11.619 -0.2303  0.0455 -0.2585
 7595TIP3    H146980   3.877   4.634  11.690  0.4251 -1.6548  1.4828
 7595TIP3    H246981   3.828   4.533  11.589 -0.1382 -1.7383  1.8377
 7596TIP3   OH246982   3.740   1.680  12.369 -0.2689 -0.3326 -0.5406
 7596TIP3    H146983   3.655   1.725  12.365  0.1309  0.5345  0.4706
 7596TIP3    H246984   3.799   1.738  12.322  0.3197  0.3996  1.0467
 7597TIP3   OH246985   4.253   1.946  12.730 -0.2020  0.1469  0.8069
 7597TIP3    H146986   4.308   2.018  12.758 -0.3165  1.2728 -1.6112
 7597TIP3    H246987   4.289   1.920  12.645 -2.5202  0.0032 -0.2036
 7598TIP3   OH246988   2.532   3.935  12.688  0.3908  0.2791 -0.4699
 7598TIP3    H146989   2.460   3.889  12.645  0.0219  0.6652 -0.2687
 7598TIP3    H246990   2.521   3.917  12.781 -0.3486  1.5706 -0.2787
 7599TIP3   OH246991   4.984   7.243  11.702 -0.0599  0.1916 -0.0309
 7599TIP3    H146992   5.010   7.154  11.680  0.4224  0.1400  0.7098
 7599TIP3    H246993   5.063   7.296  11.686 -0.5509  0.6148 -1.1654
 7600TIP3   OH246994   1.710   4.829  12.153  0.1635  0.3879  0.2366
 7600TIP3    H146995   1.788   4.786  12.120 -0.3807 -1.2967  1.0297
 7600TIP3    H246996   1.741   4.880  12.228  0.4665 -0.6212  0.8216
 7601TIP3   OH246997   1.277   5.967  10.678 -0.2711 -0.1671  0.3955
 7601TIP3    H146998   1.237   5.886  10.646 -0.6316  0.6134 -1.2766
 7601TIP3    H246999   1.357   5.976  10.626 -1.4215  1.6957 -1.1881
 7602TIP3   OH247000   5.525   5.979  10.514 -0.0312 -0.1504 -0.6470
 7602TIP3    H147001   5.583   5.998  10.588  0.8500  1.0507 -1.5967
 7602TIP3    H247002   5.545   5.888  10.492  0.1526 -0.3275  0.1944
 7603TIP3   OH247003   6.297   0.614  11.999  0.1988  0.1569  0.2239
 7603TIP3    H147004   6.298   0.531  12.047  0.7907  0.6819  1.1712
 7603TIP3    H247005   6.348   0.597  11.920  0.5242 -0.3164  0.5295
 7604TIP3   OH247006   0.004   5.986  10.377 -0.0656  0.1264  0.3001
 7604TIP3    H147007   0.010   6.002  10.471  0.8523  0.1203  0.2560
 7604TIP3    H247008  -0.063   5.919  10.369  0.4620 -0.5217  1.0489
 7605TIP3   OH247009   0.596   4.170  10.965  0.0070 -0.1542  0.1614
 7605TIP3    H147010   0.635   4.085  10.988  0.7863  0.6033  1.7838
 7605TIP3    H247011   0.515   4.148  10.919  1.8371 -1.7975 -2.5713
 7606TIP3   OH247012   0.871   0.146  11.227  0.5892  0.3180 -0.3886
 7606TIP3    H147013   0.936   0.077  11.238  1.8174  1.3714 -0.7406
 7606TIP3    H247014   0.881   0.201  11.305 -0.4919  0.0329 -0.0268
 7607TIP3   OH247015   5.870   7.093  11.092  0.4152 -0.0696 -0.3384
 7607TIP3    H147016   5.776   7.074  11.100  0.5103 -0.4218  0.0152
 7607TIP3    H247017   5.875   7.188  11.082  0.1073  0.1785  1.4484
 7608TIP3   OH247018   4.203   5.329  11.707  0.2525 -0.1733 -0.7372
 7608TIP3    H147019   4.298   5.344  11.711  0.2188  1.1676 -3.0145
 7608TIP3    H247020   4.195   5.238  11.678  0.7858 -0.5527  0.2319
 7609TIP3   OH247021   1.940   7.155  11.638 -0.5208 -0.8177  0.0097
 7609TIP3    H147022   1.953   7.135  11.730 -0.2406  2.6214  0.8458
 7609TIP3    H247023   2.021   7.127  11.595  0.1541 -0.6796  1.1657
 7610TIP3   OH247024   5.537   5.918  11.811 -0.2756 -0.6120  0.1923
 7610TIP3    H147025   5.536   5.879  11.899 -1.8902 -1.7744 -0.3073
 7610TIP3    H247026   5.555   5.845  11.752 -0.3348 -0.0541 -0.5260
 7611TIP3   OH247027   7.596   2.972  12.061  0.1156 -0.2922  0.6220
 7611TIP3    H147028   7.582   2.899  12.122  1.1365 -0.3187  0.8447
 7611TIP3    H247029   7.508   3.000  12.036 -0.3380 -0.1803  2.2320
 7612TIP3   OH247030   1.553   0.402  11.579  0.0429  0.3104 -0.2617
 7612TIP3    H147031   1.552   0.383  11.673 -0.3171 -0.3281 -0.3921
 7612TIP3    H247032   1.571   0.496  11.574 -2.2436  0.8373  0.5208
 7613TIP3   OH247033   5.014   2.826  12.270 -0.0036  0.0511 -0.2086
 7613TIP3    H147034   4.981   2.767  12.203 -2.8543  1.5602 -0.2989
 7613TIP3    H247035   5.079   2.880  12.226 -0.4672 -0.2276 -1.2498
 7614TIP3   OH247036   4.041   6.499  10.668 -0.4899 -0.0926  0.3984
 7614TIP3    H147037   4.124   6.547  10.679 -0.5660 -0.1678  1.3641
 7614TIP3    H247038   3.974   6.561  10.696 -0.7848 -0.0155 -0.4313
 7615TIP3   OH247039   2.194   3.268  10.674 -0.2488  0.5514  0.1321
 7615TIP3    H147040   2.195   3.173  10.660  0.2821  0.0540  2.9048
 7615TIP3    H247041   2.244   3.304  10.601  0.5716 -1.4259 -0.3396
 7616TIP3   OH247042   2.077   4.835  11.577  0.3035 -0.3078  0.0458
 7616TIP3    H147043   2.079   4.805  11.668  0.3209  0.8124  0.4306
 7616TIP3    H247044   2.137   4.775  11.532 -1.1041 -2.0624  0.3608
 7617TIP3   OH247045   1.743   2.765  11.443 -0.5864 -0.6765 -0.1662
 7617TIP3    H147046   1.652   2.793  11.438  0.2021  1.9752 -3.4240
 7617TIP3    H247047   1.750   2.698  11.375 -0.1741 -1.2366  0.4180
 7618TIP3   OH247048   5.534   4.201  11.196  0.1185  0.2260  0.7980
 7618TIP3    H147049   5.491   4.220  11.280 -0.4039 -0.6744  0.7410
 7618TIP3    H247050   5.560   4.109  11.202  0.0872  0.1549 -0.0300
 7619TIP3   OH247051   0.563   0.418  12.870  0.0805 -0.5503  0.6296
 7619TIP3    H147052   0.578   0.335  12.916 -1.3881 -0.6495  0.9699
 7619TIP3    H247053   0.507   0.394  12.796 -4.1729  0.6248  3.1163
 7620TIP3   OH247054   4.716   5.306  12.828  0.0455  0.1775 -0.8452
 7620TIP3    H147055   4.801   5.283  12.865 -0.2604 -0.3211 -0.4410
 7620TIP3    H247056   4.725   5.398  12.802  0.1659  0.6481  0.7693
 7621TIP3   OH247057   2.139   5.239  13.172  0.1649  0.7215 -0.0316
 7621TIP3    H147058   2.157   5.148  13.192  0.7255  0.6043 -0.9762
 7621TIP3    H247059   2.045   5.242  13.152  0.3237  0.1587 -0.9166
 7622TIP3   OH247060   0.924   3.189  11.377  0.2243  0.0748  0.2366
 7622TIP3    H147061   0.863   3.130  11.332 -0.7674  0.1782  1.4027
 7622TIP3    H247062   0.979   3.132  11.430 -0.8120  0.1532  1.4570
 7623TIP3   OH247063   7.269   2.182  11.840 -0.4360  0.3400  0.1164
 7623TIP3    H147064   7.351   2.188  11.792 -0.8953  0.9459 -0.5991
 7623TIP3    H247065   7.203   2.215  11.780 -0.8110  2.7193  1.7309
 7624TIP3   OH247066   3.907   2.630  12.305  0.0799 -0.4612 -0.0090
 7624TIP3    H147067   3.941   2.645  12.393 -1.8875 -0.0012  0.7096
 7624TIP3    H247068   3.812   2.633  12.314 -0.1934 -1.1255 -2.0338
 7625TIP3   OH247069   6.153   2.153  12.289 -0.2032  0.3650  0.0381
 7625TIP3    H147070   6.215   2.082  12.306 -0.3649  0.8846  3.3631
 7625TIP3    H247071   6.197   2.231  12.321 -1.1633  1.3384 -0.9371
 7626TIP3   OH247072   3.689   6.740  11.506  0.2185 -0.1932  0.2016
 7626TIP3    H147073   3.664   6.653  11.536  2.7953 -1.2367 -0.4353
 7626TIP3    H247074   3.653   6.746  11.417 -1.6330  0.2257  0.9406
 7627TIP3   OH247075   6.482   4.622  10.914  0.0564 -0.1669  0.0750
 7627TIP3    H147076   6.554   4.623  10.977  0.8057  0.2591 -0.7656
 7627TIP3    H247077   6.445   4.710  10.919 -1.1912 -0.7139  1.3417
 7628TIP3   OH247078   6.221   6.047  10.812 -0.4284 -0.0763 -0.2327
 7628TIP3    H147079   6.261   6.115  10.758  0.5172 -0.9757 -0.6974
 7628TIP3    H247080   6.283   6.033  10.883 -0.5290 -0.5931 -0.2440
 7629TIP3   OH247081   0.450   2.214  11.261 -0.0124  0.3355 -0.2953
 7629TIP3    H147082   0.535   2.255  11.277  0.1784  0.3967 -1.3773
 7629TIP3    H247083   0.420   2.252  11.179 -0.6272 -0.4245 -0.4402
 7630TIP3   OH247084   3.341   7.457  11.477  0.3574 -0.5167  0.3038
 7630TIP3    H147085   3.271   7.425  11.420  0.5045  3.1584 -2.2844
 7630TIP3    H247086   3.298   7.523  11.532  1.2927  0.0026  0.4334
 7631TIP3   OH247087   2.543   5.701  11.673 -0.1422  0.0144  0.1888
 7631TIP3    H147088   2.603   5.666  11.607 -0.2910  0.2227 -0.0588
 7631TIP3    H247089   2.573   5.791  11.687 -0.0674 -0.0505  0.4602
 7632TIP3   OH247090   2.079   2.624  11.141  0.2928  0.5347  0.1532
 7632TIP3    H147091   2.148   2.688  11.153  0.4040  0.6911 -1.0969
 7632TIP3    H247092   2.117   2.558  11.082  0.0627 -0.4987  1.1200
 7633TIP3   OH247093   7.029   2.954  11.206 -0.1312 -0.4017  0.1948
 7633TIP3    H147094   7.115   2.920  11.182  0.7181  1.5604  0.2604
 7633TIP3    H247095   7.008   3.018  11.138 -0.5926  0.6034  1.2431
 7634TIP3   OH247096   6.252   3.164  10.875 -0.4204  0.5951  0.5277
 7634TIP3    H147097   6.204   3.136  10.797 -1.3862  0.0202  1.3055
 7634TIP3    H247098   6.279   3.254  10.855 -0.7168  0.4804 -0.4384
 7635TIP3   OH247099   1.316   3.411  11.035  0.2641  0.1774  0.3090
 7635TIP3    H147100   1.396   3.364  11.056  1.1325  1.0187 -1.0040
 7635TIP3    H247101   1.279   3.435  11.121  0.4221 -1.7925  0.9707
 7636TIP3   OH247102   0.004   7.656  11.145  0.0354 -0.9724 -0.0091
 7636TIP3    H147103  -0.006   7.668  11.239 -1.3542 -0.1589 -0.2300
 7636TIP3    H247104   0.099   7.659  11.130  0.2610 -0.8992  1.3273
 7637TIP3   OH247105   4.276   1.819  11.991  0.0516 -0.1454  0.2874
 7637TIP3    H147106   4.281   1.896  12.048 -0.0371  1.0222 -1.2112
 7637TIP3    H247107   4.183   1.807  11.976  0.0036 -1.1417  1.2317
 7638TIP3   OH247108   5.889   2.633  12.549  0.3999  0.3799 -0.0069
 7638TIP3    H147109   5.982   2.645  12.568  0.6001  0.2407 -0.8342
 7638TIP3    H247110   5.887   2.563  12.484  0.0519  2.7563 -2.7542
 7639TIP3   OH247111   7.438   5.540  10.893 -0.0462  0.5929 -0.2887
 7639TIP3    H147112   7.474   5.619  10.853 -1.5977  1.2328 -0.5324
 7639TIP3    H247113   7.420   5.565  10.983 -1.0006  0.7004 -0.4966
 7640TIP3   OH247114   6.872   4.791  11.746 -0.1034 -0.0546  0.4927
 7640TIP3    H147115   6.861   4.802  11.651 -0.9626  1.3146  0.7126
 7640TIP3    H247116   6.966   4.778  11.758 -0.1246 -1.4859 -0.6298
 7641TIP3   OH247117   2.905   4.229  12.183  0.6535  0.1106  0.5931
 7641TIP3    H147118   2.892   4.155  12.123  0.0454  0.6077  0.1036
 7641TIP3    H247119   2.985   4.271  12.153 -0.6224  1.4802 -1.0924
 7642TIP3   OH247120   6.702   2.772  10.371  0.0165  0.0585 -0.4289
 7642TIP3    H147121   6.627   2.808  10.324  0.5106  3.8355  1.3573
 7642TIP3    H247122   6.675   2.771  10.463  1.1268 -1.4663 -0.0765
 7643TIP3   OH247123   2.562   4.393  11.254 -0.0338  0.4155  0.4378
 7643TIP3    H147124   2.529   4.311  11.219  1.3197  0.1576 -0.3106
 7643TIP3    H247125   2.486   4.434  11.296 -1.2623 -0.1305 -1.1704
 7644TIP3   OH247126   0.017   4.308  12.374 -0.2978 -0.0140 -0.1860
 7644TIP3    H147127   0.003   4.267  12.460 -1.7318  1.6727  0.4757
 7644TIP3    H247128   0.107   4.340  12.376  0.4370 -1.9811 -0.2509
 7645TIP3   OH247129   4.958   5.200  11.817 -0.5603 -0.1881 -0.0765
 7645TIP3    H147130   5.051   5.189  11.837 -0.7243 -1.2068  0.1901
 7645TIP3    H247131   4.943   5.143  11.742 -0.9573  0.0136 -0.1499
 7646TIP3   OH247132   6.066   2.593  10.994 -0.4521  0.2120  0.2522
 7646TIP3    H147133   6.005   2.557  11.059 -0.2081  1.4617  1.2063
 7646TIP3    H247134   6.020   2.666  10.955 -0.2113  0.0894 -0.2632
 7647TIP3   OH247135   0.944   4.339  12.176 -0.0271  0.4067  0.1702
 7647TIP3    H147136   0.892   4.390  12.238 -0.8742 -0.4016  0.1440
 7647TIP3    H247137   0.881   4.311  12.109  1.1429  2.7319 -2.0941
 7648TIP3   OH247138   1.690   6.686  11.085 -0.4803 -0.2433  0.3342
 7648TIP3    H147139   1.621   6.685  11.152 -1.5636 -1.0800 -0.7402
 7648TIP3    H247140   1.769   6.711  11.132 -1.4897  0.6477  1.6400
 7649TIP3   OH247141   0.485   2.813  11.530  0.2296 -0.0426  0.0488
 7649TIP3    H147142   0.474   2.869  11.453 -1.4255 -0.8681 -0.3607
 7649TIP3    H247143   0.426   2.739  11.514  0.9891 -0.9868  1.4236
 7650TIP3   OH247144   0.933   0.319  10.690 -0.7249  0.2389 -0.0976
 7650TIP3    H147145   0.959   0.227  10.680 -0.8894  0.3021 -1.3135
 7650TIP3    H247146   1.006   0.360  10.735  0.0487 -0.1837 -0.9274
 7651TIP3   OH247147   4.447   7.453  12.434  0.8465 -0.1540 -0.0253
 7651TIP3    H147148   4.397   7.525  12.395  0.4540 -0.4387 -0.0634
 7651TIP3    H247149   4.399   7.430  12.513  2.4761  1.4249  1.4928
 7652TIP3   OH247150   3.368   0.449  10.948 -0.5580 -0.4797 -0.6752
 7652TIP3    H147151   3.385   0.427  10.856 -2.0480 -0.3499 -1.0032
 7652TIP3    H247152   3.327   0.535  10.946 -0.0582 -0.2059  0.1728
 7653TIP3   OH247153   3.572   5.580  11.879 -0.1703  0.3419  0.1542
 7653TIP3    H147154   3.608   5.614  11.797  0.1475 -0.7786 -0.1928
 7653TIP3    H247155   3.559   5.657  11.933  1.6208  0.9075 -0.1485
 7654TIP3   OH247156   5.962   3.223  13.062  0.0727 -1.0496  0.3607
 7654TIP3    H147157   5.919   3.195  12.982 -0.5029 -0.8422  0.5883
 7654TIP3    H247158   5.977   3.143  13.112 -0.4281 -1.0897  0.4558
 7655TIP3   OH247159   7.540   4.969  11.146  0.0634 -0.2677 -0.0450
 7655TIP3    H147160   7.591   4.973  11.065  0.5544 -0.1095  0.2672
 7655TIP3    H247161   7.497   5.054  11.152 -0.1516 -0.3597 -0.2503
 7656TIP3   OH247162   4.406   2.389  11.265 -0.5136 -0.0799  0.0284
 7656TIP3    H147163   4.468   2.351  11.327 -0.1090  1.1313  0.3859
 7656TIP3    H247164   4.456   2.455  11.217 -1.0842 -0.2926 -0.8983
 7657TIP3   OH247165   6.761   0.210  10.721  0.0109  0.1626 -0.3797
 7657TIP3    H147166   6.683   0.237  10.770  0.3262  0.7926 -0.2186
 7657TIP3    H247167   6.808   0.152  10.780  1.0597  1.9323  0.6116
 7658TIP3   OH247168   4.738   1.719  12.289 -0.0725 -1.1485  0.4438
 7658TIP3    H147169   4.796   1.671  12.231  1.0985 -1.1317  1.5632
 7658TIP3    H247170   4.789   1.795  12.317 -1.5674  0.2964 -0.5818
 7659TIP3   OH247171   3.821   6.898  10.721  0.2930  0.5612  0.4231
 7659TIP3    H147172   3.770   6.957  10.666  0.8119  1.9037  1.3252
 7659TIP3    H247173   3.908   6.898  10.682 -0.0727 -0.9024 -0.4976
 7660TIP3   OH247174   5.216   3.322  12.791 -0.2429 -0.0199 -0.6523
 7660TIP3    H147175   5.301   3.319  12.746  0.4798 -1.8986  0.7355
 7660TIP3    H247176   5.223   3.397  12.850  0.1688  0.2479 -1.0303
 7661TIP3   OH247177   1.381   7.674  10.550  0.7334 -0.1602 -0.2658
 7661TIP3    H147178   1.438   7.596  10.550 -0.6744 -1.3708  2.6411
 7661TIP3    H247179   1.294   7.640  10.532  0.0832  0.6853  1.0914
 7662TIP3   OH247180   6.940   5.005  11.252  0.0459 -0.4340  0.2454
 7662TIP3    H147181   6.891   5.058  11.315 -0.3663  0.4383 -0.7854
 7662TIP3    H247182   6.898   5.022  11.168  0.0936 -2.1833 -0.1699
 7663TIP3   OH247183   5.574   1.849  11.919 -0.2861 -0.7785 -0.3318
 7663TIP3    H147184   5.489   1.889  11.903  0.0251  0.1443  0.2277
 7663TIP3    H247185   5.558   1.785  11.988 -0.6734 -1.2203 -0.8160
 7664TIP3   OH247186   0.680   6.722  12.033  0.6637 -0.5334  0.0432
 7664TIP3    H147187   0.739   6.741  11.960  0.3350  0.1575 -0.0480
 7664TIP3    H247188   0.622   6.653  12.000  0.6664 -0.3898 -0.2598
 7665TIP3   OH247189   5.445   5.828  12.456  0.3095  0.6581 -0.1693
 7665TIP3    H147190   5.354   5.850  12.479  0.5081  1.4066 -0.0638
 7665TIP3    H247191   5.489   5.818  12.541  0.0364 -1.0399 -0.1965
 7666TIP3   OH247192   1.087   6.822  12.962 -0.4284 -1.1968  0.3608
 7666TIP3    H147193   1.179   6.846  12.969 -0.1210 -2.6141  2.8960
 7666TIP3    H247194   1.039   6.905  12.959  0.9036 -0.4232 -2.4805
 7667TIP3   OH247195   7.667   0.426  12.367 -0.5794  0.6513  0.3128
 7667TIP3    H147196   7.698   0.507  12.328  1.5431 -0.1121  0.2913
 7667TIP3    H247197   7.675   0.361  12.297  0.5052 -0.1367  1.1412
 7668TIP3   OH247198   7.611   3.733  11.037  1.4100 -0.0310  0.3635
 7668TIP3    H147199   7.606   3.689  11.122 -0.1842 -0.9762 -0.1898
 7668TIP3    H247200   7.536   3.793  11.036  0.9936 -0.5386 -0.6320
 7669TIP3   OH247201   4.484   3.377  10.839 -0.2024  0.0989  0.3999
 7669TIP3    H147202   4.408   3.345  10.887 -0.3426  0.3569  0.3546
 7669TIP3    H247203   4.545   3.408  10.907 -1.1115  2.0686  0.4018
 7670TIP3   OH247204   6.841   5.472  12.346  0.4731 -0.3749  0.0207
 7670TIP3    H147205   6.818   5.480  12.253 -1.3096  0.0788  0.4644
 7670TIP3    H247206   6.772   5.417  12.383  0.9014 -0.1527  1.1776
 7671TIP3   OH247207   1.299   5.548  13.440 -0.0634 -0.0548 -0.2813
 7671TIP3    H147208   1.365   5.616  13.423 -1.9672  1.8166 -0.5863
 7671TIP3    H247209   1.224   5.574  13.386 -2.0351 -0.5471  2.0672
 7672TIP3   OH247210   0.643   1.128  11.163 -0.0344  0.2881 -0.5208
 7672TIP3    H147211   0.615   1.070  11.093 -0.4163  2.2235 -2.0433
 7672TIP3    H247212   0.584   1.108  11.236 -0.2279 -1.1198 -1.0379
 7673TIP3   OH247213   3.698   4.145  12.342  0.0247  0.2119  0.1884
 7673TIP3    H147214   3.767   4.204  12.311 -1.2667  1.9293  0.4264
 7673TIP3    H247215   3.635   4.142  12.270 -0.2914 -0.2851  0.4810
 7674TIP3   OH247216   1.082   0.573  10.999 -0.5601 -0.4032  0.0720
 7674TIP3    H147217   1.035   0.611  10.925 -0.8179  0.6711  0.7591
 7674TIP3    H247218   1.121   0.648  11.044  1.8539 -1.2553 -0.4570
 7675TIP3   OH247219   4.482   3.341  10.551 -0.1187 -0.3002 -0.2939
 7675TIP3    H147220   4.499   3.427  10.512 -0.3626 -0.7816 -1.5276
 7675TIP3    H247221   4.484   3.356  10.645 -2.5674  1.5521 -0.4397
 7676TIP3   OH247222   3.069   0.748  12.277  0.0447  0.5938 -0.4123
 7676TIP3    H147223   3.144   0.693  12.301  0.6414  0.9110 -1.4784
 7676TIP3    H247224   3.105   0.813  12.217 -0.9207  1.3110 -0.2365
 7677TIP3   OH247225   6.575   0.751  12.343  0.1302  0.3731 -0.6471
 7677TIP3    H147226   6.542   0.758  12.433 -0.6725  0.8870 -0.9643
 7677TIP3    H247227   6.646   0.687  12.347  1.7880  2.1460  0.8335
 7678TIP3   OH247228   5.663   3.604  10.855 -0.1582  0.1493 -0.1700
 7678TIP3    H147229   5.706   3.539  10.800 -1.7453 -0.1817 -1.0983
 7678TIP3    H247230   5.670   3.570  10.944 -0.8341 -1.2536 -0.6288
 7679TIP3   OH247231   3.108   7.090  11.114 -0.1906  0.5825 -0.0281
 7679TIP3    H147232   3.050   7.166  11.115 -0.7702  0.1793 -1.2791
 7679TIP3    H247233   3.052   7.017  11.088  0.5559 -0.1091  0.2509
 7680TIP3   OH247234   2.969   1.411  11.271  0.6027  0.3753  1.1132
 7680TIP3    H147235   3.043   1.412  11.333  1.1914 -0.5936  0.4683
 7680TIP3    H247236   3.009   1.383  11.188 -0.5485 -0.5166  0.8399
 7681TIP3   OH247237   2.831   7.050  10.762  0.0336  0.1689 -0.4658
 7681TIP3    H147238   2.793   7.135  10.741 -2.8285 -1.0087 -0.4696
 7681TIP3    H247239   2.772   6.986  10.723  1.9853 -1.8716 -0.3113
 7682TIP3   OH247240   6.089   0.067  12.811  0.6658 -0.0796  0.2252
 7682TIP3    H147241   6.045   0.051  12.895 -1.5605  1.2036 -0.6082
 7682TIP3    H247242   6.096   0.162  12.805  2.6596 -0.2165 -0.1830
 7683TIP3   OH247243   5.843   3.433  10.761 -0.4754 -0.2141  0.0175
 7683TIP3    H147244   5.862   3.368  10.829  1.7526 -0.3645 -0.6852
 7683TIP3    H247245   5.897   3.509  10.783 -2.3978  1.1423  0.3399
 7684TIP3   OH247246   0.560   1.948  11.400 -0.5783  0.0369 -0.6279
 7684TIP3    H147247   0.554   2.027  11.346 -1.8775  1.6159  1.6467
 7684TIP3    H247248   0.481   1.899  11.378 -0.5516  0.1425 -0.9627
 7685TIP3   OH247249   1.378   2.987  11.852 -0.3016 -0.2862 -0.0745
 7685TIP3    H147250   1.384   3.082  11.863 -1.6858 -0.1476 -0.2303
 7685TIP3    H247251   1.466   2.960  11.828 -0.2674  1.2521 -2.0171
 7686TIP3   OH247252   3.160   2.319  10.961 -0.2606  0.1130  0.0163
 7686TIP3    H147253   3.250   2.338  10.935 -0.1157 -0.3569  0.1634
 7686TIP3    H247254   3.168   2.252  11.029 -0.6887  0.5870  0.5460
 7687TIP3   OH247255   7.524   5.737  11.210 -0.2267 -0.3120 -0.4590
 7687TIP3    H147256   7.479   5.816  11.181 -1.0430 -0.0797  1.3478
 7687TIP3    H247257   7.613   5.766  11.230 -0.7749  0.3772  1.0880
 7688TIP3   OH247258   7.218   6.209  12.032  0.0727 -0.1067 -0.1476
 7688TIP3    H147259   7.299   6.178  12.074  0.9636  0.9548 -1.0046
 7688TIP3    H247260   7.180   6.268  12.097  0.3745 -0.0426 -0.0235
 7689TIP3   OH247261   7.410   3.953  11.029  0.0204 -0.3585  0.5717
 7689TIP3    H147262   7.399   4.031  11.083  0.6128  0.5521 -0.5576
 7689TIP3    H247263   7.321   3.918  11.019 -0.3304  0.4611  0.7053
 7690TIP3   OH247264   5.518   7.468  10.973  0.3520 -0.3436  0.0343
 7690TIP3    H147265   5.433   7.467  10.930 -0.3889  0.2837  1.4134
 7690TIP3    H247266   5.499   7.498  11.062  2.2093  1.3308 -0.0754
 7691TIP3   OH247267   7.562   5.798  12.243 -0.0802 -0.5359 -0.2884
 7691TIP3    H147268   7.486   5.742  12.261  0.5163 -1.8009 -1.5443
 7691TIP3    H247269   7.583   5.837  12.328 -1.2781 -1.2525  0.3666
 7692TIP3   OH247270   0.793   0.826  12.075 -0.7049 -0.1558 -0.4615
 7692TIP3    H147271   0.868   0.885  12.079 -1.0809  0.5944 -2.6918
 7692TIP3    H247272   0.736   0.855  12.146 -0.0454  0.9543 -0.3561
 7693TIP3   OH247273   0.490   5.735  17.412 -0.2287 -0.0992  0.3947
 7693TIP3    H147274   0.482   5.742  17.317  0.1444 -1.8136  0.2148
 7693TIP3    H247275   0.409   5.692  17.440 -0.5281  0.7845  0.9176
 7694TIP3   OH247276   0.510   0.860  10.389  0.1730  0.6492 -0.0584
 7694TIP3    H147277   0.566   0.936  10.405 -0.5894  1.2715 -0.3040
 7694TIP3    H247278   0.571   0.786  10.385  0.9267  1.2459  0.1556
 7695TIP3   OH247279   3.703   6.569  11.843 -0.0404 -0.2700  0.0108
 7695TIP3    H147280   3.747   6.652  11.823  2.0906 -1.0063  1.3648
 7695TIP3    H247281   3.691   6.528  11.757 -0.0858  0.9137 -0.5743
 7696TIP3   OH247282   2.981   0.459  13.188  0.7016  0.1595  0.9190
 7696TIP3    H147283   3.046   0.434  13.254 -0.0298 -1.4640  1.0612
 7696TIP3    H247284   2.925   0.382  13.179 -0.3105  1.0034 -0.2871
 7697TIP3   OH247285   5.197   3.628  13.100 -0.1823 -0.1144 -0.2107
 7697TIP3    H147286   5.153   3.667  13.024  1.2753  0.5851 -0.7244
 7697TIP3    H247287   5.238   3.702  13.145  0.7766 -0.7775  0.0331
 7698TIP3   OH247288   7.338   5.636  12.300  0.4390 -0.4462 -0.3204
 7698TIP3    H147289   7.248   5.618  12.327  0.3252  1.0150  0.3676
 7698TIP3    H247290   7.384   5.553  12.312 -1.1510 -1.7125 -2.2917
 7699TIP3   OH247291   5.836   2.874  12.645  0.1991 -0.0799  0.2583
 7699TIP3    H147292   5.840   2.792  12.597 -0.0433  0.0499  0.0138
 7699TIP3    H247293   5.844   2.849  12.737 -0.2265 -0.4059  0.2069
 7700TIP3   OH247294   3.772   2.798  13.224 -0.5747 -0.1107  0.6495
 7700TIP3    H147295   3.841   2.754  13.174 -0.9158 -1.9922  1.7523
 7700TIP3    H247296   3.802   2.889  13.232 -0.5858  0.3573 -3.0440
 7701TIP3   OH247297   5.256   2.811  11.060 -0.2843  0.7601  0.3339
 7701TIP3    H147298   5.185   2.756  11.028 -0.0492  0.3118  0.5783
 7701TIP3    H247299   5.242   2.896  11.017 -1.3068  0.8591  0.8359
 7702TIP3   OH247300   5.993   0.090  10.761  0.1812 -0.2644  0.6287
 7702TIP3    H147301   5.949   0.135  10.688  1.1172 -0.6168 -0.1705
 7702TIP3    H247302   5.922   0.054  10.814 -0.5000 -0.2963 -0.2980
 7703TIP3   OH247303   5.988   6.017  12.700 -0.1766 -0.3555 -0.9911
 7703TIP3    H147304   6.057   5.959  12.733  0.7959  0.3467 -1.7396
 7703TIP3    H247305   5.983   6.088  12.764  0.4708  0.0832 -1.4148
 7704TIP3   OH247306   1.571   3.988  11.605  0.0165  0.0944 -0.6510
 7704TIP3    H147307   1.655   3.948  11.581  0.1210 -0.5745  0.6998
 7704TIP3    H247308   1.529   4.010  11.521  0.6558 -1.4379 -1.4083
 7705TIP3   OH247309   3.401   7.129  12.106 -0.2854 -0.5114  0.4425
 7705TIP3    H147310   3.450   7.211  12.112  1.6817 -1.5791  0.0550
 7705TIP3    H247311   3.362   7.130  12.019  0.1943 -0.2122  0.2242
 7706TIP3   OH247312   2.656   0.596  10.887 -0.0154  0.3743 -0.7753
 7706TIP3    H147313   2.643   0.520  10.831 -0.1518  1.1133 -1.7883
 7706TIP3    H247314   2.575   0.647  10.877 -1.3017 -0.8052  2.3354
 7707TIP3   OH247315   1.241   2.377  12.123 -0.3145  0.5869  0.3604
 7707TIP3    H147316   1.240   2.336  12.037  1.1591  1.1909  0.0221
 7707TIP3    H247317   1.308   2.329  12.172 -1.2403  0.1446  1.2472
 7708TIP3   OH247318   2.812   4.881  11.884 -0.2116 -0.0834  1.3491
 7708TIP3    H147319   2.865   4.922  11.815 -0.0323  0.8806  2.0460
 7708TIP3    H247320   2.823   4.787  11.870  1.0703  0.1041  1.0126
 7709TIP3   OH247321   4.049   1.330  11.307 -0.1256 -0.4831  0.4156
 7709TIP3    H147322   4.044   1.409  11.360  1.4886 -1.1443  1.6522
 7709TIP3    H247323   3.982   1.342  11.239 -0.1809  1.7421  0.7872
 7710TIP3   OH247324   5.723   3.725  12.741  0.0299  0.4734 -0.3589
 7710TIP3    H147325   5.743   3.771  12.823 -1.1752  0.1834  0.1235
 7710TIP3    H247326   5.653   3.775  12.701 -1.2024 -0.8017  0.1032
 7711TIP3   OH247327   7.633   6.784  13.327 -0.5418  0.3271 -0.0170
 7711TIP3    H147328   7.705   6.721  13.328  0.5490  1.5409  0.8298
 7711TIP3    H247329   7.559   6.735  13.290  0.9475 -0.6800 -1.8452
 7712TIP3   OH247330   3.491   3.230  12.475  0.3178  0.0626 -0.0585
 7712TIP3    H147331   3.510   3.205  12.565  0.1678 -0.7520 -0.2488
 7712TIP3    H247332   3.399   3.257  12.477  0.2567 -0.1491 -0.0085
 7713TIP3   OH247333   7.308   3.178  11.578 -0.6184 -0.0616 -0.4396
 7713TIP3    H147334   7.223   3.164  11.537 -1.4587  2.2240  0.4143
 7713TIP3    H247335   7.289   3.202  11.668  1.0661 -1.6378  0.4079
 7714TIP3   OH247336   4.333   5.166  10.748  0.0963  0.0687 -0.2866
 7714TIP3    H147337   4.356   5.227  10.678 -0.5315  1.5168  0.7186
 7714TIP3    H247338   4.237   5.165  10.749  0.0771 -1.4281 -0.6707
 7715TIP3   OH247339   3.852   7.617  11.958 -0.2921  0.1164  0.4783
 7715TIP3    H147340   3.849   7.622  12.053  0.2698 -0.0061  0.5047
 7715TIP3    H247341   3.936   7.575  11.938 -0.6213 -0.2995 -0.0531
 7716TIP3   OH247342   0.288   3.838  11.332  0.0016 -0.4752 -0.0819
 7716TIP3    H147343   0.254   3.923  11.305 -0.2364 -0.4945  0.1623
 7716TIP3    H247344   0.268   3.780  11.258 -0.9758 -0.6111  0.2721
 7717TIP3   OH247345   1.892   5.094  11.839  0.1807 -0.2058  0.1550
 7717TIP3    H147346   1.961   5.075  11.775  2.0116  0.7018  1.7509
 7717TIP3    H247347   1.849   5.173  11.805 -0.3033 -0.9449 -1.0064
 7718TIP3   OH247348   5.449   2.166  11.148 -0.1889  0.6120 -0.3491
 7718TIP3    H147349   5.386   2.193  11.081  0.7138  1.0815 -1.0375
 7718TIP3    H247350   5.494   2.091  11.109 -1.1444 -0.5114  0.6471
 7719TIP3   OH247351   2.830   1.627  11.191  0.2078  0.1166  0.0700
 7719TIP3    H147352   2.740   1.608  11.218  0.1073  0.7869  0.2182
 7719TIP3    H247353   2.884   1.565  11.241  0.1500  2.1029  2.8480
 7720TIP3   OH247354   7.599   3.698  12.003 -0.0922  0.5326  0.3790
 7720TIP3    H147355   7.510   3.727  12.021 -0.1025  0.3605  0.6098
 7720TIP3    H247356   7.609   3.618  12.054 -0.2767 -0.2329 -0.7515
 7721TIP3   OH247357   5.419   3.705  11.750 -0.5819 -0.1552 -0.2934
 7721TIP3    H147358   5.405   3.751  11.833  1.2290 -2.5769  1.5067
 7721TIP3    H247359   5.336   3.660  11.733 -1.2282  0.9821 -0.2592
 7722TIP3   OH247360   5.455   7.410  11.901 -0.3355  0.0150 -0.2303
 7722TIP3    H147361   5.405   7.375  11.827 -0.8137  1.9458 -0.8789
 7722TIP3    H247362   5.546   7.395  11.877 -0.5189 -1.4362 -0.1190
 7723TIP3   OH247363   0.900   6.264  11.879 -0.0628 -0.4122  0.3817
 7723TIP3    H147364   0.860   6.329  11.821  0.7467 -0.9761 -0.8298
 7723TIP3    H247365   0.825   6.215  11.914 -0.5150 -0.8924 -1.1769
 7724TIP3   OH247366   6.162   6.728  11.202  0.2729 -0.0228  0.1817
 7724TIP3    H147367   6.076   6.765  11.182  0.1121 -0.4019  0.1594
 7724TIP3    H247368   6.184   6.675  11.125  0.5773  0.1609  0.1405
 7725TIP3   OH247369   6.276   7.207  11.670 -0.4029  0.8225 -0.5176
 7725TIP3    H147370   6.335   7.282  11.665 -0.1224  0.5301 -2.6880
 7725TIP3    H247371   6.253   7.189  11.579 -3.0288  0.2518  0.1833
 7726TIP3   OH247372   0.973   5.898  10.864  0.7163 -0.0038  0.0120
 7726TIP3    H147373   1.016   5.891  10.950 -1.4955 -2.8706  1.0588
 7726TIP3    H247374   1.011   5.827  10.812 -2.1062 -2.3610  0.8365
 7727TIP3   OH247375   1.156   4.037  11.049 -0.1882 -0.0700  0.0515
 7727TIP3    H147376   1.071   3.999  11.028 -0.1839  0.4468 -1.0257
 7727TIP3    H247377   1.174   4.096  10.975  0.3070  1.1471  1.1020
 7728TIP3   OH247378   6.742   2.182  10.327 -1.1203 -0.3178 -0.6077
 7728TIP3    H147379   6.648   2.190  10.311 -0.5947  1.8301 -3.4164
 7728TIP3    H247380   6.773   2.272  10.336  0.6250 -0.9990  1.0342
 7729TIP3   OH247381   2.096   4.977  10.907  0.1540 -0.0437  0.3557
 7729TIP3    H147382   2.083   4.887  10.936 -1.3088  0.3655  1.0630
 7729TIP3    H247383   2.093   5.029  10.988  1.3219  0.6194 -0.0022
 7730TIP3   OH247384   3.238   4.466  13.292  0.0388 -0.0475 -0.0347
 7730TIP3    H147385   3.264   4.376  13.277 -0.3568  0.1002 -1.8056
 7730TIP3    H247386   3.144   4.461  13.309 -0.2924  0.1393 -1.6683
 7731TIP3   OH247387   0.127   3.143  11.005 -0.3392 -0.2695  0.0354
 7731TIP3    H147388   0.145   3.220  10.952 -0.5733 -0.5447 -0.4484
 7731TIP3    H247389   0.150   3.170  11.094 -1.0110  0.5653 -0.0301
 7732TIP3   OH247390   3.087   3.080  10.926  0.1246  0.2190 -0.1266
 7732TIP3    H147391   3.018   3.070  10.860 -0.1197  1.2250 -0.0486
 7732TIP3    H247392   3.054   3.035  11.003  0.3363 -0.8211 -0.6261
 7733TIP3   OH247393   1.133   5.365  11.525 -0.2617 -0.5361  0.4203
 7733TIP3    H147394   1.096   5.330  11.444  1.6752  0.4911 -0.9825
 7733TIP3    H247395   1.058   5.407  11.569 -1.2300 -0.5809 -1.1199
 7734TIP3   OH247396   0.106   0.417  10.652 -0.1685  0.3240  0.0262
 7734TIP3    H147397   0.094   0.505  10.617 -0.0596 -0.1020 -1.1273
 7734TIP3    H247398   0.043   0.363  10.604  0.9351 -0.5282 -0.5136
 7735TIP3   OH247399   1.244   0.926  10.916  0.0839  0.2333 -0.2431
 7735TIP3    H147400   1.205   0.999  10.869 -1.2843 -0.3240 -0.0202
 7735TIP3    H247401   1.335   0.953  10.933  0.2876  0.8927 -2.1938
 7736TIP3   OH247402   4.721   1.896  12.671 -0.0361  0.2987  0.5367
 7736TIP3    H147403   4.792   1.921  12.611  0.5669  1.0703  1.5327
 7736TIP3    H247404   4.656   1.965  12.662  0.3481  0.7667  1.2158
 7737TIP3   OH247405   4.316   4.028  12.423  0.0124 -0.0898 -0.2462
 7737TIP3    H147406   4.247   3.993  12.367 -1.2988  0.4200  1.0016
 7737TIP3    H247407   4.279   4.108  12.459  1.5319  0.5659 -0.0820
 7738TIP3   OH247408   0.450   7.560  11.915  0.5100 -0.0923  0.2397
 7738TIP3    H147409   0.369   7.568  11.965  0.1025  0.0235 -0.4224
 7738TIP3    H247410   0.426   7.507  11.839  0.0126  3.2077 -2.1099
 7739TIP3   OH247411   3.093   7.059  11.417  0.2932  0.3281  0.0322
 7739TIP3    H147412   3.017   7.026  11.369  0.2381  1.6079 -0.8006
 7739TIP3    H247413   3.166   7.005  11.387 -0.0100  0.1244 -0.3381
 7740TIP3   OH247414   3.301   3.833  12.523  0.0853 -0.2131  0.5607
 7740TIP3    H147415   3.352   3.914  12.519 -1.6115  0.9774  1.6332
 7740TIP3    H247416   3.263   3.833  12.610 -2.3872 -0.5971 -0.4336
 7741TIP3   OH247417   1.265   4.956  12.439  0.0003 -0.1119 -0.1003
 7741TIP3    H147418   1.194   4.924  12.384  0.5437 -0.4344 -0.6283
 7741TIP3    H247419   1.238   4.934  12.529 -0.0783 -1.1980 -0.3777
 7742TIP3   OH247420   0.362   6.734  13.372  0.6405 -0.4130 -0.1790
 7742TIP3    H147421   0.344   6.752  13.464  0.4503  0.5919 -0.4025
 7742TIP3    H247422   0.295   6.670  13.346  1.0046 -1.0817  0.5009
 7743TIP3   OH247423   4.182   7.098  11.123 -0.4101  0.4002  0.7847
 7743TIP3    H147424   4.274   7.126  11.124 -0.1265 -0.3976 -0.5176
 7743TIP3    H247425   4.132   7.179  11.132  0.4036  0.8725  1.2136
 7744TIP3   OH247426   5.118   3.435  12.311  0.2478 -0.0252 -0.7138
 7744TIP3    H147427   5.094   3.513  12.362 -1.3097 -0.5241 -0.6415
 7744TIP3    H247428   5.212   3.425  12.326  0.0066  0.3916  1.2907
 7745TIP3   OH247429   4.150   6.814  11.122 -0.3924 -0.0980 -0.3842
 7745TIP3    H147430   4.154   6.909  11.132  1.0085 -0.1862  0.2197
 7745TIP3    H247431   4.219   6.781  11.180 -0.5601 -1.4524 -0.9127
 7746TIP3   OH247432   0.512   5.965  12.156 -0.2845  0.2574 -0.1078
 7746TIP3    H147433   0.506   5.986  12.249 -1.2728  0.2799 -0.1649
 7746TIP3    H247434   0.421   5.967  12.125 -0.1053 -1.0240 -0.7850
 7747TIP3   OH247435   0.138   6.578  13.343  0.2229 -0.4197  0.7120
 7747TIP3    H147436   0.107   6.522  13.272  0.5687 -1.1437  1.1294
 7747TIP3    H247437   0.168   6.518  13.411  4.5155  0.1078 -0.4044
 7748TIP3   OH247438   7.481   6.160  13.222  0.3083  0.6128 -0.3357
 7748TIP3    H147439   7.518   6.155  13.310 -0.3575  0.1798 -0.0686
 7748TIP3    H247440   7.397   6.115  13.229  0.6948 -0.3163 -1.4354
 7749TIP3   OH247441   5.054   5.516  11.798 -0.0960 -0.1471 -0.0113
 7749TIP3    H147442   5.083   5.607  11.789 -0.2203 -0.0030  0.9996
 7749TIP3    H247443   4.996   5.503  11.723 -0.3463  0.7185  0.0146
 7750TIP3   OH247444   2.007   7.538  12.230  0.4518 -0.1655  0.0244
 7750TIP3    H147445   1.940   7.477  12.198 -0.3162  0.9432 -0.5487
 7750TIP3    H247446   2.063   7.485  12.286 -1.0205 -1.0890  0.6708
 7751TIP3   OH247447   1.447   0.627  11.109 -0.3057 -0.1158 -0.1282
 7751TIP3    H147448   1.450   0.532  11.120 -0.0751 -0.0299  0.5859
 7751TIP3    H247449   1.395   0.640  11.030 -2.5573 -0.7540  1.1595
 7752TIP3   OH247450   4.331   2.645  11.068  0.4022  0.3975  0.7086
 7752TIP3    H147451   4.391   2.718  11.082  1.1660 -0.1146  0.1631
 7752TIP3    H247452   4.315   2.645  10.974  0.9425 -0.5390  0.6020
 7753TIP3   OH247453   6.471   6.320  11.925 -0.0734  0.5218  0.2116
 7753TIP3    H147454   6.448   6.411  11.943  0.1134  0.6648 -0.2595
 7753TIP3    H247455   6.521   6.323  11.844  0.2387  0.0349  0.3799
 7754TIP3   OH247456   3.484   5.097  11.918 -0.3534 -0.1219 -0.0099
 7754TIP3    H147457   3.501   5.171  11.977 -0.0004  0.6398 -1.0365
 7754TIP3    H247458   3.461   5.138  11.834  2.5681 -1.1036 -1.4101
 7755TIP3   OH247459   2.474   6.932  11.358 -0.1674 -0.0591  0.8546
 7755TIP3    H147460   2.498   6.985  11.281  0.3484 -0.7560  0.5224
 7755TIP3    H247461   2.398   6.882  11.329  0.7999 -1.2937  0.3264
 7756TIP3   OH247462   6.282   6.795  11.582  0.3769 -0.0284 -0.4034
 7756TIP3    H147463   6.322   6.801  11.669  2.4773 -0.7351 -1.2456
 7756TIP3    H247464   6.188   6.797  11.598  0.7111  0.5099  1.8202
 7757TIP3   OH247465   1.687   6.164  13.186 -0.2169 -0.2984  0.6053
 7757TIP3    H147466   1.766   6.176  13.133 -0.6540  0.3003  0.0754
 7757TIP3    H247467   1.694   6.229  13.256 -0.1770 -0.3311  0.6312
 7758TIP3   OH247468   3.069   1.661  12.941 -0.3514 -0.2171  0.2615
 7758TIP3    H147469   3.150   1.665  12.889 -1.0099  0.7465 -0.7363
 7758TIP3    H247470   3.078   1.582  12.994  0.6214 -0.9114 -0.9024
 7759TIP3   OH247471   6.350   3.281  11.171  0.2264 -0.0398 -0.1695
 7759TIP3    H147472   6.333   3.224  11.097  0.6361 -0.0238 -0.2755
 7759TIP3    H247473   6.318   3.232  11.247  1.2936 -0.7495 -0.1644
 7760TIP3   OH247474   2.099   6.448  10.938 -0.2544  0.0379 -0.4138
 7760TIP3    H147475   2.093   6.467  10.845 -0.3086 -0.5190 -0.5250
 7760TIP3    H247476   2.061   6.361  10.948  0.3760 -0.1930  0.0320
 7761TIP3   OH247477   4.092   3.054  12.240  0.0093 -0.3713  0.6223
 7761TIP3    H147478   4.161   3.103  12.286  1.3148 -0.1641 -1.4079
 7761TIP3    H247479   4.125   2.964  12.238  1.2026  0.0478 -1.9370
 7762TIP3   OH247480   3.582   0.841  11.227  0.5255 -0.1208  0.5487
 7762TIP3    H147481   3.669   0.858  11.264 -0.4831  1.3136  2.4599
 7762TIP3    H247482   3.537   0.790  11.294  0.3360 -2.3283 -1.1147
 7763TIP3   OH247483   3.272   0.906  12.133  0.0815  0.5452 -0.2727
 7763TIP3    H147484   3.299   0.977  12.076  0.0335 -0.0065 -1.0084
 7763TIP3    H247485   3.219   0.849  12.076 -0.1511  0.0951  0.3807
 7764TIP3   OH247486   0.452   3.121  12.129 -0.2385  0.1079  0.4612
 7764TIP3    H147487   0.363   3.156  12.135 -0.4040 -0.0949 -0.5457
 7764TIP3    H247488   0.473   3.127  12.035  1.2270  1.1865  0.8198
 7765TIP3   OH247489   2.160   5.924  11.885  0.5635 -0.0185 -0.0604
 7765TIP3    H147490   2.064   5.917  11.877  0.5186 -2.0706  1.4083
 7765TIP3    H247491   2.175   5.948  11.976  1.4677 -0.8987  0.0352
 7766TIP3   OH247492   0.297   0.100  12.593  0.5224 -0.1093  0.1399
 7766TIP3    H147493   0.282   0.170  12.529 -1.3923 -0.9253 -0.3666
 7766TIP3    H247494   0.240   0.029  12.564 -0.0426 -0.6915  2.4789
 7767TIP3   OH247495   2.439   1.174  12.610  0.3609 -0.5832 -0.9454
 7767TIP3    H147496   2.386   1.094  12.606 -0.7924 -0.1210  2.2442
 7767TIP3    H247497   2.496   1.160  12.685 -0.1769  1.7306 -0.0400
 7768TIP3   OH247498   1.279   3.806  12.144  0.3998  0.3562  0.2472
 7768TIP3    H147499   1.357   3.793  12.198  0.8584  2.7614  0.2841
 7768TIP3    H247500   1.313   3.834  12.059 -0.4055  1.1027  0.1566
 7769TIP3   OH247501   3.338   0.356  12.481 -0.0496  0.0051 -0.3952
 7769TIP3    H147502   3.256   0.327  12.521  0.3459  0.0944  0.5198
 7769TIP3    H247503   3.324   0.448  12.460 -0.9166 -0.5132 -2.2551
 7770TIP3   OH247504   4.681   2.660  11.985  0.0883 -0.0546 -0.1567
 7770TIP3    H147505   4.641   2.690  12.067 -0.0484 -2.4051  0.7334
 7770TIP3    H247506   4.607   2.632  11.931  0.2027  1.1775 -0.9788
 7771TIP3   OH247507   0.313   5.789  11.091 -0.2255  0.0836  0.3838
 7771TIP3    H147508   0.309   5.704  11.135 -1.1485 -0.4380 -0.6504
 7771TIP3    H247509   0.404   5.797  11.063  0.0338 -0.2238  1.1116
 7772TIP3   OH247510   4.370   6.523  10.673 -0.3557 -0.2525 -0.4156
 7772TIP3    H147511   4.464   6.529  10.694 -0.0668 -1.9804 -1.0831
 7772TIP3    H247512   4.366   6.533  10.578 -0.6377 -1.9500 -0.6064
 7773TIP3   OH247513   5.600   5.715  10.779  0.2016  0.1209 -0.3758
 7773TIP3    H147514   5.595   5.738  10.686 -1.3148  0.4728 -0.2309
 7773TIP3    H247515   5.654   5.783  10.818 -0.2336  0.7114 -0.7894
 7774TIP3   OH247516   1.173   0.349  11.407  0.9859  0.3960  0.2933
 7774TIP3    H147517   1.268   0.339  11.414  1.1925 -0.0910 -2.1783
 7774TIP3    H247518   1.158   0.369  11.314 -1.5229 -2.5015 -0.0951
 7775TIP3   OH247519   2.898   0.939  10.921 -0.0401 -0.3537 -0.0272
 7775TIP3    H147520   2.846   1.019  10.923  0.7529  0.1919  2.2074
 7775TIP3    H247521   2.989   0.969  10.926  0.4101 -1.3517 -1.5407
 7776TIP3   OH247522   0.028   1.489  11.086 -0.4037  0.3232 -0.2329
 7776TIP3    H147523  -0.054   1.491  11.136  1.0652 -1.1851  2.4501
 7776TIP3    H247524   0.073   1.570  11.110  0.3403 -0.4415  1.0764
 7777TIP3   OH247525   1.813   0.177  12.006 -0.3441  0.1310 -0.2255
 7777TIP3    H147526   1.782   0.121  12.077 -0.1513  1.0921  0.6500
 7777TIP3    H247527   1.888   0.131  11.968 -0.9742 -0.7909 -0.3751
 7778TIP3   OH247528   1.221   5.322  12.435 -0.2002 -0.1429 -0.0603
 7778TIP3    H147529   1.223   5.397  12.375  2.7364  0.5678  0.7507
 7778TIP3    H247530   1.153   5.265  12.400 -0.7145  1.6642 -2.2496
 7779TIP3   OH247531   0.722   6.155  12.090  0.4062 -0.3036  0.4271
 7779TIP3    H147532   0.662   6.109  12.032  0.9001  0.6626 -0.9008
 7779TIP3    H247533   0.666   6.192  12.158 -0.9894  2.4937 -1.9753
 7780TIP3   OH247534   4.065   0.521  10.654  0.2290  0.2720  0.6239
 7780TIP3    H147535   4.148   0.491  10.616 -1.2415 -1.2311 -1.6498
 7780TIP3    H247536   4.054   0.610  10.621  0.8929  0.4893  0.9531
 7781TIP3   OH247537   4.777   1.322  12.562 -0.8280 -0.0136  0.2951
 7781TIP3    H147538   4.845   1.384  12.533 -1.1581  0.3568  0.3052
 7781TIP3    H247539   4.810   1.288  12.645  0.0646 -0.9849 -0.4179
 7782TIP3   OH247540   4.107   7.185  10.853 -0.0443  0.1169 -0.1204
 7782TIP3    H147541   4.099   7.107  10.907 -2.0976 -0.4973 -1.1853
 7782TIP3    H247542   4.091   7.258  10.913  2.6611 -0.1339  1.0464
 7783TIP3   OH247543   0.860   0.810  10.539 -0.2060  0.2980 -0.2520
 7783TIP3    H147544   0.792   0.809  10.606 -0.3171 -0.4930 -0.3700
 7783TIP3    H247545   0.826   0.754  10.469 -0.0926  1.1173 -0.9761
 7784TIP3   OH247546   4.570   6.980  12.237  0.1880 -0.1290  0.5015
 7784TIP3    H147547   4.616   6.929  12.171  0.0838 -1.4196  1.3900
 7784TIP3    H247548   4.477   6.968  12.217  0.1147 -1.5450  1.5871
 7785TIP3   OH247549   1.333   0.654  12.834  0.2701  0.3395 -0.5641
 7785TIP3    H147550   1.366   0.612  12.914 -1.5097  0.6224  0.3772
 7785TIP3    H247551   1.371   0.742  12.836 -0.6330  0.7286  0.6033
 7786TIP3   OH247552   6.708   5.001  12.812 -0.1260 -0.2489 -0.5693
 7786TIP3    H147553   6.662   4.975  12.892  0.2769 -0.2870 -0.3469
 7786TIP3    H247554   6.773   5.065  12.841  0.0417 -0.2847 -0.8625
 7787TIP3   OH247555   0.770   6.192  10.383 -0.0038  0.4545 -0.3101
 7787TIP3    H147556   0.726   6.113  10.352  0.0166  0.3135  0.0178
 7787TIP3    H247557   0.834   6.161  10.447 -0.1329  0.7527 -0.0299
 7788TIP3   OH247558   5.369   3.285  11.449  0.3634 -0.2850  0.1118
 7788TIP3    H147559   5.464   3.277  11.450  0.3631 -0.4756 -0.4748
 7788TIP3    H247560   5.352   3.377  11.429  0.4119 -0.0172  1.2654
 7789TIP3   OH247561   1.986   4.122  13.189 -0.3645  0.2095 -0.4570
 7789TIP3    H147562   2.074   4.087  13.204 -0.3579  0.1315 -0.6668
 7789TIP3    H247563   2.000   4.201  13.137 -0.4804 -0.3855 -1.4170
 7790TIP3   OH247564   2.457   3.518  12.051 -0.1656  0.1897 -0.1206
 7790TIP3    H147565   2.536   3.561  12.020 -0.4907  0.3896 -0.6978
 7790TIP3    H247566   2.487   3.453  12.114  0.8021 -1.9147 -2.5673
 7791TIP3   OH247567   5.548   6.893  10.766  0.3608  0.4919  0.4715
 7791TIP3    H147568   5.630   6.923  10.726 -0.7096  1.4079 -1.1644
 7791TIP3    H247569   5.495   6.972  10.772 -1.2157 -0.4417 -0.5951
 7792TIP3   OH247570   6.502   0.054  12.259  0.2143  0.0276 -0.4753
 7792TIP3    H147571   6.463  -0.020  12.213  0.1543 -0.4417  0.3153
 7792TIP3    H247572   6.441   0.072  12.331 -0.2859  1.4806 -1.2327
 7793TIP3   OH247573   1.871   3.220  12.310  0.1592  0.0943 -0.5547
 7793TIP3    H147574   1.896   3.130  12.288  0.7323 -0.0589  0.6282
 7793TIP3    H247575   1.778   3.215  12.332  0.1504 -0.1800 -0.6509
 7794TIP3   OH247576   2.328   5.896  10.941  0.5630 -0.0926 -0.2738
 7794TIP3    H147577   2.363   5.808  10.927  0.4241 -0.4789  1.6094
 7794TIP3    H247578   2.358   5.921  11.028 -2.1152  0.3695  0.6113
 7795TIP3   OH247579   5.239   2.168  10.893  0.0870 -0.2349  0.0195
 7795TIP3    H147580   5.145   2.165  10.873  0.2914 -0.6658 -0.9276
 7795TIP3    H247581   5.262   2.077  10.911  1.1496 -0.9593 -3.9447
 7796TIP3   OH247582   1.311   1.166  11.388 -0.2759  0.4319  0.1411
 7796TIP3    H147583   1.262   1.215  11.454 -1.0315  0.9476 -0.7846
 7796TIP3    H247584   1.251   1.159  11.313  0.6561  0.0927 -0.5939
 7797TIP3   OH247585   1.644   6.152  10.391 -0.4406  0.3399 -0.8165
 7797TIP3    H147586   1.703   6.191  10.455 -0.0821 -2.5677  0.7775
 7797TIP3    H247587   1.701   6.105  10.330 -0.9600  0.4419 -1.3989
 7798TIP3   OH247588   7.295   2.165  12.753 -0.5265  0.2641  0.0779
 7798TIP3    H147589   7.276   2.094  12.691  0.3998 -0.3820  0.4972
 7798TIP3    H247590   7.327   2.236  12.699  0.5266 -0.3884 -0.1995
 7799TIP3   OH247591   0.012   6.724  11.558  0.5342 -0.2421 -0.0454
 7799TIP3    H147592   0.073   6.692  11.625 -1.0466 -1.3787  0.9297
 7799TIP3    H247593   0.021   6.819  11.562  1.1440 -0.3228  1.1429
 7800TIP3   OH247594   4.033   3.080  11.040 -0.1663  0.4753 -0.1628
 7800TIP3    H147595   4.043   3.008  11.103  0.5684  0.1576 -0.6254
 7800TIP3    H247596   4.099   3.062  10.973  0.3646  1.8667 -0.0301
 7801TIP3   OH247597   3.548   6.728  11.273  0.2432 -0.4827  0.2858
 7801TIP3    H147598   3.470   6.673  11.280 -0.0300 -0.3880 -1.4127
 7801TIP3    H247599   3.552   6.751  11.180  1.4701  0.7391  0.6076
 7802TIP3   OH247600   6.654   3.602  11.109 -0.0219 -1.1300 -0.0332
 7802TIP3    H147601   6.641   3.538  11.040  1.0691 -1.5512  0.1326
 7802TIP3    H247602   6.595   3.574  11.179  0.1588 -1.7249 -0.1132
 7803TIP3   OH247603   3.144   0.644  10.709  0.2203  0.3203  0.6186
 7803TIP3    H147604   3.192   0.681  10.635  0.2091  2.7237  1.7100
 7803TIP3    H247605   3.194   0.670  10.786  1.4870 -4.0133  1.5294
 7804TIP3   OH247606   4.263   7.213  12.414  0.0507  0.4347  0.2328
 7804TIP3    H147607   4.318   7.236  12.489  1.6796 -1.8062 -0.1971
 7804TIP3    H247608   4.320   7.227  12.338 -0.9386  0.7717 -0.4653
 7805TIP3   OH247609   3.761   2.582  12.693  0.8040  0.1285 -0.0992
 7805TIP3    H147610   3.680   2.627  12.718  1.0222  0.2753  0.3657
 7805TIP3    H247611   3.788   2.625  12.612  0.7339  0.4916  0.0660
 7806TIP3   OH247612   5.125   4.894  12.200  0.6290  0.2012 -0.0911
 7806TIP3    H147613   5.099   4.915  12.290  1.1302 -0.8914  0.3184
 7806TIP3    H247614   5.209   4.938  12.189  0.4119  0.6123 -0.1478
 7807TIP3   OH247615   0.209   4.525  12.187 -0.0477 -0.0262  0.3133
 7807TIP3    H147616   0.135   4.586  12.185  0.1773  0.2498  0.5044
 7807TIP3    H247617   0.212   4.490  12.098 -1.5248 -1.3837  0.7606
 7808TIP3   OH247618   1.484   3.596  10.827 -0.0459 -0.4528 -0.1929
 7808TIP3    H147619   1.566   3.547  10.823 -0.3585 -0.8935 -3.2054
 7808TIP3    H247620   1.432   3.550  10.893  0.7240 -2.5262 -0.9344
 7809TIP3   OH247621   5.612   7.286  11.622 -0.3449 -0.2113  0.6177
 7809TIP3    H147622   5.525   7.315  11.648 -0.2792  1.0602 -0.4486
 7809TIP3    H247623   5.602   7.253  11.533  0.5270  1.6377 -0.2226
 7810TIP3   OH247624   4.898   0.186  12.514  0.3078 -0.1813  0.1754
 7810TIP3    H147625   4.817   0.176  12.465 -0.0321  0.7916  0.5012
 7810TIP3    H247626   4.907   0.281  12.526  1.3821 -0.2866  0.3300
 7811TIP3   OH247627   0.916   1.744  11.998  0.3386  0.2883  0.0480
 7811TIP3    H147628   0.851   1.754  11.929 -1.4376  1.7249  1.8386
 7811TIP3    H247629   0.868   1.755  12.080  2.4792 -0.6547  1.5480
 7812TIP3   OH247630   7.123   1.724  13.032  0.2517 -0.1051  0.1863
 7812TIP3    H147631   7.194   1.730  12.967  0.6283  4.3442  0.7094
 7812TIP3    H247632   7.054   1.779  12.996  0.2888  2.1512  3.2244
 7813TIP3   OH247633   6.364   1.091  11.664 -0.2562  0.1128  0.0288
 7813TIP3    H147634   6.292   1.041  11.705 -1.7435 -0.0365 -2.5702
 7813TIP3    H247635   6.319   1.155  11.609  1.6586  1.0620 -0.4832
 7814TIP3   OH247636   3.073   4.937  12.822 -0.5321 -0.1885 -0.6167
 7814TIP3    H147637   3.061   4.851  12.781  1.2237 -1.4324  1.2432
 7814TIP3    H247638   3.105   4.917  12.910 -0.0024  2.3898 -0.1398
 7815TIP3   OH247639   5.131   4.248  13.116 -0.7713 -0.1745 -0.8433
 7815TIP3    H147640   5.180   4.183  13.065 -0.8969 -0.7329 -0.2675
 7815TIP3    H247641   5.128   4.211  13.205 -0.5633  0.7757 -0.4343
 7816TIP3   OH247642   2.610   2.950  10.700 -0.4116  0.8938 -0.4712
 7816TIP3    H147643   2.537   3.004  10.731 -1.3611 -0.8975  0.5719
 7816TIP3    H247644   2.570   2.866  10.678  1.3281 -0.1127  0.0541
 7817TIP3   OH247645   3.670   3.502  13.037  0.2994 -0.0961  0.0432
 7817TIP3    H147646   3.617   3.444  12.982  1.3569  1.2950 -2.6487
 7817TIP3    H247647   3.760   3.470  13.026  0.7024  1.0776 -0.2510
 7818TIP3   OH247648   3.573   2.470  10.707 -0.2488  0.2267 -0.1085
 7818TIP3    H147649   3.494   2.523  10.706 -1.1489 -1.0713 -1.0070
 7818TIP3    H247650   3.578   2.435  10.796 -0.9688 -0.0714 -0.1775
 7819TIP3   OH247651   5.563   1.297  12.314  0.0477  0.1179  0.2848
 7819TIP3    H147652   5.542   1.344  12.233  0.9988 -0.7299 -0.4754
 7819TIP3    H247653   5.627   1.353  12.357  0.7177 -0.1645 -0.3223
 7820TIP3   OH247654   0.883   7.652  10.454  0.0486  0.4934 -0.0958
 7820TIP3    H147655   0.813   7.597  10.421  1.4579 -1.9548  0.7254
 7820TIP3    H247656   0.857   7.671  10.545 -0.2455  0.8695 -0.2553
 7821TIP3   OH247657   2.130   2.891  11.809 -0.3446 -0.3485  0.1012
 7821TIP3    H147658   2.099   2.960  11.751 -0.5812 -0.2923  0.2883
 7821TIP3    H247659   2.102   2.810  11.768 -1.5342 -0.2703  0.6998
 7822TIP3   OH247660   7.199   7.657  12.414 -0.4037  0.0333  0.1318
 7822TIP3    H147661   7.223   7.653  12.507  0.0172 -1.3438 -0.0110
 7822TIP3    H247662   7.282   7.643  12.368 -0.5192  1.2541 -0.4779
 7823TIP3   OH247663   7.289   5.943  13.142 -0.2204  0.0179  0.2690
 7823TIP3    H147664   7.281   5.854  13.109  0.2028  0.0879 -0.0266
 7823TIP3    H247665   7.207   5.986  13.116  0.2688  0.1961 -1.0908
 7824TIP3   OH247666   5.191   1.499  12.563 -0.1224 -0.0399 -0.0992
 7824TIP3    H147667   5.207   1.494  12.469  2.1510 -0.4196  0.2581
 7824TIP3    H247668   5.197   1.408  12.593 -0.9394  0.0688  0.4164
 7825TIP3   OH247669   5.087   7.639  11.956 -0.3431  0.2232 -0.0274
 7825TIP3    H147670   5.023   7.654  12.026 -0.0940  0.5729  0.1262
 7825TIP3    H247671   5.153   7.581  11.995 -0.3117  0.2534 -0.0348
 7826TIP3   OH247672   3.751   0.940  11.007 -0.1393 -0.1019  0.5120
 7826TIP3    H147673   3.705   0.884  11.069  1.9196 -0.4367  1.8249
 7826TIP3    H247674   3.824   0.977  11.057  0.9641  0.4829 -1.4266
 7827TIP3   OH247675   6.203   0.154  12.047  0.3526  0.0205 -0.5410
 7827TIP3    H147676   6.263   0.080  12.063 -0.1584  0.0079  1.7719
 7827TIP3    H247677   6.123   0.113  12.015  0.5111 -0.2981 -0.5372
 7828TIP3   OH247678   1.193   6.289  11.920  0.3631 -0.1193 -0.0470
 7828TIP3    H147679   1.206   6.382  11.902  1.9242  0.1581  2.1099
 7828TIP3    H247680   1.099   6.274  11.907  0.0445  1.8106 -0.1542
 7829TIP3   OH247681   4.186   3.549  10.823  0.0570  0.2006  1.0649
 7829TIP3    H147682   4.098   3.535  10.859 -0.1663  1.7762  1.2120
 7829TIP3    H247683   4.188   3.496  10.744 -0.0766 -1.9205  2.3971
 7830TIP3   OH247684   2.111   5.517  12.767 -0.0258  0.6806 -0.3128
 7830TIP3    H147685   2.125   5.436  12.816 -1.3438 -0.3578 -1.5927
 7830TIP3    H247686   2.187   5.523  12.709  0.1696  0.4525 -0.0814
 7831TIP3   OH247687   1.124   2.378  10.329  0.0728 -0.0802 -0.3167
 7831TIP3    H147688   1.164   2.292  10.339  0.3306 -0.2220 -2.1924
 7831TIP3    H247689   1.153   2.426  10.407  1.0137 -1.2746  0.1143
 7832TIP3   OH247690   3.554   7.371  12.129  0.4168  0.0865 -0.0352
 7832TIP3    H147691   3.575   7.369  12.036  0.0990 -0.9335 -0.1010
 7832TIP3    H247692   3.589   7.455  12.160  0.6019  0.4002 -1.0468
 7833TIP3   OH247693   0.210   5.393  12.722  0.3200 -0.1583  0.6950
 7833TIP3    H147694   0.290   5.412  12.771  0.6087  0.6708 -0.0832
 7833TIP3    H247695   0.155   5.471  12.733 -0.2370 -0.5762  0.9261
 7834TIP3   OH247696   4.523   0.638  11.107  0.2585 -0.0141 -0.2073
 7834TIP3    H147697   4.559   0.661  11.193  0.7190  0.6393 -0.5677
 7834TIP3    H247698   4.479   0.717  11.077 -0.3564 -0.4039 -0.3544
 7835TIP3   OH247699   2.787   1.187  11.239 -0.7923 -0.0541  0.3804
 7835TIP3    H147700   2.775   1.212  11.331 -0.4629  0.3135  0.3275
 7835TIP3    H247701   2.862   1.239  11.210 -1.3584  0.3951 -0.3054
 7836TIP3   OH247702   0.982   7.287  13.031  0.4035  0.7752  0.1578
 7836TIP3    H147703   1.031   7.363  13.000  0.9562  0.2509 -0.2894
 7836TIP3    H247704   0.968   7.303  13.124  3.1497  0.0658  0.7799
 7837TIP3   OH247705   1.923   6.056  12.498 -0.4501 -0.2233  0.0324
 7837TIP3    H147706   1.932   6.005  12.418  1.0912  2.1402 -1.3980
 7837TIP3    H247707   2.008   6.048  12.541 -1.0700 -0.9696  1.1784
 7838TIP3   OH247708   7.494   5.382  12.648  0.2858  0.5262 -0.0981
 7838TIP3    H147709   7.440   5.452  12.684  0.4021  0.2117  0.6947
 7838TIP3    H247710   7.432   5.313  12.625  0.4609 -0.7203  2.7806
 7839TIP3   OH247711   4.998   2.393  10.635  0.4777 -0.0181 -0.2410
 7839TIP3    H147712   5.068   2.447  10.672  0.2732  0.8492 -1.0704
 7839TIP3    H247713   4.935   2.457  10.600 -0.5691 -0.7779  0.1773
 7840TIP3   OH247714   7.575   5.751  10.768 -0.2225 -0.2542 -0.3267
 7840TIP3    H147715   7.657   5.752  10.719 -0.9167 -1.3018 -1.5670
 7840TIP3    H247716   7.511   5.789  10.708 -1.3733 -2.8316 -0.8447
 7841TIP3   OH247717   6.091   5.349  10.779  0.3729  0.0338 -0.2409
 7841TIP3    H147718   6.139   5.266  10.786 -1.0177 -0.6892  1.9968
 7841TIP3    H247719   6.021   5.331  10.716  0.1736 -0.4641  0.1124
 7842TIP3   OH247720   3.331   4.712  12.519 -0.0982  0.0851 -0.8904
 7842TIP3    H147721   3.330   4.617  12.521  1.2800 -0.0380 -2.8282
 7842TIP3    H247722   3.372   4.738  12.601 -0.6878 -0.9508 -0.2432
 7843TIP3   OH247723   5.615   2.445  10.698  0.1099 -1.1406 -0.7457
 7843TIP3    H147724   5.596   2.450  10.604 -0.6342 -1.5423 -0.6235
 7843TIP3    H247725   5.612   2.535  10.728  0.0431 -1.0417 -1.0482
 7844TIP3   OH247726   5.545   2.893  12.231  0.4997  0.2583  0.1629
 7844TIP3    H147727   5.573   2.854  12.314 -0.1269 -0.7646 -0.1008
 7844TIP3    H247728   5.454   2.867  12.221  0.7309 -0.1324 -1.1412
 7845TIP3   OH247729   7.507   4.514  11.258  0.4756 -1.1894  0.4551
 7845TIP3    H147730   7.598   4.541  11.254  0.4076 -0.7429  1.4505
 7845TIP3    H247731   7.457   4.596  11.251  0.1669 -1.3846  0.3376
 7846TIP3   OH247732   7.486   5.131  11.715  0.0101 -0.4436  0.1479
 7846TIP3    H147733   7.458   5.091  11.797  1.2545 -0.1525  0.7499
 7846TIP3    H247734   7.478   5.061  11.650  1.0626 -1.3669  0.9546
 7847TIP3   OH247735   7.521   0.757  12.007 -0.1394 -0.6253  0.7204
 7847TIP3    H147736   7.432   0.724  12.024 -1.2672  1.4529 -0.6696
 7847TIP3    H247737   7.548   0.712  11.927 -0.5465 -0.2496  0.3619
 7848TIP3   OH247738   3.241   0.909  10.447  0.5843 -0.4921 -0.5645
 7848TIP3    H147739   3.236   0.990  10.396 -3.6016  0.5044  0.9965
 7848TIP3    H247740   3.243   0.938  10.538  1.0125 -2.2067  0.0142
 7849TIP3   OH247741   0.911   5.460  13.029 -0.3232  0.2430  0.8447
 7849TIP3    H147742   0.824   5.451  12.990  0.1101 -0.0264 -0.0837
 7849TIP3    H247743   0.958   5.381  13.001  0.8546  1.3215 -0.3708
 7850TIP3   OH247744   4.256   7.243  11.825 -0.0791 -0.9530 -0.1481
 7850TIP3    H147745   4.295   7.211  11.743 -1.7156 -2.2936 -0.4484
 7850TIP3    H247746   4.242   7.165  11.877 -1.5302 -0.4297  0.2981
 7851TIP3   OH247747   3.103   6.653  11.828  0.2049 -0.2399 -0.1786
 7851TIP3    H147748   3.147   6.619  11.906 -0.6288  0.6191  0.7042
 7851TIP3    H247749   3.034   6.590  11.809  0.7972 -0.7740 -0.6207
 7852TIP3   OH247750   3.288   1.282  12.438 -0.2903 -0.7892 -0.5635
 7852TIP3    H147751   3.359   1.346  12.434 -1.4896  0.5486 -2.9756
 7852TIP3    H247752   3.333   1.197  12.445  1.3384  0.1909  2.5255
 7853TIP3   OH247753   0.936   7.455  11.709 -0.1304  0.5653 -0.0203
 7853TIP3    H147754   0.972   7.448  11.620  0.2840 -0.5198  0.2195
 7853TIP3    H247755   0.842   7.470  11.696 -0.5778 -2.3084 -0.6879
 7854TIP3   OH247756   4.172   1.926  12.389 -0.0143 -0.6062  0.3295
 7854TIP3    H147757   4.249   1.888  12.432 -0.3018 -0.4290  1.0125
 7854TIP3    H247758   4.143   1.995  12.449 -0.2377 -0.1449 -0.3030
 7855TIP3   OH247759   4.999   0.081  11.050  0.0090 -0.3135 -0.3242
 7855TIP3    H147760   5.031   0.019  11.115 -0.3443 -0.7373 -0.5446
 7855TIP3    H247761   4.970   0.157  11.100 -0.4196 -0.7055  0.0225
 7856TIP3   OH247762   3.281   2.876  11.564 -0.4595  0.1838 -0.1892
 7856TIP3    H147763   3.296   2.867  11.470  0.0934 -0.0389 -0.0868
 7856TIP3    H247764   3.276   2.970  11.579 -0.9161  0.2072 -0.4946
 7857TIP3   OH247765   5.394   7.168  11.115  0.2190  0.2966  0.1579
 7857TIP3    H147766   5.349   7.253  11.119  1.0001  0.7490 -0.4713
 7857TIP3    H247767   5.366   7.123  11.194  0.9466  1.7322  1.2898
 7858TIP3   OH247768   5.229   0.922  12.469  0.1062 -0.4217  0.5223
 7858TIP3    H147769   5.270   0.999  12.430 -0.2385 -0.9496 -0.9345
 7858TIP3    H247770   5.299   0.857  12.474  0.3592 -0.0997  1.6143
 7859TIP3   OH247771   6.904   6.706  12.717  0.2010  0.3084  0.3430
 7859TIP3    H147772   6.935   6.655  12.642 -0.4393  0.1567  0.1747
 7859TIP3    H247773   6.891   6.641  12.786 -0.1353  0.3058  0.2821
 7860TIP3   OH247774   3.853   5.525  10.382  0.3295 -0.3579  0.1586
 7860TIP3    H147775   3.840   5.532  10.476  1.1406  0.4924  0.2251
 7860TIP3    H247776   3.788   5.584  10.344 -2.3411 -3.1952 -0.0502
 7861TIP3   OH247777   0.421   4.468  10.784  1.0036 -0.2277  0.4151
 7861TIP3    H147778   0.384   4.438  10.867 -1.0758  0.5426 -0.1760
 7861TIP3    H247779   0.409   4.395  10.724 -1.9147  0.7949 -0.4050
 7862TIP3   OH247780   3.499   7.644  11.346  0.2461  0.0924 -0.2142
 7862TIP3    H147781   3.430   7.692  11.299  0.3872 -0.1904 -0.7094
 7862TIP3    H247782   3.452   7.575  11.392  0.2195 -0.2496 -0.7452
 7863TIP3   OH247783   1.403   0.710  11.900 -0.3068 -0.3083 -0.2896
 7863TIP3    H147784   1.313   0.744  11.907 -0.6069 -0.8828 -1.1881
 7863TIP3    H247785   1.424   0.716  11.807  1.1449  1.1638  0.0855
 7864TIP3   OH247786   4.244   5.802  12.637  0.1585 -0.3365 -0.4051
 7864TIP3    H147787   4.151   5.782  12.648  0.0229  0.7311  0.5427
 7864TIP3    H247788   4.253   5.820  12.543 -0.9018  0.9852 -0.2791
 7865TIP3   OH247789   0.967   5.847  12.666  0.2229 -0.0713 -0.7103
 7865TIP3    H147790   0.953   5.846  12.760  0.8697  0.2257 -0.6118
 7865TIP3    H247791   0.893   5.898  12.632 -0.6887 -1.2043 -0.4883
 7866TIP3   OH247792   2.867   3.088  10.744 -0.6006  0.4958 -0.1724
 7866TIP3    H147793   2.795   3.025  10.750 -1.0903  0.9634 -0.9997
 7866TIP3    H247794   2.828   3.166  10.705 -0.3759  1.8896  2.1352
 7867TIP3   OH247795   0.680   3.913  11.067  0.4415 -0.6234  0.1119
 7867TIP3    H147796   0.686   3.838  11.007  0.2355 -1.1879  0.7744
 7867TIP3    H247797   0.742   3.892  11.137 -0.8446 -1.0247  1.1813
 7868TIP3   OH247798   2.618   1.069  12.338  0.2733  0.2549  0.6485
 7868TIP3    H147799   2.629   0.987  12.384  3.1333 -0.0677 -0.3687
 7868TIP3    H247800   2.631   1.047  12.246 -0.3684  1.6184  0.2009
 7869TIP3   OH247801   1.314   3.145  11.595  0.5597 -0.2514 -0.2811
 7869TIP3    H147802   1.366   3.115  11.521 -0.1630 -3.6378  0.3945
 7869TIP3    H247803   1.363   3.115  11.672  0.2993  1.4249  0.5785
 7870TIP3   OH247804   7.188   2.723  12.550  0.7723  0.2939 -0.0444
 7870TIP3    H147805   7.226   2.701  12.635  0.2064 -0.1336  0.1105
 7870TIP3    H247806   7.151   2.640  12.519  1.8283  0.2212 -1.1674
 7871TIP3   OH247807   3.097   7.340  11.390 -0.2302 -0.1247 -0.1066
 7871TIP3    H147808   3.006   7.372  11.386 -0.1513  0.1152 -0.0255
 7871TIP3    H247809   3.089   7.245  11.394 -0.4620 -0.1384 -0.7616
 7872TIP3   OH247810   6.944   2.705  11.594 -0.5935  0.0380 -0.0349
 7872TIP3    H147811   6.875   2.721  11.658 -1.2723 -0.2166 -0.7012
 7872TIP3    H247812   6.909   2.736  11.511  0.2105  0.1900 -0.3336
 7873TIP3   OH247813   3.489   1.695  10.111  0.0266  0.2518 -0.1198
 7873TIP3    H147814   3.572   1.735  10.138 -0.0588 -0.6295  1.5650
 7873TIP3    H247815   3.512   1.604  10.089 -0.3659  0.2254 -0.4332
 7874TIP3   OH247816   2.303   1.153  10.703 -0.5961  0.0350  0.3823
 7874TIP3    H147817   2.228   1.119  10.751 -2.3862  1.0013 -1.5475
 7874TIP3    H247818   2.281   1.245  10.685  0.5341  0.0413 -1.1906
 7875TIP3   OH247819   3.928   0.330  11.990  0.7057 -0.3617  0.2228
 7875TIP3    H147820   3.897   0.409  11.947  1.5380  0.4226  1.0210
 7875TIP3    H247821   3.878   0.259  11.949  1.4961  0.3304 -2.0442
 7876TIP3   OH247822   5.068   1.101  12.810  0.0421 -0.0200 -0.4463
 7876TIP3    H147823   4.980   1.133  12.789  0.3947  0.6487 -0.9536
 7876TIP3    H247824   5.059   1.006  12.812 -0.8907  0.0644  0.4302
 7877TIP3   OH247825   6.876   1.789  10.946 -0.2315 -0.0886  0.2230
 7877TIP3    H147826   6.922   1.811  10.865 -2.8672 -0.6062 -1.5050
 7877TIP3    H247827   6.941   1.739  10.997  1.2552 -0.4366 -1.8755
 7878TIP3   OH247828   3.237   6.271  10.621  0.0271  0.7748  0.1428
 7878TIP3    H147829   3.301   6.246  10.689 -0.1537 -2.4489 -0.6810
 7878TIP3    H247830   3.152   6.256  10.662 -0.0834 -0.4632 -0.4756
 7879TIP3   OH247831   1.034   4.622  12.535  0.1077  0.4796 -0.2449
 7879TIP3    H147832   0.970   4.559  12.500  0.2482 -0.4538  1.1302
 7879TIP3    H247833   1.047   4.684  12.463  0.9293 -1.7406 -2.1584
 7880TIP3   OH247834   3.404   1.527  12.413 -0.4949  0.5611 -0.0918
 7880TIP3    H147835   3.432   1.530  12.322 -1.1764 -1.5751 -0.4302
 7880TIP3    H247836   3.370   1.615  12.431 -1.1551  0.7852 -2.1734
 7881TIP3   OH247837   5.986   5.791  11.257 -0.5365 -0.6861  0.0497
 7881TIP3    H147838   5.962   5.710  11.304 -1.3732 -1.6234 -1.8838
 7881TIP3    H247839   6.061   5.766  11.203 -1.2959 -0.4121 -1.1567
 7882TIP3   OH247840   3.469   1.981  11.628  0.5605 -0.2111  0.8183
 7882TIP3    H147841   3.448   2.004  11.719 -0.2496  1.7145  0.1839
 7882TIP3    H247842   3.384   1.968  11.586  0.6464  2.7394 -0.5512
 7883TIP3   OH247843   3.466   3.151  10.922  0.1088  0.1853 -0.1852
 7883TIP3    H147844   3.418   3.069  10.912  2.3660 -1.2788  0.3274
 7883TIP3    H247845   3.416   3.201  10.986 -0.7438 -1.2587  0.3117
 7884TIP3   OH247846   6.605   3.225  10.375 -1.1703 -0.5237  0.5340
 7884TIP3    H147847   6.570   3.313  10.388 -2.0607 -0.6259 -0.9996
 7884TIP3    H247848   6.696   3.238  10.349 -1.8743  0.1220 -1.8792
 7885TIP3   OH247849   1.571   2.790  12.881  0.5599  0.5931 -0.3019
 7885TIP3    H147850   1.569   2.843  12.802  1.5110 -0.3921 -1.0218
 7885TIP3    H247851   1.563   2.700  12.850 -1.1068  0.2804  0.8988
 7886TIP3   OH247852   6.033   7.615  11.034  0.1211  0.6833 -0.6776
 7886TIP3    H147853   5.957   7.639  11.088 -0.4480 -0.0264 -1.1542
 7886TIP3    H247854   6.094   7.688  11.046 -0.8738  1.5489 -0.7609
 7887TIP3   OH247855   5.370   0.514  10.175 -0.1454  0.1069  0.0727
 7887TIP3    H147856   5.453   0.528  10.129 -0.2630  0.9565  0.1101
 7887TIP3    H247857   5.374   0.573  10.251 -0.4830 -0.3664  0.4683
 7888TIP3   OH247858   2.847   4.075  11.169 -0.7416 -0.5890  0.2587
 7888TIP3    H147859   2.903   4.007  11.133 -0.4655  0.4998 -1.4961
 7888TIP3    H247860   2.758   4.041  11.160 -0.5089 -1.4510  1.1015
 7889TIP3   OH247861   5.607   1.136  11.517 -0.9293  0.6071 -0.1700
 7889TIP3    H147862   5.598   1.041  11.510 -0.8597  0.5024  0.9477
 7889TIP3    H247863   5.654   1.161  11.438  2.1612 -0.7329  1.0887
 7890TIP3   OH247864   2.255   4.274  10.629  0.1782  0.4391  0.6094
 7890TIP3    H147865   2.281   4.226  10.550 -0.5439  0.9984  0.0227
 7890TIP3    H247866   2.196   4.342  10.597 -0.2972  0.5328  1.6657
 7891TIP3   OH247867   4.188   5.823  11.245 -0.2039  0.4471  0.4733
 7891TIP3    H147868   4.138   5.847  11.167  0.8714  1.2488 -0.0040
 7891TIP3    H247869   4.122   5.805  11.312 -1.1255  1.5932 -0.0977
 7892TIP3   OH247870   2.465   2.779  11.018  0.7629 -0.6401 -0.4433
 7892TIP3    H147871   2.500   2.868  11.013  3.0403 -1.4358  0.1698
 7892TIP3    H247872   2.481   2.742  10.931  0.7280 -0.7506 -0.4032
 7893TIP3   OH247873   4.325   4.433  12.712  0.1281 -0.4025  0.3290
 7893TIP3    H147874   4.309   4.424  12.806  0.2778 -1.5601  0.2494
 7893TIP3    H247875   4.284   4.516  12.689  0.5934  0.1928  1.5307
 7894TIP3   OH247876   0.356   6.417  12.420 -0.0002  0.6032 -0.3279
 7894TIP3    H147877   0.398   6.491  12.375  0.5214  1.1510  1.0187
 7894TIP3    H247878   0.370   6.434  12.513  0.3645 -1.3374  0.0158
 7895TIP3   OH247879   5.345   2.271  10.577  0.4265 -0.3804  0.7160
 7895TIP3    H147880   5.426   2.228  10.550  0.2807 -0.2585  0.0813
 7895TIP3    H247881   5.277   2.205  10.565 -0.2034  0.7022 -2.6550
 7896TIP3   OH247882   4.783   2.884  12.396  0.2731 -0.0692  0.1153
 7896TIP3    H147883   4.793   2.927  12.481  0.2286  1.8903 -0.8136
 7896TIP3    H247884   4.873   2.874  12.364  0.2471 -0.0493  0.0369
 7897TIP3   OH247885   6.297   0.936  11.330 -0.1849 -0.2861  0.1336
 7897TIP3    H147886   6.312   1.024  11.366  0.1441  0.1759 -1.0647
 7897TIP3    H247887   6.380   0.914  11.288 -0.2950 -1.1478  0.3592
 7898TIP3   OH247888   3.076   0.434  11.858  0.1248 -0.4015  0.1025
 7898TIP3    H147889   3.021   0.442  11.936  0.9453 -0.0836  0.6642
 7898TIP3    H247890   3.163   0.413  11.892  0.2537 -1.4049 -0.7931
 7899TIP3   OH247891   4.054   5.377  12.694  0.7209  0.7586 -0.5066
 7899TIP3    H147892   4.051   5.290  12.652  1.4964  0.8037 -0.6690
 7899TIP3    H247893   4.091   5.361  12.780  0.4312  0.8722 -0.3573
 7900TIP3   OH247894   5.569   0.991  10.985 -0.5809  0.6952 -0.0905
 7900TIP3    H147895   5.612   0.910  10.958 -0.0264  0.5567  1.1680
 7900TIP3    H247896   5.626   1.028  11.052 -2.0654  0.8451  1.1547
 7901TIP3   OH247897   4.955   1.491  10.475  0.0365  0.3231  0.6198
 7901TIP3    H147898   4.929   1.567  10.526 -2.2413  0.8642 -1.2012
 7901TIP3    H247899   4.891   1.424  10.497  0.2528 -0.0941  0.0186
 7902TIP3   OH247900   6.066   3.337  10.363 -0.4986  0.4316 -0.3051
 7902TIP3    H147901   6.108   3.357  10.279  2.7594 -1.1767  0.7909
 7902TIP3    H247902   6.071   3.419  10.412  0.1020  0.6424 -0.7089
 7903TIP3   OH247903   3.148   6.364  11.199  0.4392  0.5608  0.0871
 7903TIP3    H147904   3.148   6.280  11.152 -0.4712  0.4486  0.2713
 7903TIP3    H247905   3.076   6.413  11.160  2.1138  2.0450 -1.3491
 7904TIP3   OH247906   4.731   0.351  10.995  0.1665 -0.3486  0.2689
 7904TIP3    H147907   4.663   0.291  10.965  1.0597 -1.0149 -0.5156
 7904TIP3    H247908   4.770   0.307  11.071 -1.2676  0.7548  1.6980
 7905TIP3   OH247909   4.483   1.889  11.821 -0.5179 -0.2462  0.1629
 7905TIP3    H147910   4.416   1.838  11.866  0.6240 -1.2625  0.7587
 7905TIP3    H247911   4.556   1.892  11.882 -0.1598  1.2438 -0.2795
 7906TIP3   OH247912   6.298   4.099  12.261  0.5859 -0.2559 -0.4817
 7906TIP3    H147913   6.392   4.099  12.282  0.5287 -0.2073 -0.2211
 7906TIP3    H247914   6.263   4.171  12.314  0.1726 -1.1108  0.4346
 7907TIP3   OH247915   3.018   1.993  17.183  0.1492 -0.5197 -0.3251
 7907TIP3    H147916   3.078   1.999  17.108  2.2645 -1.4861  1.1879
 7907TIP3    H247917   2.999   2.084  17.205  0.3839 -0.2074 -1.3245
 7908TIP3   OH247918   4.507   6.959  11.403 -0.0308 -0.3286  0.1399
 7908TIP3    H147919   4.451   6.883  11.387  0.1917 -0.4284 -0.1724
 7908TIP3    H247920   4.567   6.961  11.329  0.4591 -0.2937  0.5345
 7909TIP3   OH247921   0.407   2.140  10.946  0.6151 -0.2285  0.0478
 7909TIP3    H147922   0.448   2.057  10.921  0.9573  0.0280 -0.2362
 7909TIP3    H247923   0.431   2.201  10.877  0.1111  0.0332  0.1005
 7910TIP3   OH247924   2.130   4.086  12.335  0.6195  0.1641  0.7655
 7910TIP3    H147925   2.075   4.052  12.264  1.1151 -0.0440  0.4750
 7910TIP3    H247926   2.210   4.033  12.330  1.7957  1.9273 -0.2621
 7911TIP3   OH247927   3.030   0.046  12.832  0.1237 -0.2189  0.0949
 7911TIP3    H147928   2.988  -0.038  12.815 -0.7137 -0.1225  1.4853
 7911TIP3    H247929   2.974   0.088  12.897  2.4843 -0.1795  2.2699
 7912TIP3   OH247930   0.106   2.900  11.348  0.3067 -0.3233 -0.2537
 7912TIP3    H147931   0.094   2.974  11.408  0.7587  0.1129 -0.6904
 7912TIP3    H247932   0.126   2.826  11.405  0.1348 -0.0436  0.1732
 7913TIP3   OH247933   5.678   0.160  10.820  0.0199  0.2168 -0.0448
 7913TIP3    H147934   5.646   0.236  10.771 -1.9788 -0.3172  0.3569
 7913TIP3    H247935   5.709   0.196  10.903  0.1887  0.7296 -0.3260
 7914TIP3   OH247936   5.519   0.232  10.461 -0.1500  0.0561  0.1091
 7914TIP3    H147937   5.457   0.298  10.493 -1.6245  0.1000 -2.5214
 7914TIP3    H247938   5.531   0.254  10.369  1.3913 -1.8209 -0.1891
 7915TIP3   OH247939   0.957   7.106  11.472  0.1829  0.0751  0.2525
 7915TIP3    H147940   1.007   7.059  11.406 -0.5667 -0.8208  0.2860
 7915TIP3    H247941   0.982   7.197  11.462 -1.0639  0.2178 -2.3511
 7916TIP3   OH247942   0.964   7.395  13.267  0.5869  0.2839 -0.1304
 7916TIP3    H147943   0.992   7.335  13.337  0.4258 -0.5831 -0.7961
 7916TIP3    H247944   0.969   7.482  13.307  0.8279 -0.1681  0.8557
 7917TIP3   OH247945   2.934   1.826  10.747  0.3796 -0.1015  0.6102
 7917TIP3    H147946   3.008   1.885  10.744  0.4502 -0.2279 -1.0922
 7917TIP3    H247947   2.857   1.883  10.749  0.4861  0.0263  1.4002
 7918TIP3   OH247948   4.500   3.745  12.616  0.2931  0.4192 -1.0498
 7918TIP3    H147949   4.516   3.829  12.658  3.3600 -0.9723  0.8703
 7918TIP3    H247950   4.448   3.696  12.679  2.3536 -0.6065 -0.0351
 7919TIP3   OH247951   3.707   0.814  11.550  0.0644 -0.0391 -0.4916
 7919TIP3    H147952   3.748   0.835  11.634  1.0352  1.5969 -1.3237
 7919TIP3    H247953   3.777   0.773  11.499 -0.5492 -1.1267 -0.4840
 7920TIP3   OH247954   3.083   6.091  12.562  0.0712  0.0114 -0.6454
 7920TIP3    H147955   3.048   6.157  12.621 -0.2740  0.1291 -0.9729
 7920TIP3    H247956   3.169   6.069  12.597 -0.0407  0.2400 -0.2301
 7921TIP3   OH247957   7.052   4.981  12.966 -0.3474 -0.1922  0.2189
 7921TIP3    H147958   7.058   4.889  12.938  0.7094 -0.2461  0.5769
 7921TIP3    H247959   7.057   4.977  13.061 -0.4952  0.2363  0.2478
 7922TIP3   OH247960   6.341   0.179  10.579  0.4206  0.5474  0.0878
 7922TIP3    H147961   6.303   0.091  10.590  0.5296  0.5481  0.4674
 7922TIP3    H247962   6.416   0.165  10.521  0.4142  0.3947  0.1158
 7923TIP3   OH247963   7.449   3.607  11.587 -0.2597  0.1046 -0.2678
 7923TIP3    H147964   7.471   3.678  11.647  2.0684 -0.0100 -0.9018
 7923TIP3    H247965   7.375   3.562  11.629 -0.8075  1.9599  0.8727
 7924TIP3   OH247966   6.253   2.992  12.836 -0.4406  0.3895 -0.0176
 7924TIP3    H147967   6.322   2.930  12.815  0.2505  0.6594  1.3866
 7924TIP3    H247968   6.183   2.938  12.873 -1.4292 -0.0111 -2.2846
 7925TIP3   OH247969   2.424   2.157  12.722 -0.0095  0.0084 -0.0010
 7925TIP3    H147970   2.368   2.144  12.645  0.0219 -1.6856  0.2119
 7925TIP3    H247971   2.512   2.167  12.686 -0.2068  0.9808 -0.2521
 7926TIP3   OH247972   6.533   5.407  10.806 -0.3420  0.1251  0.2000
 7926TIP3    H147973   6.552   5.456  10.726  2.8948 -0.2085  0.6494
 7926TIP3    H247974   6.541   5.316  10.781  2.1703  0.0236  1.1109
 7927TIP3   OH247975   2.152   1.527  11.992 -0.7295  0.0940 -0.1136
 7927TIP3    H147976   2.238   1.538  11.952  1.1131  1.8183  3.8124
 7927TIP3    H247977   2.090   1.553  11.924  1.9642  1.1744 -2.3208
 7928TIP3   OH247978   5.674   7.566  12.273 -0.3153  0.3919 -0.0819
 7928TIP3    H147979   5.676   7.596  12.363  2.7001 -2.0962  0.8540
 7928TIP3    H247980   5.610   7.495  12.272  0.5684 -0.4281  0.4586
 7929TIP3   OH247981   6.406   0.482  11.502 -0.4189 -0.3698  0.5612
 7929TIP3    H147982   6.341   0.465  11.434 -0.5287  1.2398  0.2175
 7929TIP3    H247983   6.490   0.465  11.459 -0.4840  0.6861 -0.0364
 7930TIP3   OH247984   5.164   3.124  10.890 -0.3225  0.1131 -0.6159
 7930TIP3    H147985   5.259   3.133  10.902 -0.1765  0.2129 -1.6870
 7930TIP3    H247986   5.126   3.144  10.975  0.7709 -2.7181  0.6902
 7931TIP3   OH247987   5.305   5.354  11.425  0.4549 -0.1146 -0.5182
 7931TIP3    H147988   5.262   5.347  11.511  0.9545 -1.3787 -0.3406
 7931TIP3    H247989   5.279   5.273  11.380  1.4236 -0.1788 -0.9756
 7932TIP3   OH247990   0.751   4.133  11.601  0.3285 -0.3710 -0.4806
 7932TIP3    H147991   0.772   4.040  11.586 -1.2916 -0.6743 -1.1607
 7932TIP3    H247992   0.659   4.131  11.629 -0.2609  1.1342 -2.1524
 7933TIP3   OH247993   5.866   0.762  11.349 -0.5495 -0.4206  0.3117
 7933TIP3    H147994   5.942   0.792  11.399 -1.2617  0.8296  0.6751
 7933TIP3    H247995   5.900   0.690  11.295  0.6810 -0.4633  1.1055
 7934TIP3   OH247996   2.160   4.038  11.560  0.1905  0.1538  0.2061
 7934TIP3    H147997   2.207   4.122  11.557  0.5693 -0.0764 -2.3812
 7934TIP3    H247998   2.221   3.975  11.523 -0.9927 -0.7795 -0.2134
 7935TIP3   OH247999   1.834   7.278  10.741 -0.3922 -0.1924  0.2143
 7935TIP3    H148000   1.866   7.224  10.813 -1.1038 -0.1568  0.5648
 7935TIP3    H248001   1.864   7.366  10.763 -1.3159 -0.0338  0.9163
 7936TIP3   OH248002   1.971   7.166  12.857  0.3449 -0.1812  0.3024
 7936TIP3    H148003   1.924   7.248  12.843  1.6772  0.7603  1.1034
 7936TIP3    H248004   1.902   7.099  12.863 -0.6783  0.3862 -3.1144
 7937TIP3   OH248005   5.084   7.566  11.208 -0.9836 -0.2059 -0.7083
 7937TIP3    H148006   5.073   7.544  11.301  0.0404  0.2181 -0.4711
 7937TIP3    H248007   5.033   7.500  11.162 -0.8718 -0.9055  0.1350
 7938TIP3   OH248008   3.631   1.002  12.273  0.4626 -0.6557 -0.1226
 7938TIP3    H148009   3.680   0.923  12.295  2.3674  0.4822 -0.0198
 7938TIP3    H248010   3.609   0.992  12.181  1.6252 -0.8657 -0.3993
 7939TIP3   OH248011   2.432   2.352  11.852 -0.0599 -0.1166 -0.5856
 7939TIP3    H148012   2.490   2.416  11.894  0.0328  0.9673 -2.2610
 7939TIP3    H248013   2.459   2.268  11.888  1.0228  0.5949  0.3501
 7940TIP3   OH248014   6.318   5.325  10.492  0.1643  0.0157  0.1179
 7940TIP3    H148015   6.341   5.304  10.402 -0.8493  0.8843 -0.3580
 7940TIP3    H248016   6.373   5.266  10.545  1.4045  0.0934 -1.0228
 7941TIP3   OH248017   5.300   7.307  10.430  0.6033 -0.8869 -0.0542
 7941TIP3    H148018   5.320   7.280  10.340  1.8102 -0.0839 -0.0522
 7941TIP3    H248019   5.250   7.388  10.420  0.9492 -0.6661  0.0006
 7942TIP3   OH248020   0.546   2.043  12.892  0.3321  0.0151 -0.1425
 7942TIP3    H148021   0.625   2.043  12.945  0.2979 -0.2181 -0.0880
 7942TIP3    H248022   0.576   2.067  12.804  0.3324  0.7482  0.0581
 7943TIP3   OH248023   0.983   0.063  10.768 -0.1780 -0.0992 -0.2806
 7943TIP3    H148024   1.036  -0.016  10.781  2.2754  1.6450  1.1513
 7943TIP3    H248025   0.893   0.030  10.761  0.4409 -2.9114  2.4710
 7944TIP3   OH248026   0.595   0.507  10.577 -0.0491  0.0047  0.8677
 7944TIP3    H148027   0.531   0.440  10.600 -0.5703  0.4049  0.5908
 7944TIP3    H248028   0.677   0.458  10.566 -0.8701 -0.9501 -1.5874
 7945TIP3   OH248029   6.457   5.344  12.316  0.3502 -1.0318 -0.4864
 7945TIP3    H148030   6.506   5.321  12.237  1.4545 -2.3868  0.5493
 7945TIP3    H248031   6.499   5.294  12.386 -1.1667 -0.5559  0.8236
 7946TIP3   OH248032   6.206   0.373  12.257 -0.0696  0.0677  0.8735
 7946TIP3    H148033   6.210   0.290  12.210 -0.5185  0.6874 -0.3111
 7946TIP3    H248034   6.280   0.371  12.317  0.4157 -0.8362  0.2625
 7947TIP3   OH248035   5.902   3.920  11.235  0.1699 -0.2482  0.2094
 7947TIP3    H148036   5.823   3.961  11.199  0.0672  0.0237  0.7306
 7947TIP3    H248037   5.887   3.919  11.330  1.0847  0.4330  0.3716
 7948TIP3   OH248038   0.702   1.041  10.691 -0.3384 -0.4584 -0.6281
 7948TIP3    H148039   0.733   1.040  10.782 -0.3744  1.8297 -0.5389
 7948TIP3    H248040   0.638   0.970  10.687 -1.4651  0.3283  1.5788
 7949TIP3   OH248041   1.440   4.767  12.202 -0.2806  0.6272 -0.1389
 7949TIP3    H148042   1.534   4.783  12.200  0.1517 -1.5677  0.1618
 7949TIP3    H248043   1.424   4.709  12.126 -1.6565  2.1371 -1.0600
 7950TIP3   OH248044   4.248   5.044  11.688  0.4276  0.0827  0.2988
 7950TIP3    H148045   4.315   4.990  11.731 -0.3617 -1.4525 -0.3504
 7950TIP3    H248046   4.165   5.013  11.724 -0.0080  1.4295  0.4998
 7951TIP3   OH248047   7.536   7.217  11.479  0.0990  0.4515 -0.0404
 7951TIP3    H148048   7.464   7.240  11.421 -1.4962  0.5921  1.9039
 7951TIP3    H248049   7.611   7.266  11.445 -1.6413  3.4673  0.1644
 7952TIP3   OH248050   2.748   6.865  11.855  0.3023 -0.3379 -0.3516
 7952TIP3    H148051   2.834   6.843  11.891  0.4838  0.5899 -0.1969
 7952TIP3    H248052   2.764   6.879  11.762  0.8305  2.2847  0.0688
 7953TIP3   OH248053   6.307   5.767  10.790 -0.3177 -0.3361  0.1452
 7953TIP3    H148054   6.267   5.854  10.779  0.3054 -0.2771 -2.1050
 7953TIP3    H248055   6.244   5.706  10.752 -0.8228 -0.9634  1.8588
 7954TIP3   OH248056   2.870   2.311  13.126  0.0883  0.0733  0.1261
 7954TIP3    H148057   2.955   2.287  13.089  0.9389  1.9695  0.7058
 7954TIP3    H248058   2.807   2.294  13.055  1.0470 -0.5920 -0.5952
 7955TIP3   OH248059   4.799   1.182  10.959 -0.1962  0.1203 -0.1660
 7955TIP3    H148060   4.729   1.159  11.020 -0.2142  0.1969 -0.1565
 7955TIP3    H248061   4.850   1.249  11.005  1.0941 -1.3653  0.6472
 7956TIP3   OH248062   3.767   2.000  12.126 -0.1287  0.2036  0.0455
 7956TIP3    H148063   3.719   1.933  12.078 -1.1314 -0.2848  1.6647
 7956TIP3    H248064   3.751   2.080  12.076 -0.5597 -0.3998 -0.8198
 7957TIP3   OH248065   4.488   4.492  12.284 -0.0274  0.0517  1.2267
 7957TIP3    H148066   4.534   4.451  12.357  0.1762  0.9347  1.5981
 7957TIP3    H248067   4.536   4.461  12.206 -0.0638 -0.6482  1.4717
 7958TIP3   OH248068   0.895   4.599  12.970  0.1666 -0.2718  0.1264
 7958TIP3    H148069   0.884   4.513  12.929  1.2546  0.0071 -0.7924
 7958TIP3    H248070   0.947   4.581  13.049 -0.1720 -0.5337  0.2946
 7959TIP3   OH248071   1.369   3.369  10.558  0.5036 -0.0055 -0.3369
 7959TIP3    H148072   1.375   3.321  10.640 -0.9169  0.4560  0.0541
 7959TIP3    H248073   1.455   3.358  10.517  0.2464 -2.8683 -0.2723
 7960TIP3   OH248074   0.750   3.681  11.411  0.1213 -0.2812  0.2463
 7960TIP3    H148075   0.736   3.586  11.403  0.9112 -0.2859 -1.3785
 7960TIP3    H248076   0.670   3.713  11.455 -1.2282 -1.3912 -1.2821
 7961TIP3   OH248077   2.133   4.417  11.141  0.5304  0.0456 -0.4213
 7961TIP3    H148078   2.167   4.457  11.061 -1.9595  2.5929 -0.3652
 7961TIP3    H248079   2.205   4.424  11.204  1.4920  0.8808 -1.5701
 7962TIP3   OH248080   6.393   0.663  11.717  0.1377  0.3359 -0.0907
 7962TIP3    H148081   6.298   0.672  11.720  0.0975  0.5948 -1.5904
 7962TIP3    H248082   6.411   0.617  11.635  1.3792  1.6668 -0.6166
 7963TIP3   OH248083   4.319   0.598  11.370 -0.0881 -0.1301  0.1911
 7963TIP3    H148084   4.277   0.665  11.423  0.5295  1.0850 -0.8157
 7963TIP3    H248085   4.412   0.622  11.369  0.3550 -1.7009  0.8253
 7964TIP3   OH248086   3.033   3.923  12.937  0.0087  0.2411 -0.3243
 7964TIP3    H148087   3.013   4.000  12.991 -3.3776 -0.0877 -0.9081
 7964TIP3    H248088   3.032   3.956  12.847 -1.7392 -0.4492 -0.5978
 7965TIP3   OH248089   0.758   4.370  10.859  0.4180  0.0539  1.0100
 7965TIP3    H148090   0.819   4.309  10.816  1.3008  1.4804  0.1674
 7965TIP3    H248091   0.675   4.322  10.862  0.5488 -0.4992 -1.4641
 7966TIP3   OH248092   5.763   7.435  13.275  0.8096 -0.4297 -0.2518
 7966TIP3    H148093   5.759   7.468  13.365 -0.0731  1.8314 -1.0341
 7966TIP3    H248094   5.857   7.430  13.255  1.1246 -2.9492  1.3778
 7967TIP3   OH248095   3.557   5.723  10.538 -0.2851 -0.0382  0.4192
 7967TIP3    H148096   3.496   5.794  10.561 -0.6860 -0.6766  1.3991
 7967TIP3    H248097   3.511   5.672  10.471 -0.8528 -0.5165  1.1541
 7968TIP3   OH248098   1.748   1.788  12.880  0.9490  0.2944 -0.1506
 7968TIP3    H148099   1.763   1.764  12.971 -2.6140 -3.6301 -0.2929
 7968TIP3    H248100   1.670   1.845  12.883 -1.5556 -2.8365 -0.7074
 7969TIP3   OH248101   3.963   4.234  10.967  0.3022 -0.2492  0.2312
 7969TIP3    H148102   3.893   4.298  10.982 -1.5701 -1.4412 -2.6274
 7969TIP3    H248103   3.922   4.150  10.986  1.4751 -0.8871  0.0084
 7970TIP3   OH248104   4.018   3.463  11.547 -0.3220 -0.5927 -0.0720
 7970TIP3    H148105   4.011   3.521  11.472 -0.1807  0.2692  0.5661
 7970TIP3    H248106   3.938   3.411  11.544 -1.5887  1.2246  0.6298
 7971TIP3   OH248107   6.200   1.958  11.152  0.1754  0.7854  0.7548
 7971TIP3    H148108   6.243   2.010  11.085 -0.7654 -0.3547 -0.8216
 7971TIP3    H248109   6.270   1.906  11.192  0.7693  1.5973  0.7683
 7972TIP3   OH248110   6.895   0.462  11.031 -0.2300 -0.2866 -0.0177
 7972TIP3    H148111   6.974   0.427  10.991  0.5794  1.4152 -0.0163
 7972TIP3    H248112   6.850   0.507  10.959 -0.2043  0.3858  0.3750
 7973TIP3   OH248113   7.097   2.038  12.608 -0.3280  0.2239 -0.3591
 7973TIP3    H148114   7.031   2.074  12.666  0.5438  0.3266  0.5995
 7973TIP3    H248115   7.119   2.110  12.549 -1.4468  0.0214 -1.0380
 7974TIP3   OH248116   1.460   5.582  11.432  0.6113  0.2627 -0.0277
 7974TIP3    H148117   1.522   5.514  11.405  0.1876 -0.8188  1.5402
 7974TIP3    H248118   1.459   5.644  11.359  1.5847 -1.0198 -1.1969
 7975TIP3   OH248119   7.653   1.693  12.188  0.4578  0.3871  0.3721
 7975TIP3    H148120   7.565   1.721  12.160  0.7727  2.0155  0.8715
 7975TIP3    H248121   7.673   1.750  12.262  2.2783  0.6402 -0.2743
 7976TIP3   OH248122   4.675   5.336  10.861  0.4347  0.0623  0.5252
 7976TIP3    H148123   4.714   5.249  10.864  2.7809  0.9870 -0.5637
 7976TIP3    H248124   4.703   5.372  10.778 -4.4726  0.2140 -1.4263
 7977TIP3   OH248125   1.330   3.998  12.422  0.5597 -0.0323 -0.6746
 7977TIP3    H148126   1.409   4.045  12.450  0.9312 -1.6910  1.2669
 7977TIP3    H248127   1.357   3.906  12.418 -1.6572 -0.8878  1.7619
 7978TIP3   OH248128   6.029   4.451  12.770  0.2397 -0.6659  0.2275
 7978TIP3    H148129   5.951   4.399  12.751 -0.4580  0.1898  0.6766
 7978TIP3    H248130   6.017   4.478  12.861  1.3350 -0.9820  0.4790
 7979TIP3   OH248131   5.305   1.975  11.527  0.6508  0.4349 -0.0869
 7979TIP3    H148132   5.386   1.924  11.534  0.1612 -0.5406 -1.1083
 7979TIP3    H248133   5.240   1.923  11.573  0.4016  0.7703 -0.0551
 7980TIP3   OH248134   1.357   1.958  11.183  0.0688  0.3594 -0.1293
 7980TIP3    H148135   1.388   1.876  11.221 -0.9790 -0.5987 -1.2535
 7980TIP3    H248136   1.319   2.006  11.256 -3.9174 -2.3791 -0.0951
 7981TIP3   OH248137   2.370   3.507  11.774 -0.4606  0.9565  0.5152
 7981TIP3    H148138   2.351   3.586  11.823  0.9573  0.6473  1.6522
 7981TIP3    H248139   2.380   3.439  11.841  1.1972  0.4436 -0.1813
 7982TIP3   OH248140   1.930   1.979  10.721  0.1370  0.4085  0.4078
 7982TIP3    H148141   1.931   2.070  10.691 -0.2914  0.8213  1.5984
 7982TIP3    H248142   2.013   1.943  10.690  0.3508  1.2227  0.0023
 7983TIP3   OH248143   2.100   7.371  11.375 -0.1336 -0.3155 -0.1057
 7983TIP3    H148144   2.051   7.296  11.341  0.4645 -1.8344  2.1872
 7983TIP3    H248145   2.187   7.336  11.395 -0.0546  0.7761  1.6985
 7984TIP3   OH248146   7.360   0.982  10.549 -0.1724  0.1721  0.2435
 7984TIP3    H148147   7.268   0.956  10.556 -0.6355  1.9161  1.1796
 7984TIP3    H248148   7.375   1.040  10.624  2.2026 -1.4583  1.1613
 7985TIP3   OH248149   5.005   3.962  10.856  0.1943  0.1426 -0.2146
 7985TIP3    H148150   5.049   3.974  10.941  0.4484 -2.0481  0.0162
 7985TIP3    H248151   4.981   4.051  10.829 -1.0986  0.8198  2.7735
 7986TIP3   OH248152   7.521   2.074  10.745  0.2691 -0.9867  0.0664
 7986TIP3    H148153   7.482   2.158  10.721 -0.2007 -0.7671  1.5542
 7986TIP3    H248154   7.594   2.064  10.684 -0.7322 -0.3586 -1.3092
 7987TIP3   OH248155   4.085   1.529  12.629 -0.1711  0.2309  0.1840
 7987TIP3    H148156   4.110   1.571  12.547 -1.0708  2.0912  0.8151
 7987TIP3    H248157   4.147   1.563  12.693 -0.9816  0.7227  0.7277
 7988TIP3   OH248158   0.208   7.200  10.132  0.1817  0.7168 -0.3294
 7988TIP3    H148159   0.299   7.174  10.116 -0.4168 -0.6170 -1.6711
 7988TIP3    H248160   0.162   7.119  10.151 -1.1761  1.0770 -1.8698
 7989TIP3   OH248161   3.811   0.530  11.861  0.3863  0.1443  0.3459
 7989TIP3    H148162   3.772   0.596  11.917  1.0263  2.3105 -1.5791
 7989TIP3    H248163   3.772   0.546  11.775  0.8073 -1.8080 -0.2591
 7990TIP3   OH248164   4.459   5.427  12.221  0.5453 -0.2297  0.2937
 7990TIP3    H148165   4.531   5.377  12.260  0.5406 -0.2964  0.2166
 7990TIP3    H248166   4.447   5.501  12.280  0.4640 -0.3919  0.4814
 7991TIP3   OH248167   0.364   7.570  10.761 -0.0031  0.2272 -0.1702
 7991TIP3    H148168   0.286   7.626  10.759 -0.2005 -0.0508 -0.3460
 7991TIP3    H248169   0.417   7.606  10.831 -0.3754  0.3088  0.0747
 7992TIP3   OH248170   2.436   6.106  13.029  0.1966 -0.0601 -0.6299
 7992TIP3    H148171   2.502   6.060  12.977  0.0130 -0.7963 -0.2142
 7992TIP3    H248172   2.421   6.050  13.105 -2.1849 -0.8278 -1.5593
 7993TIP3   OH248173   1.116   0.970  10.489  0.2631 -0.5346 -0.2794
 7993TIP3    H148174   1.041   0.910  10.490  1.2407 -1.8239  1.4886
 7993TIP3    H248175   1.154   0.960  10.402 -1.4004 -0.0586 -1.1230
 7994TIP3   OH248176   1.129   2.959  12.612  0.3238  0.1480 -0.5543
 7994TIP3    H148177   1.206   2.974  12.556  0.2355 -2.9316 -1.6725
 7994TIP3    H248178   1.161   2.902  12.682 -0.2727  1.5293  0.9204
 7995TIP3   OH248179   1.579   0.890  11.015 -0.1000  0.5444 -0.4424
 7995TIP3    H148180   1.549   0.800  11.029  1.7282 -0.3073 -1.5212
 7995TIP3    H248181   1.607   0.920  11.102  0.6124 -0.4746 -0.3065
 7996TIP3   OH248182   6.046   3.157  11.489  0.0345 -0.3320  0.0846
 7996TIP3    H148183   5.988   3.092  11.528  0.6402 -1.4888 -0.8730
 7996TIP3    H248184   6.006   3.241  11.509 -1.2581 -1.0468  0.5662
 7997TIP3   OH248185   5.553   0.621  10.566 -0.3802  0.3592 -0.3845
 7997TIP3    H148186   5.506   0.691  10.519  0.6926  0.8506 -0.7591
 7997TIP3    H248187   5.637   0.660  10.589  0.6535 -1.1039 -1.4790
 7998TIP3   OH248188   3.251   3.432  11.720  0.5438  0.6002 -0.0324
 7998TIP3    H148189   3.296   3.508  11.755 -0.2081  0.3777  1.5129
 7998TIP3    H248190   3.198   3.466  11.648 -0.2080  1.6494  0.9922
 7999TIP3   OH248191   0.737   5.205  12.326  0.6815  0.5613  0.6312
 7999TIP3    H148192   0.688   5.284  12.304  0.5975  0.8880  1.8848
 7999TIP3    H248193   0.679   5.158  12.387  1.2638  0.1711  0.8850
 8000TIP3   OH248194   1.975   6.856  11.032  0.4565 -0.1707  0.0705
 8000TIP3    H148195   1.954   6.776  11.081 -0.9400 -0.6425 -1.2321
 8000TIP3    H248196   2.039   6.828  10.966 -0.9071 -0.5108 -1.1486
 8001TIP3   OH248197   7.678   7.325  10.781  0.2876 -0.4731  0.1803
 8001TIP3    H148198   7.773   7.322  10.794  0.9206  1.7903 -2.9472
 8001TIP3    H248199   7.650   7.405  10.825  0.4271  0.5799 -1.5632
 8002TIP3   OH248200   3.815   5.204  11.650 -0.1064 -0.1667 -0.3950
 8002TIP3    H148201   3.879   5.170  11.587  1.8026 -3.0307  2.7569
 8002TIP3    H248202   3.868   5.249  11.716 -1.4718 -1.0823  1.4060
 8003TIP3   OH248203   7.433   6.640  12.717  0.3964  0.1042 -0.2466
 8003TIP3    H148204   7.512   6.690  12.734 -0.3518  0.5363  2.4445
 8003TIP3    H248205   7.405   6.608  12.803 -2.9411  0.9058 -0.8853
 8004TIP3   OH248206   2.940   2.590  12.256  0.5231 -0.4342 -0.6857
 8004TIP3    H148207   2.906   2.678  12.239  0.4983 -0.2401  0.3011
 8004TIP3    H248208   2.862   2.539  12.279  0.6592 -0.4775 -0.3267
 8005TIP3   OH248209   1.089   3.222  12.751 -0.2800 -0.3754 -0.0607
 8005TIP3    H148210   1.102   3.154  12.685 -1.0756 -0.2968 -0.3058
 8005TIP3    H248211   1.177   3.253  12.770  0.1174 -1.5949  0.1927
 8006TIP3   OH248212   4.795   6.882  11.561 -0.2822  0.1743 -0.1496
 8006TIP3    H148213   4.706   6.859  11.533 -0.7825  1.5835  0.2000
 8006TIP3    H248214   4.851   6.851  11.489 -1.2053  0.5371 -1.0554
 8007TIP3   OH248215   1.801   5.487  11.081  0.6126  0.2300  0.0533
 8007TIP3    H148216   1.746   5.445  11.147  0.0835 -0.4407 -0.7953
 8007TIP3    H248217   1.887   5.494  11.122  0.0271  0.8574  1.2260
 8008TIP3   OH248218   0.409   2.392  12.239  0.0123 -0.4545  0.0980
 8008TIP3    H148219   0.463   2.329  12.191  2.3251  0.5609  1.2089
 8008TIP3    H248220   0.338   2.413  12.178  0.0427 -2.9026 -0.8948
 8009TIP3   OH248221   5.739   1.332  10.869 -0.4287  0.1129 -0.0677
 8009TIP3    H148222   5.794   1.364  10.797  0.3955 -0.2708  0.3722
 8009TIP3    H248223   5.687   1.262  10.831 -2.0698  1.7596 -0.9792
 8010TIP3   OH248224   2.850   3.878  11.793  0.0307  0.7090  0.2163
 8010TIP3    H148225   2.901   3.911  11.867 -1.1289 -0.3047  1.5119
 8010TIP3    H248226   2.889   3.920  11.717  3.1439 -0.4055  1.0692
 8011TIP3   OH248227   0.042   6.384  12.683 -0.2528 -0.8652 -0.0376
 8011TIP3    H148228   0.137   6.381  12.695  0.0180  1.6720 -1.0283
 8011TIP3    H248229   0.007   6.389  12.772  0.6404 -0.1419  0.2858
 8012TIP3   OH248230   7.650   0.233  10.500 -0.2292 -0.5968 -0.2526
 8012TIP3    H148231   7.617   0.201  10.416 -2.2869  0.9709 -0.1001
 8012TIP3    H248232   7.620   0.169  10.564  0.8854 -1.5101 -0.6076
 8013TIP3   OH248233   7.324   4.688  11.927  0.0344  0.1603 -0.0728
 8013TIP3    H148234   7.377   4.610  11.912 -2.8447 -1.9303 -0.3618
 8013TIP3    H248235   7.337   4.709  12.019  2.7835  0.9735 -0.5679
 8014TIP3   OH248236   2.197   7.338  11.831 -0.0950  0.1580  0.0920
 8014TIP3    H148237   2.212   7.264  11.890  2.3683 -0.6378 -1.3818
 8014TIP3    H248238   2.230   7.414  11.879  1.7008 -0.4499 -0.0852
 8015TIP3   OH248239   1.517   4.347  13.109  0.0705 -0.1017 -0.3395
 8015TIP3    H148240   1.593   4.297  13.139  0.0546  0.3134  0.4049
 8015TIP3    H248241   1.452   4.281  13.085  1.2641 -0.5436 -2.7090
 8016TIP3   OH248242   1.950   6.575  10.661 -0.2735 -0.3832  0.8040
 8016TIP3    H148243   1.889   6.642  10.631  1.3966  0.9599  0.3135
 8016TIP3    H248244   2.028   6.587  10.608  1.0811 -0.9253  2.5645
 8017TIP3   OH248245   4.722   1.397  11.910 -0.1008 -0.6057  0.2183
 8017TIP3    H148246   4.745   1.347  11.988  0.7954 -0.1161  0.2787
 8017TIP3    H248247   4.656   1.460  11.941  3.6906  2.9843  1.8772
 8018TIP3   OH248248   5.272   0.670  12.172  0.0341  0.4567  0.8322
 8018TIP3    H148249   5.182   0.693  12.149 -0.2483 -2.1068 -0.9940
 8018TIP3    H248250   5.316   0.655  12.088  2.5329  2.5915  1.6078
 8019TIP3   OH248251   1.205   6.502  11.425  0.9193  0.1453 -0.2685
 8019TIP3    H148252   1.120   6.463  11.445  1.2131 -0.0058  0.7312
 8019TIP3    H248253   1.268   6.447  11.472  1.4783  0.8740 -0.1523
 8020TIP3   OH248254   3.638   3.983  12.701 -0.8333 -0.1259  0.5036
 8020TIP3    H148255   3.689   3.927  12.642 -2.3623 -0.8472 -0.1823
 8020TIP3    H248256   3.667   3.957  12.789 -1.3319 -1.8611  0.1978
 8021TIP3   OH248257   1.515   0.999  11.284 -0.0740  0.3252  0.0701
 8021TIP3    H148258   1.594   1.029  11.328  0.0824 -1.1453  0.8622
 8021TIP3    H248259   1.444   1.051  11.322  0.3137  0.5175  0.5325
 8022TIP3   OH248260   4.476   3.674  12.055 -0.0936  0.6028 -0.0637
 8022TIP3    H148261   4.484   3.694  12.149  3.8860  0.4294 -0.2008
 8022TIP3    H248262   4.495   3.756  12.011 -1.7208  0.6258 -0.8247
 8023TIP3   OH248263   3.365   4.461  12.211 -0.5768 -0.2475  0.0631
 8023TIP3    H148264   3.376   4.549  12.246 -2.1249 -0.7232  1.9287
 8023TIP3    H248265   3.308   4.473  12.135  2.2291  0.7109 -2.0562
 8024TIP3   OH248266   2.260   3.775  12.586 -0.1216  0.2024 -0.3496
 8024TIP3    H148267   2.287   3.685  12.604  2.3054  1.1068  0.9541
 8024TIP3    H248268   2.249   3.815  12.672 -1.7814  1.0258 -0.9072
 8025TIP3   OH248269   7.223   4.420  12.018  0.0000 -0.3143 -0.1739
 8025TIP3    H148270   7.188   4.347  12.070  0.6988 -0.7971 -0.3785
 8025TIP3    H248271   7.309   4.391  11.991 -0.0492  0.2597 -0.9586
 8026TIP3   OH248272   2.220   7.121  11.991  0.0291 -0.0874 -1.1063
 8026TIP3    H148273   2.282   7.077  11.933  1.8698 -0.5724  1.0748
 8026TIP3    H248274   2.135   7.082  11.971  1.0720 -2.2638 -1.5437
 8027TIP3   OH248275   0.412   0.846  12.495  0.3605  0.0182  0.0964
 8027TIP3    H148276   0.470   0.922  12.506 -2.2032  2.1258  0.3325
 8027TIP3    H248277   0.341   0.862  12.558 -0.3525 -2.5378  0.0262
 8028TIP3   OH248278   1.257   6.867  12.454 -0.5179  0.1423  0.6400
 8028TIP3    H148279   1.267   6.950  12.407 -0.5801  0.6086  1.4235
 8028TIP3    H248280   1.288   6.886  12.543  1.0081 -1.1140  0.4195
 8029TIP3   OH248281   4.877   5.604  12.077  0.0464 -0.5528 -0.4923
 8029TIP3    H148282   4.854   5.655  11.999  0.3685 -0.3349 -0.4484
 8029TIP3    H248283   4.948   5.654  12.118 -0.8277 -0.1122  0.5265
 8030TIP3   OH248284   4.767   4.473  11.078  0.4911 -0.2309 -0.1651
 8030TIP3    H148285   4.791   4.514  10.995  1.9121  0.9114  0.7448
 8030TIP3    H248286   4.677   4.501  11.093  0.1275 -0.6628 -1.4179
 8031TIP3   OH248287   6.039   5.182  12.073 -0.6492  0.5391  0.3327
 8031TIP3    H148288   6.065   5.155  12.161  2.2580 -0.2023 -0.6539
 8031TIP3    H248289   5.980   5.112  12.044 -0.6224  0.1252  1.2266
 8032TIP3   OH248290   1.035   7.400  10.277  0.0604 -0.1364  0.4675
 8032TIP3    H148291   1.106   7.335  10.275 -0.7032 -1.1203  2.2746
 8032TIP3    H248292   1.051   7.450  10.357  0.1056  1.3285 -0.4252
 8033TIP3   OH248293   2.030   0.760  12.554 -0.0185  0.0728  0.3083
 8033TIP3    H148294   1.998   0.802  12.634 -0.1713 -0.8039  0.7121
 8033TIP3    H248295   2.024   0.829  12.488 -1.3042  0.3865  0.7180
 8034TIP3   OH248296   0.882   3.068  12.582  0.1747 -0.1224 -0.1830
 8034TIP3    H148297   0.966   3.021  12.582  0.9901  1.2910 -0.0333
 8034TIP3    H248298   0.866   3.088  12.674  0.6696  1.2960 -0.3842
 8035TIP3   OH248299   2.012   4.892  11.292  0.2390  0.5735  0.1596
 8035TIP3    H148300   1.918   4.871  11.291 -0.2827  2.7493  0.3959
 8035TIP3    H248301   2.032   4.912  11.383  0.5515  1.6617 -0.1324
 8036TIP3   OH248302   0.915   0.744  11.710  0.6751  0.4159  0.0237
 8036TIP3    H148303   0.890   0.836  11.701  4.7295  1.7736  0.5361
 8036TIP3    H248304   0.928   0.732  11.804  0.1199 -0.7522 -0.0302
 8037TIP3   OH248305   6.970   1.309  11.636 -0.3893  0.2787  0.5201
 8037TIP3    H148306   7.018   1.391  11.627 -0.9794  0.6335  0.5537
 8037TIP3    H248307   6.907   1.325  11.706 -0.6013 -0.1608  0.4368
 8038TIP3   OH248308   6.529   2.481  12.673  0.0232  0.2622  0.7147
 8038TIP3    H148309   6.569   2.528  12.600  2.5444  1.0034  2.4320
 8038TIP3    H248310   6.568   2.393  12.668 -0.8899 -0.1316  0.3710
 8039TIP3   OH248311   4.522   1.939  10.702  0.8353  0.0595 -0.0015
 8039TIP3    H148312   4.608   1.981  10.696  0.1671  1.3218 -1.1906
 8039TIP3    H248313   4.493   1.957  10.792  1.1938  0.8901 -0.0403
 8040TIP3   OH248314   6.802   2.307  10.799 -0.3913  0.2705 -0.6846
 8040TIP3    H148315   6.852   2.369  10.746  2.1173 -0.2805  0.8996
 8040TIP3    H248316   6.751   2.361  10.859  1.2435  0.8350  0.2250
 8041TIP3   OH248317   6.261   5.128  12.731 -0.6807 -0.9884  0.3987
 8041TIP3    H148318   6.228   5.214  12.704 -0.0897 -0.6828  0.6307
 8041TIP3    H248319   6.231   5.118  12.822  0.1935 -0.5283  0.7498
 8042TIP3   OH248320   2.703   3.962  12.326 -0.1847  0.5937 -0.1598
 8042TIP3    H148321   2.789   3.956  12.283 -0.1402 -0.5944  0.0576
 8042TIP3    H248322   2.713   4.034  12.388  0.2757  1.2382 -0.9624
 8043TIP3   OH248323   0.412   0.529  10.304 -0.3659 -0.1899 -0.0652
 8043TIP3    H148324   0.433   0.528  10.397  0.2992  0.5038 -0.1878
 8043TIP3    H248325   0.343   0.464  10.293 -0.0814 -0.6548  0.8226
 8044TIP3   OH248326   4.315   3.134  12.671  0.0751 -0.0906  0.4442
 8044TIP3    H148327   4.337   3.198  12.738  1.1423  1.6604 -1.4445
 8044TIP3    H248328   4.385   3.069  12.675  1.3791  1.2154 -0.3858
 8045TIP3   OH248329   7.190   2.738  11.627  0.3817 -0.3110  0.0333
 8045TIP3    H148330   7.095   2.736  11.614  0.4417 -0.8439 -0.3249
 8045TIP3    H248331   7.215   2.647  11.640  0.7552 -0.1068  0.8424
 8046TIP3   OH248332   4.161   2.017  10.821  0.2471 -0.5261  0.1340
 8046TIP3    H148333   4.199   2.008  10.909  0.0019  1.3128  0.4595
 8046TIP3    H248334   4.077   1.971  10.827 -0.1501  0.2892  1.1326
 8047TIP3   OH248335   4.426   5.461  13.079  0.1134  0.2674  0.3699
 8047TIP3    H148336   4.433   5.396  13.009 -0.1543  0.8404 -0.1999
 8047TIP3    H248337   4.369   5.529  13.042 -0.8718  0.0952  1.5179
 8048TIP3   OH248338   3.355   7.507  11.922  0.5998 -0.3502 -0.1896
 8048TIP3    H148339   3.398   7.424  11.903 -1.0400 -0.7393 -2.7391
 8048TIP3    H248340   3.418   7.574  11.894  0.4447 -0.8653 -1.9064
 8049TIP3   OH248341   5.389   6.690  11.780 -0.0600  0.5359 -0.7156
 8049TIP3    H148342   5.321   6.754  11.801  0.8399  1.1088  0.6160
 8049TIP3    H248343   5.392   6.633  11.857 -0.3721 -0.6949 -1.5952
 8050TIP3   OH248344   1.821   6.528  11.400  0.2622 -0.4615  0.4826
 8050TIP3    H148345   1.740   6.533  11.450  0.6339  0.9235  0.9900
 8050TIP3    H248346   1.883   6.583  11.448  0.7323  0.6505 -1.2696
 8051TIP3   OH248347   5.598   1.636  11.712  0.1550 -0.0020  0.9861
 8051TIP3    H148348   5.507   1.653  11.739 -0.1238 -1.2145  0.8397
 8051TIP3    H248349   5.648   1.707  11.753 -0.8662  0.7593  0.9603
 8052TIP3   OH248350   6.008   3.252  11.157  0.2234 -0.1698 -0.1090
 8052TIP3    H148351   6.020   3.347  11.146  0.9666 -0.3718 -1.2944
 8052TIP3    H248352   6.081   3.225  11.213 -0.4767  0.0697  0.9424
 8053TIP3   OH248353   6.220   6.121  13.059  0.1890 -0.2827 -0.0321
 8053TIP3    H148354   6.140   6.141  13.010  0.2276 -0.6777 -0.2586
 8053TIP3    H248355   6.193   6.054  13.122  0.6126 -1.3230 -0.9331
 8054TIP3   OH248356   5.905   6.703  12.300 -0.0079 -0.1302 -0.0304
 8054TIP3    H148357   5.904   6.688  12.206 -0.4191  1.1889 -0.2555
 8054TIP3    H248358   5.813   6.708  12.325  0.0989 -0.5665  0.4537
 8055TIP3   OH248359   4.043   0.347  11.626 -0.4037 -0.1730  0.4156
 8055TIP3    H148360   4.070   0.395  11.705  1.2006  0.3789 -0.4238
 8055TIP3    H248361   3.970   0.292  11.655 -1.4295  1.7593  1.7442
 8056TIP3   OH248362   3.298   6.256  11.515  0.3555 -0.2302 -0.6997
 8056TIP3    H148363   3.299   6.267  11.610  1.5397  0.5377 -0.7919
 8056TIP3    H248364   3.205   6.248  11.493 -0.1608  2.4387  0.2051
 8057TIP3   OH248365   4.063   2.003  11.107 -0.2605  0.3441 -0.1092
 8057TIP3    H148366   4.038   2.043  11.190 -1.4632  0.1271 -0.3392
 8057TIP3    H248367   4.070   1.910  11.127  1.1740  0.4829  0.1192
 8058TIP3   OH248368   1.101   7.362  12.187  0.4032 -0.2920 -0.0047
 8058TIP3    H148369   1.039   7.402  12.127  1.3364 -0.0158 -0.8110
 8058TIP3    H248370   1.091   7.268  12.173  0.4630 -0.2345 -0.4419
 8059TIP3   OH248371   0.078   5.957  13.333 -0.5867  0.4919 -0.2257
 8059TIP3    H148372   0.023   6.035  13.344 -1.9111  0.0716 -2.9986
 8059TIP3    H248373   0.154   5.989  13.284 -1.5540 -0.0369 -2.1527
 8060TIP3   OH248374   5.086   4.994  10.741  0.4701 -1.0132  0.4360
 8060TIP3    H148375   5.125   4.926  10.686  0.6456  0.3768 -1.2889
 8060TIP3    H248376   5.157   5.058  10.753  0.0209 -0.6312  1.1257
 8061TIP3   OH248377   0.131   6.934  11.213  0.3171  0.0216 -0.5715
 8061TIP3    H148378   0.090   6.858  11.173 -0.0038  0.0604 -0.3192
 8061TIP3    H248379   0.084   7.009  11.178 -1.1383 -0.0085  1.1617
 8062TIP3   OH248380   7.166   7.429  13.268 -0.4462 -0.5489 -0.2194
 8062TIP3    H148381   7.093   7.401  13.323 -1.0699  1.9261  0.3246
 8062TIP3    H248382   7.125   7.462  13.188  0.2003 -0.6406 -0.5953
 8063TIP3   OH248383   1.877   1.642  12.464 -0.2217  0.1239  0.0239
 8063TIP3    H148384   1.931   1.668  12.538 -0.2140 -0.4680  0.2363
 8063TIP3    H248385   1.938   1.629  12.391 -0.1636  0.1865  0.0629
 8064TIP3   OH248386   3.963   7.605  10.971 -0.1177 -0.8936  0.4079
 8064TIP3    H148387   3.883   7.654  10.950 -0.7984 -2.0986  0.1248
 8064TIP3    H248388   4.033   7.667  10.951 -0.9638  0.4165  1.2553
 8065TIP3   OH248389   2.605   2.602  11.504 -0.5444 -0.6183 -0.2059
 8065TIP3    H148390   2.638   2.587  11.415 -1.8028  0.8568 -0.9804
 8065TIP3    H248391   2.597   2.515  11.542  1.1956 -1.2053 -1.0804
 8066TIP3   OH248392   6.928   0.580  10.756  0.0408  0.1195 -0.4229
 8066TIP3    H148393   6.842   0.619  10.771 -0.5355 -1.0671 -0.5780
 8066TIP3    H248394   6.919   0.533  10.674  0.1643 -1.8850  0.6632
 8067TIP3   OH248395   2.235   6.019  12.124  0.9494  0.0539  0.3978
 8067TIP3    H148396   2.225   6.047  12.216  2.0970  2.0029 -0.0066
 8067TIP3    H248397   2.330   6.010  12.112  0.8586  0.4144 -0.7294
 8068TIP3   OH248398   6.338   4.369  13.152  0.5877  0.6346  0.0800
 8068TIP3    H148399   6.244   4.351  13.154  0.6875 -0.0320 -0.8997
 8068TIP3    H248400   6.377   4.298  13.203  0.7912 -0.8146 -1.9791
 8069TIP3   OH248401   0.764   6.490  11.329  0.6578  0.3004 -0.2624
 8069TIP3    H148402   0.751   6.585  11.325 -1.9440  0.0386  0.3220
 8069TIP3    H248403   0.756   6.460  11.239  0.2375  0.5040 -0.2928
 8070TIP3   OH248404   1.533   7.336  11.312  0.1957 -0.4421 -0.4040
 8070TIP3    H148405   1.559   7.346  11.404 -0.9613  2.1662 -0.2795
 8070TIP3    H248406   1.615   7.341  11.264  0.7429 -1.0903  0.4231
 8071TIP3   OH248407   7.118   0.698  12.368  0.3482  0.0465  0.4179
 8071TIP3    H148408   7.062   0.709  12.445 -2.1825  0.3793 -1.3188
 8071TIP3    H248409   7.095   0.611  12.335 -1.5436  1.3520 -2.0112
 8072TIP3   OH248410   7.676   5.815  11.677 -0.0919  0.3771  0.3161
 8072TIP3    H148411   7.603   5.777  11.724  0.0175 -0.2205  0.0070
 8072TIP3    H248412   7.647   5.904  11.655 -0.3592  0.4661  0.9979
 8073TIP3   OH248413   6.504   4.964  12.290  0.1133 -0.1280 -0.0954
 8073TIP3    H148414   6.587   5.001  12.319 -0.1105  0.5738 -0.3226
 8073TIP3    H248415   6.445   4.976  12.364  0.3979 -1.3005  0.3428
 8074TIP3   OH248416   5.015   2.309  12.732  0.2627  0.2264 -0.4611
 8074TIP3    H148417   5.067   2.390  12.734  0.7452 -0.0842 -0.3152
 8074TIP3    H248418   5.027   2.270  12.818 -0.1012  0.0757 -0.4747
 8075TIP3   OH248419   3.265   0.000  12.568  0.1917  0.2354 -0.5468
 8075TIP3    H148420   3.223   0.085  12.582 -2.3036 -1.2168  1.7092
 8075TIP3    H248421   3.337  -0.002  12.631 -1.3662 -0.2492  1.2966
 8076TIP3   OH248422   1.418   4.399  11.738 -0.2195 -0.3744  0.8881
 8076TIP3    H148423   1.439   4.369  11.826 -0.4561 -0.6474  0.8505
 8076TIP3    H248424   1.503   4.422  11.699  0.3742 -3.7962 -0.1495
 8077TIP3   OH248425   0.158   5.663  12.336 -0.1356  0.1210 -0.4340
 8077TIP3    H148426   0.150   5.577  12.375 -0.5129  0.2684 -0.1849
 8077TIP3    H248427   0.072   5.704  12.349 -0.4420 -0.0171 -1.8631
 8078TIP3   OH248428   2.108   1.327  12.330 -0.1261 -0.0861  0.5253
 8078TIP3    H148429   2.190   1.294  12.367  0.0199  0.0289  0.3032
 8078TIP3    H248430   2.114   1.308  12.236  0.0183  0.6840  0.3718
 8079TIP3   OH248431   6.553   6.797  11.769 -0.5122  0.1227  0.0092
 8079TIP3    H148432   6.532   6.854  11.695  1.1704 -2.4708 -2.7201
 8079TIP3    H248433   6.612   6.731  11.732  1.1174 -0.8922  3.9170
 8080TIP3   OH248434   7.234   2.147  12.355 -0.1481  0.2614  0.1031
 8080TIP3    H148435   7.238   2.206  12.280  0.3723  0.9743  0.6767
 8080TIP3    H248436   7.174   2.190  12.416 -0.3567 -0.1785  0.2099
 8081TIP3   OH248437   5.812   1.041  11.984  0.4144  0.0001 -0.1695
 8081TIP3    H148438   5.856   1.064  12.065  0.9928 -3.0271  0.4937
 8081TIP3    H248439   5.825   0.946  11.975 -0.2586  0.0853 -3.4231
 8082TIP3   OH248440   3.118   1.195  11.629  0.1490  0.5460  0.1688
 8082TIP3    H148441   3.134   1.156  11.715  3.1761 -0.1841 -0.6274
 8082TIP3    H248442   3.152   1.131  11.567  0.9591  2.4242 -1.4149
 8083TIP3   OH248443   4.445   5.477  12.630  0.1968  0.0180  0.5557
 8083TIP3    H148444   4.510   5.495  12.698 -0.7065  0.3873  1.3409
 8083TIP3    H248445   4.484   5.512  12.550  2.5177 -2.8186  0.2666
 8084TIP3   OH248446   0.431   3.155  12.940 -0.2933 -0.0985  0.5904
 8084TIP3    H148447   0.442   3.223  13.006 -1.8972 -1.0036  1.8481
 8084TIP3    H248448   0.506   3.096  12.954  1.3070  1.4998 -0.7388
 8085TIP3   OH248449   5.378   4.418  11.833 -0.1211 -0.1148 -0.1451
 8085TIP3    H148450   5.412   4.396  11.919  0.0216  2.8470  0.6805
 8085TIP3    H248451   5.291   4.455  11.850 -1.3179 -2.0240 -1.6238
 8086TIP3   OH248452   0.991   6.677  13.792  0.8373  0.8528 -0.1723
 8086TIP3    H148453   1.074   6.720  13.772 -0.4339  3.9303  0.5043
 8086TIP3    H248454   0.968   6.709  13.879 -0.3711 -1.1629  0.3107
 8087TIP3   OH248455   0.932   6.376  13.424  0.3022  0.6789 -0.1203
 8087TIP3    H148456   0.990   6.300  13.414 -1.4449 -0.9697  1.5087
 8087TIP3    H248457   0.900   6.393  13.335  2.5877  1.1463 -0.9281
 8088TIP3   OH248458   2.572   3.715  10.879  0.1089  0.1544 -0.5133
 8088TIP3    H148459   2.510   3.785  10.858 -0.3617 -0.3861 -0.9390
 8088TIP3    H248460   2.654   3.743  10.838 -0.0460  0.5066 -0.5882
 8089TIP3   OH248461   2.242   6.622  11.706 -0.4833 -0.6887  0.6211
 8089TIP3    H148462   2.228   6.698  11.763 -1.4400  0.5043 -1.1102
 8089TIP3    H248463   2.266   6.551  11.766 -2.9169  0.0836  2.6731
 8090TIP3   OH248464   3.133   1.735  11.719  0.3643 -0.2542  0.1930
 8090TIP3    H148465   3.115   1.825  11.744  0.6268 -0.1579  0.0415
 8090TIP3    H248466   3.229   1.727  11.726  0.5262 -0.0222 -1.4397
 8091TIP3   OH248467   5.587   6.380  12.810  0.3785  0.1116  0.0306
 8091TIP3    H148468   5.642   6.355  12.735 -1.4535  3.2182 -2.5809
 8091TIP3    H248469   5.625   6.462  12.841 -0.3501  0.1168  0.9374
 8092TIP3   OH248470   0.169   0.934  11.919  0.6073  0.0076  0.0205
 8092TIP3    H148471   0.154   0.871  11.848 -0.8827  0.4623 -0.1083
 8092TIP3    H248472   0.259   0.964  11.906  1.2721 -1.8917 -0.0605
 8093TIP3   OH248473   5.818   0.012  11.178 -0.3928 -0.8117 -0.0021
 8093TIP3    H148474   5.770   0.090  11.152 -1.7762 -2.2305 -2.0347
 8093TIP3    H248475   5.853   0.033  11.264 -1.2123  1.8029 -0.2225
 8094TIP3   OH248476   6.188   3.038  12.164 -0.0472  0.2132 -0.4241
 8094TIP3    H148477   6.148   3.119  12.133 -0.4055  1.0705  2.0799
 8094TIP3    H248478   6.115   2.977  12.176 -0.1696  0.5268  0.5128
 8095TIP3   OH248479   3.914   1.903  10.839  0.1200  0.4394 -0.3631
 8095TIP3    H148480   3.860   1.931  10.913 -2.0500  0.8746 -2.0129
 8095TIP3    H248481   3.916   1.807  10.846 -1.6249  0.3443 -0.7178
 8096TIP3   OH248482   1.381   2.668  12.515  0.0495 -0.1648 -0.3387
 8096TIP3    H148483   1.296   2.632  12.491 -0.2187 -0.1964  0.6445
 8096TIP3    H248484   1.361   2.738  12.576  0.5127  2.1364 -2.6496
 8097TIP3   OH248485   5.673   6.148  11.784  0.4271 -0.1095  0.1579
 8097TIP3    H148486   5.765   6.123  11.778  0.8817  1.3375  0.7987
 8097TIP3    H248487   5.626   6.065  11.778  1.8147 -0.9973  0.9229
 8098TIP3   OH248488   3.126   0.874  12.900  0.0797  0.0966  0.3342
 8098TIP3    H148489   3.063   0.946  12.900 -0.3062 -0.2289 -0.4705
 8098TIP3    H248490   3.211   0.917  12.884  0.2589  0.6685  2.5472
 8099TIP3   OH248491   6.026   3.824  11.000 -0.3243  0.1370 -0.2655
 8099TIP3    H148492   5.980   3.842  11.082  0.3793 -0.2348  0.2278
 8099TIP3    H248493   6.086   3.898  10.991 -0.6132  0.3307 -0.6053
 8100TIP3   OH248494   2.130   3.156  11.324 -0.4175 -0.1610 -0.4992
 8100TIP3    H148495   2.181   3.220  11.373 -1.5135  1.8260 -1.8070
 8100TIP3    H248496   2.069   3.121  11.388 -0.6994  1.1415 -0.0148
 8101TIP3   OH248497   6.601   7.574  11.376 -0.3593  0.2511  0.4813
 8101TIP3    H148498   6.517   7.532  11.356 -0.2382  0.7205 -1.1290
 8101TIP3    H248499   6.630   7.610  11.293  0.6190  1.5979  1.3657
 8102TIP3   OH248500   4.833   5.897  13.068 -0.1404 -0.0028 -0.4795
 8102TIP3    H148501   4.890   5.835  13.114  2.7139  1.1662 -2.1391
 8102TIP3    H248502   4.813   5.853  12.985  0.4098  0.5520 -0.9162
 8103TIP3   OH248503   7.488   5.957  12.020 -0.3875  0.0961  0.1790
 8103TIP3    H148504   7.397   5.929  12.025 -0.3365  0.0245  0.7743
 8103TIP3    H248505   7.537   5.887  12.065  0.0791 -0.4031 -1.0717
 8104TIP3   OH248506   1.167   5.914  13.378  0.9426 -1.3038 -0.0882
 8104TIP3    H148507   1.230   5.865  13.326 -1.2300 -3.4061 -0.9151
 8104TIP3    H248508   1.083   5.903  13.332 -0.4124 -0.2267  1.9452
 8105TIP3   OH248509   3.030   5.209  11.252 -0.5511 -0.3275 -0.9098
 8105TIP3    H148510   3.035   5.210  11.156 -0.7019 -0.8924 -0.9244
 8105TIP3    H248511   2.989   5.125  11.274  2.0877 -1.5552 -0.2402
 8106TIP3   OH248512   4.607   0.720  10.371 -0.4170 -0.2588  0.6583
 8106TIP3    H148513   4.669   0.788  10.397 -0.1009 -0.3323  0.0912
 8106TIP3    H248514   4.611   0.657  10.443  2.1397 -1.6034 -0.5158
 8107TIP3   OH248515   0.452   5.497  12.615  0.1471  0.3177  0.2645
 8107TIP3    H148516   0.447   5.402  12.610  0.2887  0.2493  1.1482
 8107TIP3    H248517   0.546   5.516  12.620  0.1789  0.5863 -1.0371
 8108TIP3   OH248518   6.264   1.396  12.137  0.1266  0.1848 -0.0589
 8108TIP3    H148519   6.266   1.466  12.073 -0.1984  1.1243  0.9207
 8108TIP3    H248520   6.354   1.364  12.141  0.1937  0.2689 -0.7950
 8109TIP3   OH248521   2.721   3.314  10.661  0.4499 -0.2909 -0.4196
 8109TIP3    H148522   2.792   3.372  10.688  0.1168 -0.1387  0.1542
 8109TIP3    H248523   2.644   3.370  10.658  0.3698 -0.4352 -1.1346
 8110TIP3   OH248524   6.508   2.768  11.724  0.2530 -0.3315  0.1623
 8110TIP3    H148525   6.471   2.697  11.672 -2.3085  0.4912  0.7576
 8110TIP3    H248526   6.512   2.734  11.813  0.4381 -0.2089  0.2031
 8111TIP3   OH248527   3.075   6.847  10.963 -0.4105 -0.2544 -0.1414
 8111TIP3    H148528   3.116   6.829  11.048  1.4267  0.7628 -0.7689
 8111TIP3    H248529   3.029   6.766  10.941 -0.7158 -0.6189  1.6977
 8112TIP3   OH248530   0.175   0.174  12.882 -0.0808 -0.3726  0.0678
 8112TIP3    H148531   0.156   0.107  12.817  1.9282 -1.5983  0.6813
 8112TIP3    H248532   0.153   0.134  12.966  2.2570 -0.7947  0.5473
 8113TIP3   OH248533   0.433   5.693  12.411 -0.4330  0.3651 -0.2067
 8113TIP3    H148534   0.345   5.695  12.372 -1.7130  0.3029  2.4870
 8113TIP3    H248535   0.426   5.631  12.483  1.9859  0.0328 -0.1929
 8114TIP3   OH248536   2.491   4.674  12.334  0.5603  0.3174  0.2119
 8114TIP3    H148537   2.522   4.757  12.371 -0.4405  0.7021  0.2120
 8114TIP3    H248538   2.534   4.607  12.388  0.8888  0.8373  0.6156
 8115TIP3   OH248539   4.517   3.902  11.915  0.0776  0.2367  0.2427
 8115TIP3    H148540   4.437   3.900  11.863  0.2790 -1.1445 -0.0442
 8115TIP3    H248541   4.505   3.975  11.976 -2.1105 -0.9475  1.3356
 8116TIP3   OH248542   0.020   5.596  12.964  0.3485  0.1219  0.1532
 8116TIP3    H148543   0.106   5.577  13.002  0.5484  1.4835  0.4431
 8116TIP3    H248544  -0.015   5.666  13.019 -0.6094  0.1310 -0.4460
 8117TIP3   OH248545   7.278   1.829  12.552  0.1705  0.6789 -0.3319
 8117TIP3    H148546   7.207   1.893  12.560 -2.6795 -2.0139 -1.8552
 8117TIP3    H248547   7.295   1.823  12.458  0.9745 -0.1963 -0.1509
 8118TIP3   OH248548   3.054   6.582  11.464 -0.4069  0.3980  0.0342
 8118TIP3    H148549   2.999   6.546  11.534  0.0932  1.5270  1.0604
 8118TIP3    H248550   3.091   6.663  11.502  0.6147  0.5540 -1.2125
 8119TIP3   OH248551   2.960   5.474  11.332 -0.0125  0.4269 -0.1803
 8119TIP3    H148552   2.951   5.379  11.325 -1.5426  0.5859 -0.6307
 8119TIP3    H248553   3.039   5.486  11.385  0.5413 -1.0771 -0.6196
 8120TIP3   OH248554   5.435   2.528  11.054 -0.1985 -0.1147 -0.1784
 8120TIP3    H148555   5.456   2.449  11.004 -0.4361 -0.4116  0.1910
 8120TIP3    H248556   5.341   2.540  11.041 -0.2773 -0.2455  0.2759
 8121TIP3   OH248557   2.727   7.302  10.722 -0.5132  0.0924  0.2464
 8121TIP3    H148558   2.798   7.362  10.699 -0.5477  0.3390  0.7557
 8121TIP3    H248559   2.684   7.344  10.797 -0.0662 -0.9246  1.1069
 8122TIP3   OH248560   5.513   3.480  16.707 -0.4589  0.5706 -0.4435
 8122TIP3    H148561   5.559   3.495  16.790 -1.2608  0.0970  0.1024
 8122TIP3    H248562   5.569   3.420  16.658 -0.3270  0.2699  0.0718
 8123TIP3   OH248563   7.164   4.796  11.728  0.1506  0.1674 -0.1307
 8123TIP3    H148564   7.225   4.771  11.797 -0.3261 -3.3870 -0.8318
 8123TIP3    H248565   7.220   4.808  11.651  0.2445 -0.5677 -0.1863
 8124TIP3   OH248566   6.371   2.129  10.975 -0.7412 -0.7514 -0.6413
 8124TIP3    H148567   6.292   2.145  10.923 -0.2280 -0.9264 -1.4955
 8124TIP3    H248568   6.384   2.210  11.023 -0.8368 -0.3252 -1.3190
 8125TIP3   OH248569   0.086   0.947  11.369 -0.6052  0.0610 -0.0906
 8125TIP3    H148570   0.096   1.036  11.403  0.1486  0.7401 -1.9399
 8125TIP3    H248571   0.090   0.891  11.447  0.6291  1.5301  0.9710
 8126TIP3   OH248572   1.601   7.507  12.723  0.5278 -0.0672 -0.1015
 8126TIP3    H148573   1.589   7.555  12.641  0.3668  2.8312  1.4828
 8126TIP3    H248574   1.523   7.450  12.729  0.1272  0.2906 -1.5342
 8127TIP3   OH248575   6.952   5.396  12.626 -0.0118  0.2796 -0.3447
 8127TIP3    H148576   6.923   5.480  12.662 -2.0453 -0.5113 -0.0513
 8127TIP3    H248577   6.910   5.390  12.540  2.6422  0.9148 -1.8284
 8128TIP3   OH248578   3.244   6.483  11.986 -0.5613 -0.3172 -0.4748
 8128TIP3    H148579   3.322   6.536  11.969 -0.6915  0.1006  0.2267
 8128TIP3    H248580   3.257   6.450  12.075 -1.0258 -0.5323 -0.4864
 8129TIP3   OH248581   6.380   5.789  11.406  0.5347  0.2364  0.6358
 8129TIP3    H148582   6.416   5.877  11.391 -1.2694  0.6774 -1.5677
 8129TIP3    H248583   6.324   5.773  11.330  0.4416 -2.6532  1.2342
 8130TIP3   OH248584   7.479   1.975  11.496 -0.2519 -0.4171 -0.0789
 8130TIP3    H148585   7.395   2.010  11.526 -0.2281  0.5207 -1.0479
 8130TIP3    H248586   7.461   1.884  11.475 -0.9961 -0.2680 -0.1188
 8131TIP3   OH248587   1.822   4.872  12.398 -0.2251 -0.0126  0.5108
 8131TIP3    H148588   1.840   4.779  12.385 -1.8435 -0.4446  1.0888
 8131TIP3    H248589   1.902   4.917  12.370  0.0640 -1.4755 -1.1816
 8132TIP3   OH248590   1.820   2.421  10.637  0.2741 -0.3462  0.5777
 8132TIP3    H148591   1.775   2.380  10.711  1.1815 -1.3848  0.5888
 8132TIP3    H248592   1.823   2.514  10.659 -0.8521 -0.4122  1.0929
 8133TIP3   OH248593   4.061   4.282  11.925 -0.1949  0.3007  0.0316
 8133TIP3    H148594   4.063   4.377  11.928  0.3509  0.3725  4.8702
 8133TIP3    H248595   3.969   4.259  11.938 -0.0305  0.2599  1.2308
 8134TIP3   OH248596   5.715   4.669  18.222  0.4189 -0.1782 -0.4591
 8134TIP3    H148597   5.747   4.633  18.305  0.4540 -0.0359 -0.4103
 8134TIP3    H248598   5.726   4.763  18.231  0.8286 -0.1919 -0.7960
 8135TIP3   OH248599   5.749   7.310  11.989 -0.2253 -0.0285  0.0874
 8135TIP3    H148600   5.819   7.292  12.053 -0.6281 -0.2625  0.4683
 8135TIP3    H248601   5.785   7.279  11.906 -0.7480 -2.4056  0.6523
 8136TIP3   OH248602   5.006   6.650  12.732 -0.1087  0.4616 -0.2402
 8136TIP3    H148603   5.033   6.738  12.758 -0.1509  0.2242  0.6097
 8136TIP3    H248604   5.042   6.640  12.643 -0.7310  1.6065 -0.6432
 8137TIP3   OH248605   0.086   0.952  10.540 -0.1322  0.1299  0.1133
 8137TIP3    H148606   0.152   1.019  10.522 -1.4613  1.0758 -1.6293
 8137TIP3    H248607   0.003   0.997  10.528 -1.0808 -1.6844 -0.4989
 8138TIP3   OH248608   2.118   1.055  11.314  0.1221  0.3806 -0.5426
 8138TIP3    H148609   2.165   1.083  11.235  1.8665 -1.5306 -0.2797
 8138TIP3    H248610   2.184   1.059  11.383 -0.6324 -0.4969  0.2550
 8139TIP3   OH248611   5.662   3.887  12.104  0.3365 -0.0907 -0.0137
 8139TIP3    H148612   5.718   3.810  12.114 -0.6180 -0.8879 -0.5910
 8139TIP3    H248613   5.663   3.928  12.190  0.7192 -0.8607  0.3616
 8140TIP3   OH248614   2.993   3.571  11.665 -0.1143  0.2059  0.6321
 8140TIP3    H148615   2.968   3.644  11.722 -1.7644 -0.6194  1.0275
 8140TIP3    H248616   2.974   3.493  11.717  1.5186 -0.5523  0.1781
 8141TIP3   OH248617   3.141   4.949  13.093 -0.9969  0.1767  0.4225
 8141TIP3    H148618   3.156   4.855  13.108 -0.7258  0.3420  1.2030
 8141TIP3    H248619   3.212   4.992  13.140 -0.6623  0.7541 -0.5766
 8142TIP3   OH248620   7.652   6.384  10.436  0.6545 -0.6103  0.4626
 8142TIP3    H148621   7.558   6.367  10.426  0.2460  1.0617  1.0311
 8142TIP3    H248622   7.694   6.330  10.368 -1.0163  1.3310 -2.3415
 8143TIP3   OH248623   3.540   2.857  11.758 -0.4003  0.1282  0.2439
 8143TIP3    H148624   3.589   2.936  11.779  1.1556 -0.0476 -2.3571
 8143TIP3    H248625   3.462   2.888  11.713  1.4042  0.2773 -3.0898
 8144TIP3   OH248626   6.327   5.261  11.126  0.0016 -0.8575 -0.3334
 8144TIP3    H148627   6.286   5.221  11.049 -0.0007 -1.6941  0.0884
 8144TIP3    H248628   6.407   5.209  11.140  0.7503  0.1964 -0.6171
 8145TIP3   OH248629   1.148   6.858  11.576 -0.3312  0.1601 -0.7061
 8145TIP3    H148630   1.103   6.857  11.492 -0.8007 -2.2246 -0.4886
 8145TIP3    H248631   1.089   6.906  11.634 -0.3473  1.1741 -1.5354
 8146TIP3   OH248632   3.639   4.746  11.366  0.2164  0.8671  0.1637
 8146TIP3    H148633   3.611   4.775  11.453 -0.1046  1.4752 -0.1413
 8146TIP3    H248634   3.676   4.658  11.381 -1.3096  0.2833  0.6542
 8147TIP3   OH248635   2.070   2.888  11.134 -0.3071  0.7459 -0.2475
 8147TIP3    H148636   2.031   2.924  11.214 -0.0799 -0.1715  0.2911
 8147TIP3    H248637   2.006   2.824  11.102  1.3953 -2.0989  1.6233
 8148TIP3   OH248638   5.153   7.466  11.456  0.4061  0.1333 -0.1414
 8148TIP3    H148639   5.111   7.392  11.413 -1.5569  0.5300  0.9396
 8148TIP3    H248640   5.208   7.427  11.524 -0.9694 -0.3600  0.7188
 8149TIP3   OH248641   2.860   3.541  12.533 -0.0824  0.4431 -0.1368
 8149TIP3    H148642   2.866   3.507  12.622 -1.2161 -1.7875 -0.8489
 8149TIP3    H248643   2.896   3.630  12.539  1.1992 -0.1547  2.2210
 8150TIP3   OH248644   1.479   4.647  10.907 -0.6648  0.2741  0.5727
 8150TIP3    H148645   1.405   4.699  10.874  0.4870  2.2509  0.9318
 8150TIP3    H248646   1.484   4.670  11.000  2.4604  3.0102 -0.0886
 8151TIP3   OH248647   2.350   2.628  11.597  0.1072  0.3108 -0.3498
 8151TIP3    H148648   2.350   2.534  11.618 -0.9101  0.1707 -0.8745
 8151TIP3    H248649   2.433   2.644  11.554  1.9720  0.4423  2.9383
 8152TIP3   OH248650   3.410   2.308  11.723 -0.3422 -0.6073  0.0307
 8152TIP3    H148651   3.500   2.307  11.690 -0.0024  0.4887  0.8490
 8152TIP3    H248652   3.398   2.221  11.761  0.1436 -0.9828 -0.6430
 8153TIP3   OH248653   4.781   4.976  11.084  0.1776 -0.1564  0.5239
 8153TIP3    H148654   4.688   4.970  11.102  0.3807 -0.0808  1.6307
 8153TIP3    H248655   4.819   5.014  11.163  0.6847  3.3595 -1.1973
 8154TIP3   OH248656   1.888   6.704  12.963 -0.5018  0.0302  0.2205
 8154TIP3    H148657   1.889   6.609  12.961 -0.6298 -0.0084  1.3377
 8154TIP3    H248658   1.803   6.727  13.000  0.3437  0.4927  1.9898
 8155TIP3   OH248659   4.085   5.551  10.722 -0.5189 -0.2429 -0.0835
 8155TIP3    H148660   4.172   5.576  10.693 -1.0784  1.6245 -0.2640
 8155TIP3    H248661   4.099   5.474  10.778  1.1466 -0.3671 -0.6221
 8156TIP3   OH248662   5.852   4.481  12.163  0.2160 -0.1758 -0.4059
 8156TIP3    H148663   5.808   4.398  12.143  0.3509 -0.0281 -1.3594
 8156TIP3    H248664   5.866   4.522  12.077 -2.0293  1.9642  0.1336
 8157TIP3   OH248665   3.100   4.848  12.425 -0.3619  0.2846  0.4871
 8157TIP3    H148666   3.182   4.807  12.453 -0.0579  1.7369  1.8877
 8157TIP3    H248667   3.080   4.807  12.341  1.7250 -0.1865  0.1618
 8158TIP3   OH248668   3.801   2.586  10.637 -0.4186  0.3102  0.5919
 8158TIP3    H148669   3.725   2.550  10.683 -1.4549  1.5756 -0.0479
 8158TIP3    H248670   3.818   2.525  10.565 -0.6874 -0.1001  0.8796
 8159TIP3   OH248671   6.860   6.221  10.331  0.1716 -0.2371 -0.2931
 8159TIP3    H148672   6.832   6.241  10.241  0.1243 -0.7243 -0.3941
 8159TIP3    H248673   6.850   6.303  10.378 -0.4738 -0.1460 -0.5707
 8160TIP3   OH248674   1.559   5.269  11.777  0.2023 -0.3011  0.7249
 8160TIP3    H148675   1.502   5.329  11.729  0.0891  0.1622  1.4249
 8160TIP3    H248676   1.632   5.324  11.806  1.6134 -1.0901 -1.0892
 8161TIP3   OH248677   6.136   1.070  11.864 -0.3707 -0.1763  0.4867
 8161TIP3    H148678   6.168   1.110  11.945  0.9527 -0.9531  0.3750
 8161TIP3    H248679   6.120   0.979  11.886 -0.2584 -0.3345 -0.0618
 8162TIP3   OH248680   0.488   3.199  11.441 -0.0903 -0.6539  0.1458
 8162TIP3    H148681   0.415   3.174  11.498 -0.1914  0.6518  0.6229
 8162TIP3    H248682   0.560   3.143  11.468 -0.5238 -0.9800  0.6438
 8163TIP3   OH248683   0.860   5.029  12.568 -0.1810  0.3440 -0.4515
 8163TIP3    H148684   0.814   4.951  12.536  1.3819 -1.1128  0.6712
 8163TIP3    H248685   0.922   5.051  12.499  1.1591 -1.0299  0.2467
 8164TIP3   OH248686   6.275   0.783  10.829  0.7241  0.1056 -0.1536
 8164TIP3    H148687   6.340   0.756  10.765  0.0498  2.1838 -1.8298
 8164TIP3    H248688   6.195   0.738  10.802  0.6680  0.2115 -0.1655
 8165TIP3   OH248689   1.224   4.202  11.612  0.0843 -0.2867  0.4555
 8165TIP3    H148690   1.284   4.130  11.593 -1.1560 -0.7135 -2.4249
 8165TIP3    H248691   1.273   4.281  11.589 -0.0917 -0.5742 -0.9979
 8166TIP3   OH248692   4.538   0.660  10.732 -0.0909 -0.2185 -0.2813
 8166TIP3    H148693   4.588   0.602  10.675  0.6886 -0.6349  0.7943
 8166TIP3    H248694   4.553   0.748  10.696  1.2403 -0.3643 -0.1213
 8167TIP3   OH248695   2.454   1.874  12.377 -0.7188  0.1093  0.1601
 8167TIP3    H148696   2.381   1.838  12.428 -1.3937 -0.6211 -1.2774
 8167TIP3    H248697   2.461   1.817  12.301  0.9529  0.5574 -0.0568
 8168TIP3   OH248698   0.348   4.559  11.747 -0.0429 -0.3867 -0.3912
 8168TIP3    H148699   0.423   4.565  11.806 -1.1616  1.6054  0.9549
 8168TIP3    H248700   0.351   4.640  11.696 -1.0512 -0.4581 -0.5766
 8169TIP3   OH248701   6.728   3.834  10.984 -0.1903  0.5456  0.1258
 8169TIP3    H148702   6.801   3.831  10.921 -0.9837  0.0646 -0.7950
 8169TIP3    H248703   6.736   3.753  11.034 -0.7100 -0.0205 -0.6947
 8170TIP3   OH248704   3.683   0.213  12.139 -0.3680 -0.1691  0.1194
 8170TIP3    H148705   3.752   0.154  12.169  1.3048  1.8303  0.4326
 8170TIP3    H248706   3.672   0.276  12.210 -2.4446 -0.3140  0.0012
 8171TIP3   OH248707   1.685   4.378  11.710  1.0089 -0.3925 -0.0274
 8171TIP3    H148708   1.729   4.309  11.759  0.9913 -0.1858  0.2851
 8171TIP3    H248709   1.739   4.456  11.725  1.2205 -0.4128 -0.6592
 8172TIP3   OH248710   7.047   3.420  11.009 -0.6194  0.1234  0.2788
 8172TIP3    H148711   7.121   3.453  11.061  0.2110  0.5387 -1.1363
 8172TIP3    H248712   6.972   3.428  11.068  0.0985  1.6032  1.0448
 8173TIP3   OH248713   6.750   5.840  11.689  0.1835  0.0002  0.0979
 8173TIP3    H148714   6.699   5.761  11.703  1.9934 -0.8599  2.3993
 8173TIP3    H248715   6.812   5.843  11.762  0.5653  3.2691 -0.1899
 8174TIP3   OH248716   3.932   5.797  10.734  0.2097  0.4768 -0.5664
 8174TIP3    H148717   3.958   5.709  10.706  0.3842  0.2138  0.3941
 8174TIP3    H248718   3.979   5.811  10.816 -0.2208  1.2644 -0.4444
 8175TIP3   OH248719   0.452   7.568  11.597 -0.5162  0.4769 -0.3291
 8175TIP3    H148720   0.384   7.515  11.639 -0.3994 -1.0782 -2.0211
 8175TIP3    H248721   0.405   7.619  11.532 -0.2426  0.3605 -0.6159
 8176TIP3   OH248722   3.275   1.695  12.640  0.1964 -0.6252  0.3278
 8176TIP3    H148723   3.224   1.614  12.642  0.8065 -1.0258 -0.2442
 8176TIP3    H248724   3.321   1.696  12.724  0.2936 -0.9357  0.2787
 8177TIP3   OH248725   0.495   3.005  12.499 -0.1496 -0.1330  1.0458
 8177TIP3    H148726   0.543   3.084  12.474 -0.1249  0.7672  3.5686
 8177TIP3    H248727   0.402   3.030  12.490 -0.1391 -0.3467  0.3632
 8178TIP3   OH248728   1.579   4.565  12.540 -0.2224 -0.7427 -0.3614
 8178TIP3    H148729   1.613   4.654  12.537  0.4047 -0.9771 -0.2030
 8178TIP3    H248730   1.511   4.564  12.472 -0.1724 -0.1757 -0.4294
 8179TIP3   OH248731   2.265   2.148  10.548 -0.0796 -0.3526  0.1129
 8179TIP3    H148732   2.181   2.192  10.556 -0.0067  0.2038 -1.7431
 8179TIP3    H248733   2.245   2.055  10.562 -0.3677  0.0695  3.1963
 8180TIP3   OH248734   4.571   7.048  11.859 -0.5803 -0.2127  0.4899
 8180TIP3    H148735   4.530   6.965  11.881 -2.8826  0.8540  0.4377
 8180TIP3    H248736   4.574   7.097  11.942 -0.7292  0.2677  0.2170
 8181TIP3   OH248737   3.725   1.425  12.455  0.3334  0.8408  0.0988
 8181TIP3    H148738   3.734   1.521  12.456 -2.4398  1.2272 -0.8022
 8181TIP3    H248739   3.728   1.402  12.363  0.6354  0.1057  0.2897
 8182TIP3   OH248740   5.352   4.161  12.552  0.1320  0.0517 -0.0943
 8182TIP3    H148741   5.357   4.081  12.501 -1.0400 -0.0291 -0.1117
 8182TIP3    H248742   5.259   4.170  12.575  0.1859  1.5328 -0.3174
 8183TIP3   OH248743   4.528   6.826  12.813 -0.0125  0.2187  0.0350
 8183TIP3    H148744   4.607   6.869  12.781  0.1203 -0.4083 -0.4881
 8183TIP3    H248745   4.527   6.844  12.907  0.0913  1.2767 -0.1513
 8184TIP3   OH248746   7.537   1.072  12.551  0.1342  0.4942 -0.6297
 8184TIP3    H148747   7.485   1.103  12.626 -1.5656 -0.6279 -1.2664
 8184TIP3    H248748   7.541   0.977  12.563  1.2372  0.4725 -1.1155
 8185TIP3   OH248749   4.493   3.771  12.307 -0.2488 -0.6285 -0.5214
 8185TIP3    H148750   4.414   3.825  12.305  0.7003  0.8220 -0.5762
 8185TIP3    H248751   4.502   3.746  12.399  0.2659  0.8546 -0.1388
 8186TIP3   OH248752   2.374   4.836  10.628  0.0077 -0.4108 -0.1056
 8186TIP3    H148753   2.402   4.815  10.717 -1.0105  0.6687  0.4921
 8186TIP3    H248754   2.455   4.862  10.584  0.6281 -1.6084  0.2948
 8187TIP3   OH248755   7.153   5.946  11.966 -0.3523  0.3575 -0.4616
 8187TIP3    H148756   7.098   5.945  12.044  0.2926 -1.7709  0.0464
 8187TIP3    H248757   7.189   6.034  11.962 -0.3618  0.5012  1.7006
 8188TIP3   OH248758   2.056   5.878  11.438  0.3828  0.4931 -0.0014
 8188TIP3    H148759   2.032   5.786  11.425 -0.4085  0.7974 -0.7506
 8188TIP3    H248760   2.129   5.874  11.500 -0.3172 -0.5837  0.8162
 8189TIP3   OH248761   7.405   0.269  12.338  0.0174 -0.1060 -0.2098
 8189TIP3    H148762   7.394   0.294  12.247 -1.6577  0.1753  0.0381
 8189TIP3    H248763   7.411   0.173  12.336  0.6156 -0.0601 -0.6617
 8190TIP3   OH248764   7.668   5.310  12.933 -0.1739  0.4301 -0.2187
 8190TIP3    H148765   7.744   5.292  12.877 -0.2084  0.4591 -0.2741
 8190TIP3    H248766   7.662   5.405  12.935 -1.3522  0.4237 -1.7439
 8191TIP3   OH248767   5.492   6.209  10.355  0.2270  0.0564 -0.2186
 8191TIP3    H148768   5.563   6.250  10.405 -0.8595  0.3553  1.1254
 8191TIP3    H248769   5.485   6.120  10.391  0.6940 -0.3799 -1.1744
 8192TIP3   OH248770   0.742   7.170  12.288 -0.4259 -0.4653  0.4479
 8192TIP3    H148771   0.800   7.152  12.361 -1.4601 -0.8048  1.2081
 8192TIP3    H248772   0.764   7.103  12.223  1.6647  0.8459 -0.3062
 8193TIP3   OH248773   4.157   0.919  11.771 -0.3127  0.0494  0.5955
 8193TIP3    H148774   4.155   0.842  11.713  0.2352 -0.0889  0.7618
 8193TIP3    H248775   4.158   0.882  11.859 -1.8820  0.2609  0.7352
 8194TIP3   OH248776   5.839   1.040  12.272 -0.6430 -0.5299 -0.4620
 8194TIP3    H148777   5.865   1.065  12.361  0.9308 -1.8223 -0.5199
 8194TIP3    H248778   5.753   1.001  12.282  0.3092 -2.4428  0.8267
 8195TIP3   OH248779   0.647   3.002  12.983 -0.4537 -0.1813 -0.1249
 8195TIP3    H148780   0.700   3.066  12.936  0.0459  0.1383  0.8340
 8195TIP3    H248781   0.685   2.917  12.959  0.7515  0.0531  0.7916
 8196TIP3   OH248782   1.444   2.316  11.321  0.0667  0.1149 -0.6123
 8196TIP3    H148783   1.511   2.320  11.252  0.0391 -1.3752 -0.7566
 8196TIP3    H248784   1.493   2.295  11.400 -0.2933 -2.1557 -0.9231
 8197TIP3   OH248785   7.658   0.852  12.314  0.0188 -0.0194 -0.0451
 8197TIP3    H148786   7.635   0.822  12.402 -0.8395  0.6080 -0.0377
 8197TIP3    H248787   7.593   0.920  12.295  0.9740  0.7372 -0.6601
 8198TIP3   OH248788   4.942   1.526  12.449 -0.0007 -0.1003 -0.2994
 8198TIP3    H148789   4.996   1.454  12.416 -0.1073  0.7213 -2.4487
 8198TIP3    H248790   4.993   1.564  12.520  0.8380 -1.2264 -0.2674
 8199TIP3   OH248791   0.252   1.380  13.209  0.5741 -0.1077  0.2035
 8199TIP3    H148792   0.332   1.400  13.161 -0.2232  0.5187 -0.8895
 8199TIP3    H248793   0.236   1.287  13.191  0.8353 -0.1332  0.1057
 8200TIP3   OH248794   5.621   6.900  11.840 -0.1777 -0.3788 -0.0633
 8200TIP3    H148795   5.538   6.915  11.795 -1.1067 -1.9180  1.0489
 8200TIP3    H248796   5.673   6.849  11.778  0.2233  1.1222 -1.0121
 8201TIP3   OH248797   3.583   3.548  12.647 -0.4613 -0.8547 -0.4061
 8201TIP3    H148798   3.546   3.490  12.714 -1.0767  0.2096  0.1972
 8201TIP3    H248799   3.508   3.572  12.592 -0.0989 -1.1098 -1.0224
 8202TIP3   OH248800   0.918   5.768  12.947 -0.5755  0.2295  0.7317
 8202TIP3    H148801   1.000   5.741  12.989 -1.1327 -1.0794  1.0309
 8202TIP3    H248802   0.850   5.744  13.010 -1.3497 -0.8057 -0.4484
 8203TIP3   OH248803   2.139   0.543  10.521  0.0759  0.1359  0.1130
 8203TIP3    H148804   2.114   0.451  10.521 -0.1172  0.1888  0.4302
 8203TIP3    H248805   2.210   0.549  10.584 -0.8646  0.4599  1.1663
 8204TIP3   OH248806   0.603   4.831  12.170  0.5746 -0.7579  0.0107
 8204TIP3    H148807   0.680   4.822  12.115 -0.1037 -1.6224 -0.8182
 8204TIP3    H248808   0.533   4.787  12.122 -0.2138 -0.8561  1.2025
 8205TIP3   OH248809   3.379   1.832  13.067 -0.0949 -0.4120 -0.6544
 8205TIP3    H148810   3.286   1.846  13.082  0.4166  1.0047  1.7093
 8205TIP3    H248811   3.403   1.894  12.999 -0.9001 -1.0139 -1.5150
 8206TIP3   OH248812   2.476   1.912  12.034  0.3855  0.0947 -0.2206
 8206TIP3    H148813   2.518   1.895  11.949 -0.0660 -1.3814 -0.1672
 8206TIP3    H248814   2.474   1.827  12.078  0.1469  0.7396  1.0752
 8207TIP3   OH248815   3.927   2.458  11.847  0.7148  0.0150 -0.2002
 8207TIP3    H148816   3.862   2.452  11.917  1.4750  0.2996  0.5555
 8207TIP3    H248817   3.877   2.445  11.766 -0.3855  0.8878  0.3095
 8208TIP3   OH248818   2.682   0.990  11.828  0.5986 -0.0859 -0.2953
 8208TIP3    H148819   2.746   1.007  11.759  2.4522  1.3252  1.6548
 8208TIP3    H248820   2.598   1.013  11.789  1.5109  0.2026 -2.2029
 8209TIP3   OH248821   2.617   1.375  11.087  0.0751  0.1644  0.6166
 8209TIP3    H148822   2.647   1.309  11.149 -0.4387  0.4012  1.1264
 8209TIP3    H248823   2.578   1.325  11.015 -1.1860 -0.0900  1.4453
 8210TIP3   OH248824   0.274   7.615  11.087 -0.2493  0.0040  0.6741
 8210TIP3    H148825   0.276   7.705  11.119 -1.8337  0.2483  0.1890
 8210TIP3    H248826   0.363   7.583  11.100  0.2323  1.4857  1.2794
 8211TIP3   OH248827   0.423   5.093  12.054 -0.2692  0.0654  0.1216
 8211TIP3    H148828   0.517   5.081  12.067 -0.3888 -1.3232 -0.0737
 8211TIP3    H248829   0.399   5.027  11.989 -1.2292  0.9958 -0.5042
 8212TIP3   OH248830   1.922   5.601  12.554 -0.1581  0.0180 -0.0149
 8212TIP3    H148831   1.991   5.575  12.615 -1.0296 -1.1764  0.4791
 8212TIP3    H248832   1.904   5.523  12.503 -0.8394  0.4516 -0.4510
 8213TIP3   OH248833   1.934   5.116  12.137  0.0664  0.1129  0.8314
 8213TIP3    H148834   1.877   5.189  12.161 -0.7882 -0.5322  0.8140
 8213TIP3    H248835   1.922   5.105  12.043 -0.5965 -0.6841  0.9943
 8214TIP3   OH248836   5.854   6.652  10.978  0.3670 -0.4011 -0.9592
 8214TIP3    H148837   5.897   6.737  10.965  1.8396 -1.1113 -0.9002
 8214TIP3    H248838   5.915   6.602  11.031 -0.9436 -1.1704 -0.1384
 8215TIP3   OH248839   1.626   4.645  11.864  0.2315 -0.1308 -0.0138
 8215TIP3    H148840   1.546   4.698  11.860  0.1447 -0.0649  1.9354
 8215TIP3    H248841   1.697   4.708  11.856  0.1056 -0.0034 -0.1389
 8216TIP3   OH248842   6.807   7.409  10.863 -0.2598  0.0299 -0.2640
 8216TIP3    H148843   6.871   7.448  10.923  0.3464 -1.6465  0.2256
 8216TIP3    H248844   6.725   7.411  10.911 -0.8065  2.8410 -1.1582
 8217TIP3   OH248845   2.049   5.002  12.356  0.3799 -1.2731 -0.0996
 8217TIP3    H148846   2.013   5.034  12.272 -1.9488 -2.8764  0.2036
 8217TIP3    H248847   2.129   4.957  12.331 -0.0513 -1.3648 -1.4408
 8218TIP3   OH248848   4.695   0.933  12.688  0.3180 -0.8159 -0.0327
 8218TIP3    H148849   4.684   0.844  12.722  0.5288 -0.2312  1.6962
 8218TIP3    H248850   4.657   0.989  12.756 -1.7006  0.3711 -2.0025
 8219TIP3   OH248851   6.649   5.585  10.555  0.2172 -0.0093 -0.0816
 8219TIP3    H148852   6.726   5.637  10.534  0.7928 -0.0166  1.8060
 8219TIP3    H248853   6.636   5.529  10.478  1.5121  0.6517 -0.8130
 8220TIP3   OH248854   5.481   1.708  12.119  0.4488 -0.0256 -0.2082
 8220TIP3    H148855   5.531   1.760  12.181 -0.6595 -1.6398  2.2133
 8220TIP3    H248856   5.389   1.730  12.138 -0.0160 -2.2432  0.4245
 8221TIP3   OH248857   4.741   3.085  10.488 -0.0653  0.4178 -0.6527
 8221TIP3    H148858   4.730   3.023  10.560  1.6992 -0.3159 -0.9693
 8221TIP3    H248859   4.652   3.113  10.467 -0.6326  0.4963  1.6542
 8222TIP3   OH248860   7.301   2.041  11.180  0.1800  0.3690 -0.0534
 8222TIP3    H148861   7.211   2.009  11.191 -0.1973  0.7159 -1.8405
 8222TIP3    H248862   7.355   1.961  11.181 -0.5158 -0.1812 -2.2497
 8223TIP3   OH248863   7.358   0.529  12.818  0.4219  0.3866  0.1724
 8223TIP3    H148864   7.342   0.539  12.912  0.1227 -2.5678  0.5054
 8223TIP3    H248865   7.274   0.548  12.778  0.2530  0.5218  0.5782
 8224TIP3   OH248866   1.916   1.255  11.213  0.0320 -0.0099 -0.3561
 8224TIP3    H148867   1.830   1.261  11.254  0.6913  1.6365  0.8825
 8224TIP3    H248868   1.949   1.169  11.238 -1.2172 -0.6516 -0.8289
 8225TIP3   OH248869   0.067   1.749  11.144  0.4750 -0.4360 -0.2341
 8225TIP3    H148870   0.082   1.832  11.098  0.4666 -0.6753 -0.6728
 8225TIP3    H248871   0.083   1.770  11.236 -1.9476  0.6972  0.0312
 8226TIP3   OH248872   2.773   2.946  12.588 -0.6616  0.0824  0.1234
 8226TIP3    H148873   2.699   2.925  12.532 -0.0691  0.6159 -0.8807
 8226TIP3    H248874   2.735   2.951  12.676 -2.0995  1.6575 -0.5261
 8227TIP3   OH248875   1.534   0.846  12.831  0.2438  0.3097 -0.3849
 8227TIP3    H148876   1.572   0.932  12.812  1.6506 -0.4373 -1.0908
 8227TIP3    H248877   1.591   0.810  12.899 -1.1190  0.4438  0.8770
 8228TIP3   OH248878   1.791   5.592  12.782  0.0471 -0.1697  0.1792
 8228TIP3    H148879   1.800   5.596  12.687 -0.7172 -0.8983  0.0643
 8228TIP3    H248880   1.813   5.501  12.805  0.5243  0.0769  0.7316
 8229TIP3   OH248881   2.979   2.756  11.830  0.5496 -0.0923 -0.0506
 8229TIP3    H148882   2.893   2.797  11.824  1.2606  1.4495 -0.1586
 8229TIP3    H248883   3.002   2.733  11.740  0.6230  0.2991 -0.1322
 8230TIP3   OH248884   2.840   4.959  12.406  0.0379 -0.4047  0.3115
 8230TIP3    H148885   2.931   4.958  12.437  0.0952  2.2542  0.5243
 8230TIP3    H248886   2.845   5.004  12.322 -1.1555  0.6296  0.7659
 8231TIP3   OH248887   3.799   2.096  10.660 -0.3078  0.3007 -0.1811
 8231TIP3    H148888   3.785   2.021  10.603  0.8378  0.8895 -1.2784
 8231TIP3    H248889   3.854   2.062  10.731  0.1244  0.0654 -0.6226
 8232TIP3   OH248890   3.185   3.679  10.647 -0.1763 -0.2412  0.0641
 8232TIP3    H148891   3.096   3.710  10.632 -0.2112 -0.4240 -0.1120
 8232TIP3    H248892   3.178   3.583  10.643  0.2778 -0.2434 -1.4360
 8233TIP3   OH248893   4.599   7.257  12.026  0.4872 -0.1138  0.3201
 8233TIP3    H148894   4.670   7.253  12.090  1.1825 -1.1002 -0.4946
 8233TIP3    H248895   4.581   7.351  12.016  2.1842  0.2041 -0.0121
 8234TIP3   OH248896   1.643   5.823  11.501 -0.1214 -0.4316  0.6634
 8234TIP3    H148897   1.636   5.745  11.447 -0.5244 -0.1593  0.3144
 8234TIP3    H248898   1.552   5.850  11.516 -0.0339 -0.8353  1.9640
 8235TIP3   OH248899   5.062   0.397  11.837 -0.3519  0.1325 -0.3057
 8235TIP3    H148900   5.060   0.484  11.877  0.9133 -0.3409  0.8838
 8235TIP3    H248901   5.147   0.392  11.794 -1.3839  0.3354 -2.4823
 8236TIP3   OH248902   0.252   1.399  12.467  0.4260  0.6518 -0.3006
 8236TIP3    H148903   0.246   1.304  12.467  3.9963  0.2877  0.7209
 8236TIP3    H248904   0.285   1.421  12.379  1.8397  0.6389  0.1921
 8237TIP3   OH248905   4.428   6.043  11.153  0.2168  0.4094  0.1735
 8237TIP3    H148906   4.356   5.982  11.167  1.3228 -1.2425 -0.9600
 8237TIP3    H248907   4.400   6.095  11.077 -0.5189  1.0034  0.8361
 8238TIP3   OH248908   6.985   4.665  11.242  0.4698  0.4428 -0.4095
 8238TIP3    H148909   7.008   4.758  11.237  0.5069  0.6310  1.9669
 8238TIP3    H248910   7.052   4.626  11.298 -0.8836 -0.4802  0.6506
 8239TIP3   OH248911   2.548   4.970  11.882  0.1299  0.6880 -0.0703
 8239TIP3    H148912   2.634   4.928  11.875  0.4990  1.6431 -1.8956
 8239TIP3    H248913   2.546   5.032  11.809 -1.5014  1.8054  0.8683
 8240TIP3   OH248914   6.404   1.833  11.278  0.1198  0.2110  0.1163
 8240TIP3    H148915   6.453   1.888  11.217  0.7217  0.0027  0.4091
 8240TIP3    H248916   6.470   1.782  11.324 -0.4419 -0.9506 -0.3254
 8241TIP3   OH248917   7.527   6.683  11.853 -0.2796 -0.3187 -0.2841
 8241TIP3    H148918   7.488   6.771  11.850 -0.0095 -0.0358  2.0782
 8241TIP3    H248919   7.615   6.698  11.887  0.0226 -1.4352 -0.5539
 8242TIP3   OH248920   1.316   2.232  10.917 -0.0323 -0.6461  0.5587
 8242TIP3    H148921   1.381   2.189  10.861 -0.7022 -0.4169 -0.4150
 8242TIP3    H248922   1.334   2.325  10.908 -0.9201 -0.5381 -0.2814
 8243TIP3   OH248923   4.078   2.222  13.121 -0.5057  0.3475 -0.6079
 8243TIP3    H148924   3.996   2.197  13.078  0.7458  2.0162 -4.4043
 8243TIP3    H248925   4.071   2.316  13.133  0.3281  0.3005  0.3722
 8244TIP3   OH248926   7.480   7.181  12.357  0.5708  0.0075 -0.2305
 8244TIP3    H148927   7.466   7.087  12.366 -1.0043  0.2915  0.6625
 8244TIP3    H248928   7.466   7.216  12.445  2.0031  0.9898 -0.3680
 8245TIP3   OH248929   3.476   3.352  11.399  0.0716  0.6953  0.4688
 8245TIP3    H148930   3.460   3.258  11.388  0.5853  0.6392  0.1891
 8245TIP3    H248931   3.509   3.381  11.314  0.2208  1.0668  0.6518
 8246TIP3   OH248932   5.220   6.218  13.207 -0.4811 -0.0282 -0.4263
 8246TIP3    H148933   5.239   6.136  13.252 -0.0481  0.1819 -0.2268
 8246TIP3    H248934   5.179   6.191  13.125  2.1978 -0.5781 -1.6691
 8247TIP3   OH248935   0.114   7.133  12.209 -0.2303  0.4838 -0.2563
 8247TIP3    H148936   0.063   7.133  12.128 -1.1355  3.7150  0.1496
 8247TIP3    H248937   0.064   7.079  12.269  0.4895 -2.0337 -1.7537
 8248TIP3   OH248938   2.489   4.970  13.127  0.5789 -0.0805 -0.3563
 8248TIP3    H148939   2.456   5.041  13.182  4.2021  0.5256  1.3300
 8248TIP3    H248940   2.455   4.890  13.168  1.9199  0.4455  1.9590
 8249TIP3   OH248941   2.780   6.559  10.287 -0.2051 -0.3926  0.0794
 8249TIP3    H148942   2.837   6.488  10.316  0.2189  0.0116  0.2550
 8249TIP3    H248943   2.821   6.638  10.323 -0.1854  0.0302 -0.8562
 8250TIP3   OH248944   0.110   5.845  11.291 -0.5739  0.2312  0.1065
 8250TIP3    H148945   0.146   5.791  11.362 -1.4154 -0.7167 -0.1684
 8250TIP3    H248946   0.174   5.836  11.220 -0.3031  0.2618  0.3434
 8251TIP3   OH248947   6.335   7.141  10.583  0.4596  0.1561 -0.8093
 8251TIP3    H148948   6.391   7.081  10.533 -0.9014 -0.0925 -2.0891
 8251TIP3    H248949   6.352   7.227  10.544 -3.0247 -0.4418 -4.1907
 8252TIP3   OH248950   3.999   1.428  11.024  0.3694  0.0747 -0.2862
 8252TIP3    H148951   3.961   1.492  10.963  0.1817  0.8236  0.6011
 8252TIP3    H248952   3.980   1.343  10.983 -0.4609  0.5215 -0.8749
 8253TIP3   OH248953   7.412   3.285  11.274 -0.2100 -0.2401  0.7894
 8253TIP3    H148954   7.397   3.193  11.293  1.0478 -0.2211  2.0193
 8253TIP3    H248955   7.453   3.320  11.353 -0.9367  1.4564  0.4661
 8254TIP3   OH248956   2.883   1.757  12.770  0.1295 -0.6104 -0.5175
 8254TIP3    H148957   2.898   1.752  12.675  0.7840 -2.0592 -0.3713
 8254TIP3    H248958   2.969   1.738  12.808  0.2460  1.5397  0.3886
 8255TIP3   OH248959   7.124   3.237  11.782  0.0418 -0.0296 -0.4423
 8255TIP3    H148960   7.097   3.157  11.828  0.4984 -0.7559 -1.3912
 8255TIP3    H248961   7.055   3.252  11.718 -1.0999  1.5468  1.0903
 8256TIP3   OH248962   5.194   0.557  11.303 -0.2700 -0.8639 -0.1034
 8256TIP3    H148963   5.187   0.528  11.212  0.5231 -2.6836  0.3624
 8256TIP3    H248964   5.161   0.482  11.354  1.4944 -0.8263  1.1760
 8257TIP3   OH248965   0.871   5.792  11.317  0.0136  0.0340  0.3456
 8257TIP3    H148966   0.803   5.730  11.290 -0.1899  1.0317 -1.6132
 8257TIP3    H248967   0.952   5.742  11.310  0.0773  0.4146 -3.1529
 8258TIP3   OH248968   5.522   5.836  12.095 -0.5665  0.3241  0.8851
 8258TIP3    H148969   5.485   5.777  12.160 -0.9426 -1.2338 -0.6511
 8258TIP3    H248970   5.600   5.873  12.137 -0.7421 -0.7028  2.1710
 8259TIP3   OH248971   7.080   2.240  11.649 -0.9147  0.3018  1.0127
 8259TIP3    H148972   6.990   2.258  11.622 -1.2186 -2.3911 -0.0607
 8259TIP3    H248973   7.102   2.158  11.606  2.4195  1.3124  0.5320
 8260TIP3   OH248974   6.544   5.461  11.168 -0.1206 -0.3402  0.4724
 8260TIP3    H148975   6.519   5.533  11.110  0.9225 -0.3546 -0.0175
 8260TIP3    H248976   6.525   5.382  11.117  2.2263 -0.3415 -0.5351
 8261TIP3   OH248977   1.880   4.609  12.378  0.3986 -0.1146 -0.1288
 8261TIP3    H148978   1.822   4.534  12.360 -0.2126  0.0921  0.9145
 8261TIP3    H248979   1.940   4.577  12.444  1.5845 -0.3565 -1.2751
 8262TIP3   OH248980   0.359   0.138  11.743  0.4986 -0.1238  0.2533
 8262TIP3    H148981   0.420   0.210  11.728 -0.4171  0.4469 -0.9240
 8262TIP3    H248982   0.415   0.060  11.747  1.3053  0.3344 -1.1491
 8263TIP3   OH248983   5.173   2.181  12.893 -0.0739 -0.6351 -0.2233
 8263TIP3    H148984   5.196   2.270  12.920 -2.4389 -0.0839  0.2212
 8263TIP3    H248985   5.220   2.125  12.954  1.1336  0.3084 -0.2456
 8264TIP3   OH248986   7.449   1.116  12.790  0.4914  0.1204 -0.7043
 8264TIP3    H148987   7.512   1.174  12.833  1.3852  0.3808 -2.2724
 8264TIP3    H248988   7.380   1.104  12.854  1.7508  0.4726  0.7873
 8265TIP3   OH248989   5.611   0.771  11.537  0.0133 -0.0726  0.0753
 8265TIP3    H148990   5.657   0.803  11.459  0.0205  0.8579  0.4432
 8265TIP3    H248991   5.631   0.836  11.604 -2.1785  0.6051  0.1397
 8266TIP3   OH248992   6.315   7.113  13.465 -0.2886 -0.1153  0.1092
 8266TIP3    H148993   6.245   7.049  13.452  0.2524 -0.5117 -0.9832
 8266TIP3    H248994   6.276   7.197  13.440 -0.7284 -0.1336  0.6933
 8267TIP3   OH248995   4.689   6.300  11.170  0.5063  0.1556  0.0339
 8267TIP3    H148996   4.779   6.314  11.141  0.1387 -1.0431 -1.8670
 8267TIP3    H248997   4.646   6.256  11.096 -1.3634 -0.2660  1.2883
 8268TIP3   OH248998   4.597   7.115  12.991 -0.0784 -0.2274  0.2937
 8268TIP3    H148999   4.648   7.166  12.927  1.1914  0.3517  1.7142
 8268TIP3    H249000   4.662   7.080  13.051 -1.3675  1.3493  2.7822
 8269TIP3   OH249001   5.799   0.108  12.184  0.0482  0.4341  0.2534
 8269TIP3    H149002   5.793   0.035  12.246  0.6183  1.0451  1.0343
 8269TIP3    H249003   5.734   0.087  12.117  0.3385 -0.8861  0.3673
 8270TIP3   OH249004   7.034   0.546  11.598 -0.2812  0.7376  0.4243
 8270TIP3    H149005   7.034   0.580  11.508 -0.3100  0.8183  0.4547
 8270TIP3    H249006   7.118   0.500  11.605 -0.8615 -0.4341 -0.0788
 8271TIP3   OH249007   2.375   1.591  11.860  0.3741  1.2613  0.3708
 8271TIP3    H149008   2.413   1.522  11.807  0.1774  0.5023  1.2055
 8271TIP3    H249009   2.448   1.652  11.877  0.4670  1.4381 -0.6302
 8272TIP3   OH249010   6.191   1.629  11.185  0.3080 -0.1322 -0.3154
 8272TIP3    H149011   6.128   1.640  11.114  0.3111  2.9908  0.0447
 8272TIP3    H249012   6.258   1.695  11.168 -0.1060  1.3123  2.9930
 8273TIP3   OH249013   0.484   6.718  11.176 -0.2144 -0.1424 -0.2960
 8273TIP3    H149014   0.418   6.666  11.221 -0.2009 -0.9422 -1.1624
 8273TIP3    H249015   0.486   6.682  11.087  1.4417 -0.2244 -0.2643
 8274TIP3   OH249016   5.106   2.580  12.808 -0.2233 -0.3463 -0.1563
 8274TIP3    H149017   5.070   2.646  12.868 -0.5799 -1.0658  0.4400
 8274TIP3    H249018   5.171   2.533  12.860  1.5241  0.8440 -1.1864
 8275TIP3   OH249019   5.745   5.888  12.244  0.0635  0.8949 -0.5007
 8275TIP3    H149020   5.711   5.890  12.333 -0.9803  1.6516 -0.8889
 8275TIP3    H249021   5.820   5.828  12.247 -0.5447  0.1665  0.6687
 8276TIP3   OH249022   0.194   1.634  10.830 -0.1382  0.0068 -0.0645
 8276TIP3    H149023   0.203   1.586  10.748  2.5044 -0.5241  0.4557
 8276TIP3    H249024   0.214   1.725  10.808 -0.8617  0.1287 -0.2473
 8277TIP3   OH249025   1.780   3.994  12.967 -0.0198  0.0591 -0.1635
 8277TIP3    H149026   1.852   4.027  13.020 -0.2041  0.4223 -0.1384
 8277TIP3    H249027   1.822   3.937  12.902  0.1491 -0.8669  0.7349
 8278TIP3   OH249028   4.815   5.085  10.848 -0.7032  0.1903  0.2253
 8278TIP3    H149029   4.805   5.035  10.929 -0.3489  4.5677  3.3584
 8278TIP3    H249030   4.904   5.064  10.817 -0.8840 -1.6604  0.8682
 8279TIP3   OH249031   6.163   3.169  10.584  0.0679  0.4682  0.3077
 8279TIP3    H149032   6.146   3.227  10.510  0.0932  2.3001  1.6850
 8279TIP3    H249033   6.258   3.157  10.584 -0.1281 -1.9464 -1.6312
 8280TIP3   OH249034   3.533   0.108  11.065  0.3419  0.2868 -0.0835
 8280TIP3    H149035   3.620   0.124  11.103 -0.1007 -0.9137  1.5379
 8280TIP3    H249036   3.474   0.162  11.116  0.0369  0.5532 -0.7149
 8281TIP3   OH249037   4.032   0.731  12.509  0.3394 -0.2602 -0.0367
 8281TIP3    H149038   4.073   0.665  12.454  1.4480 -1.2463  1.8559
 8281TIP3    H249039   3.957   0.686  12.549  1.2034 -0.5150  1.3976
 8282TIP3   OH249040   3.580   4.765  13.170  0.2184 -0.3624  0.0027
 8282TIP3    H149041   3.635   4.798  13.099  0.7452 -0.7255  0.2370
 8282TIP3    H249042   3.513   4.713  13.126  0.3067 -0.2621 -0.2535
 8283TIP3   OH249043   2.471   1.082  10.922 -0.2492  0.4381 -0.0609
 8283TIP3    H149044   2.566   1.075  10.908 -0.5522 -1.4857 -1.7555
 8283TIP3    H249045   2.436   1.100  10.835 -1.5740 -1.2558  0.0743
 8284TIP3   OH249046   3.230   0.062  12.018 -0.2599 -0.8249 -0.0939
 8284TIP3    H149047   3.275  -0.003  11.963  0.3371 -0.3475 -0.1751
 8284TIP3    H249048   3.299   0.100  12.072  0.2591  2.6421 -2.8627
 8285TIP3   OH249049   0.358   2.762  11.936 -0.4794 -0.1018  0.1262
 8285TIP3    H149050   0.283   2.806  11.977 -1.9853 -1.4097 -1.1168
 8285TIP3    H249051   0.416   2.740  12.009 -1.3604  0.8307  1.1324
 8286TIP3   OH249052   4.601   0.017  12.670 -0.2952  0.1330 -0.0066
 8286TIP3    H149053   4.607  -0.039  12.747 -1.7940 -1.6429 -1.0952
 8286TIP3    H249054   4.508   0.017  12.648  0.1182  0.4685 -1.9109
 8287TIP3   OH249055   7.095   1.033  11.158  0.4605  0.0391  1.2501
 8287TIP3    H149056   7.058   1.075  11.236  0.3745  1.9792  0.2233
 8287TIP3    H249057   7.189   1.029  11.176  0.6612  2.0539  0.7821
 8288TIP3   OH249058   1.317   6.401  10.581  0.0322 -0.2831  0.2239
 8288TIP3    H149059   1.394   6.394  10.637 -0.0942  0.7606  0.5540
 8288TIP3    H249060   1.342   6.356  10.500  0.9356 -0.0660  0.3714
 8289TIP3   OH249061   3.087   5.901  13.073 -0.0410 -0.4266 -0.1212
 8289TIP3    H149062   3.046   5.823  13.112  1.0185 -0.3374  1.2563
 8289TIP3    H249063   3.013   5.954  13.043 -1.0331 -0.1201  2.5386
 8290TIP3   OH249064   6.462   1.444  11.598  0.1897  1.1445 -0.0984
 8290TIP3    H149065   6.375   1.405  11.586 -0.0535  1.0543  1.7362
 8290TIP3    H249066   6.522   1.374  11.572 -0.2699  0.1348  1.3961
 8291TIP3   OH249067   1.025   3.433  10.973  0.8105 -0.2469 -0.0036
 8291TIP3    H149068   1.119   3.419  10.986  0.8546  0.4890  0.5148
 8291TIP3    H249069   1.008   3.518  11.013 -0.7817 -1.9614  3.3400
 8292TIP3   OH249070   4.088   4.913  10.886 -0.2429  0.6831 -0.2272
 8292TIP3    H149071   4.078   4.959  10.803  0.7218 -0.0762 -0.7863
 8292TIP3    H249072   4.183   4.907  10.899 -0.3587  2.2672  1.7987
 8293TIP3   OH249073   3.124   5.252  11.730 -0.2318  0.1668  0.6327
 8293TIP3    H149074   3.065   5.257  11.805  0.0038  0.4504  0.8021
 8293TIP3    H249075   3.158   5.341  11.721 -1.0535  0.3788 -0.4530
 8294TIP3   OH249076   7.488   3.420  10.859  0.8033  0.5393 -0.0622
 8294TIP3    H149077   7.542   3.456  10.789  2.0265  1.1320  1.1372
 8294TIP3    H249078   7.541   3.431  10.938 -0.1136 -1.0257  0.8176
 8295TIP3   OH249079   2.998   6.174  12.256 -0.1852 -0.4997 -0.8599
 8295TIP3    H149080   3.035   6.116  12.190 -1.1891 -0.4877 -1.4530
 8295TIP3    H249081   3.013   6.128  12.339  0.5561 -0.7961 -1.1530
 8296TIP3   OH249082   6.339   5.991  11.109  0.4938 -1.0140  0.1541
 8296TIP3    H149083   6.264   6.028  11.156 -0.5792  0.3634 -2.4179
 8296TIP3    H249084   6.415   6.039  11.143 -0.2676  0.0336  0.4431
 8297TIP3   OH249085   0.859   5.208  11.551  0.0295  0.0914  0.0074
 8297TIP3    H149086   0.790   5.241  11.609 -0.6912 -1.0737 -0.1612
 8297TIP3    H249087   0.912   5.150  11.607  1.3384  1.5110  0.3220
 8298TIP3   OH249088   5.514   1.105  11.763  0.8760 -0.0443  0.6801
 8298TIP3    H149089   5.457   1.182  11.769  0.6285  0.2587 -3.0755
 8298TIP3    H249090   5.557   1.114  11.677  2.1965 -3.2082  0.8798
 8299TIP3   OH249091   6.218   1.909  10.706  0.4620  0.2101 -0.2886
 8299TIP3    H149092   6.151   1.972  10.734  0.1043 -0.1883 -0.2406
 8299TIP3    H249093   6.288   1.964  10.670  0.6991  0.7023  0.8653
 8300TIP3   OH249094   1.153   0.811  11.885 -0.6219  0.3352  0.5643
 8300TIP3    H149095   1.084   0.864  11.926 -1.5284  0.1060 -0.6237
 8300TIP3    H249096   1.125   0.801  11.794  1.8980  1.7879 -0.4814
 8301TIP3   OH249097   4.867   0.326  11.668  0.1801  0.5706 -0.0465
 8301TIP3    H149098   4.933   0.373  11.720  0.4163  0.1598  0.0291
 8301TIP3    H249099   4.886   0.234  11.684  0.0666  0.4452 -0.6287
 8302TIP3   OH249100   4.309   5.727  11.705  0.3925 -0.1221  0.0485
 8302TIP3    H149101   4.398   5.704  11.730  0.0415 -1.6567 -0.0339
 8302TIP3    H249102   4.314   5.821  11.684  1.3001  0.6170  3.0174
 8303TIP3   OH249103   3.208   2.246  12.768 -0.2457  0.3472  0.6087
 8303TIP3    H149104   3.214   2.219  12.676 -1.2440 -1.7198  1.0961
 8303TIP3    H249105   3.294   2.226  12.804 -0.7359 -1.6524  0.7767
 8304TIP3   OH249106   3.684   1.872  10.228 -0.2533 -0.0715  0.0156
 8304TIP3    H149107   3.727   1.863  10.312 -1.9020 -0.7928  0.8320
 8304TIP3    H249108   3.700   1.962  10.201 -0.5909  0.5006  1.6267
 8305TIP3   OH249109   5.188   3.940  11.679 -0.1338  0.0491  0.1225
 8305TIP3    H149110   5.281   3.929  11.661  0.0852 -1.9290  2.1109
 8305TIP3    H249111   5.185   4.007  11.747 -0.0485 -0.5337  0.7174
 8306TIP3   OH249112   5.143   0.616  11.592 -0.3652 -1.0318 -0.3219
 8306TIP3    H149113   5.238   0.614  11.580 -0.3293  0.3913 -0.4876
 8306TIP3    H249114   5.128   0.687  11.656 -1.4460  0.5157 -2.1612
 8307TIP3   OH249115   1.768   1.020  11.384 -0.2405  0.3127 -0.3726
 8307TIP3    H149116   1.783   1.050  11.473  0.9736  1.4341 -0.9186
 8307TIP3    H249117   1.768   0.924  11.390 -2.2047  0.3410  1.1121
 8308TIP3   OH249118   6.422   2.921  10.939 -0.5606  0.6341  0.2308
 8308TIP3    H149119   6.337   2.963  10.926 -0.9334  0.6280  2.4141
 8308TIP3    H249120   6.482   2.974  10.886 -1.9464  0.3432 -1.7508
 8309TIP3   OH249121   3.070   4.854  11.413  0.3635  0.2648  0.2420
 8309TIP3    H149122   3.085   4.790  11.483  2.5895 -0.1527 -0.5363
 8309TIP3    H249123   3.132   4.925  11.432 -0.2513  0.9813 -0.3486
 8310TIP3   OH249124   6.518   1.184  11.280 -0.2834 -0.5959  0.1606
 8310TIP3    H149125   6.472   1.260  11.246 -0.6278 -0.2569  1.3358
 8310TIP3    H249126   6.511   1.192  11.375 -1.4320 -2.7574  0.3258
 8311TIP3   OH249127   2.617   2.388  10.851  0.3698 -0.3721 -0.2232
 8311TIP3    H149128   2.703   2.347  10.866  0.4692 -1.0275 -2.2699
 8311TIP3    H249129   2.566   2.320  10.807 -1.3946 -0.1442  1.3680
 8312TIP3   OH249130   4.666   5.845  11.957 -1.2466 -0.0952  0.4217
 8312TIP3    H149131   4.761   5.851  11.955 -1.3384  2.4537 -1.8551
 8312TIP3    H249132   4.638   5.916  12.014 -1.7972  0.6858 -0.7849
 8313TIP3   OH249133   5.121   3.141  12.326  0.1192  0.4141  0.4528
 8313TIP3    H149134   5.185   3.208  12.349  2.1640 -1.4750  0.6442
 8313TIP3    H249135   5.036   3.184  12.337  1.2780  2.5333  1.9026
 8314TIP3   OH249136   6.359   2.565  12.332  0.1407 -0.1296 -0.1551
 8314TIP3    H149137   6.299   2.613  12.390 -0.6277 -1.0206 -0.1992
 8314TIP3    H249138   6.417   2.633  12.297 -0.9597  0.7939 -0.2620
 8315TIP3   OH249139   2.285   6.512  11.151 -0.2565  0.5714 -0.0191
 8315TIP3    H149140   2.226   6.461  11.206 -0.3536 -0.1536 -0.7742
 8315TIP3    H249141   2.251   6.501  11.062  0.9103  0.2556 -0.4547
 8316TIP3   OH249142   5.512   3.154  13.131 -0.0508 -0.1653  0.4747
 8316TIP3    H149143   5.458   3.233  13.125  0.4461  0.0772 -1.5165
 8316TIP3    H249144   5.557   3.162  13.215 -0.9953  1.0151  0.8957
 8317TIP3   OH249145   5.807   3.136  12.827 -0.0424  0.8567  0.3376
 8317TIP3    H149146   5.802   3.048  12.865 -2.7724  1.0291  0.6284
 8317TIP3    H249147   5.791   3.121  12.733 -0.0385  0.9820  0.3177
 8318TIP3   OH249148   4.639   7.661  12.219  0.5495  0.1539 -0.5095
 8318TIP3    H149149   4.679   7.622  12.297  1.5649  0.1029 -1.0403
 8318TIP3    H249150   4.580   7.728  12.254  0.2092 -0.5597  0.3360
 8319TIP3   OH249151   5.451   7.468  12.769 -0.4387 -0.0897 -0.6147
 8319TIP3    H149152   5.489   7.449  12.683 -2.6618  0.6205 -1.8165
 8319TIP3    H249153   5.362   7.435  12.764 -1.1680  1.5261  0.8028
 8320TIP3   OH249154   0.639   1.459  10.059  0.2833  0.1205  0.3228
 8320TIP3    H149155   0.679   1.388  10.009 -1.0101  0.3417 -1.1369
 8320TIP3    H249156   0.623   1.527   9.994  0.0674  1.1092  1.3925
 8321TIP3   OH249157   1.960   0.980  11.094  0.3108  0.4688 -0.1888
 8321TIP3    H149158   1.974   0.885  11.091 -2.2316  0.0442 -1.0934
 8321TIP3    H249159   1.962   1.001  11.188  2.3567 -0.1871 -0.0468
 8322TIP3   OH249160   5.070   7.456  10.323 -0.0233 -0.0336 -0.1118
 8322TIP3    H149161   5.062   7.551  10.318 -0.9815 -0.0848  0.3138
 8322TIP3    H249162   5.066   7.426  10.232  0.3722  0.3371 -0.2529
 8323TIP3   OH249163   2.710   3.507  12.311 -0.5706 -0.0134  0.1158
 8323TIP3    H149164   2.783   3.499  12.250 -1.3821 -1.7877 -0.6895
 8323TIP3    H249165   2.748   3.550  12.388  1.0257  0.1810 -0.7408
 8324TIP3   OH249166   7.540   2.418  10.665 -0.1724 -0.0464  0.3963
 8324TIP3    H149167   7.630   2.404  10.636 -0.0139 -0.8337  1.2350
 8324TIP3    H249168   7.548   2.466  10.747 -0.5648  0.7323 -0.0079
 8325TIP3   OH249169   7.216   3.435  10.767  0.2006 -0.3033  0.1232
 8325TIP3    H149170   7.166   3.458  10.846  0.2140 -2.0585  0.6803
 8325TIP3    H249171   7.301   3.406  10.799 -0.3625 -2.6652 -0.3497
 8326TIP3   OH249172   5.718   0.783  12.443  0.9169 -0.1917  0.0858
 8326TIP3    H149173   5.654   0.853  12.427 -1.6163 -2.0551  1.2554
 8326TIP3    H249174   5.745   0.795  12.533  2.3821  0.6541 -0.4415
 8327TIP3   OH249175   0.837   2.582  10.888  0.1246  0.0393  0.1038
 8327TIP3    H149176   0.851   2.664  10.841 -0.6548  0.7967  1.1364
 8327TIP3    H249177   0.794   2.525  10.825 -0.1547  0.7409 -0.3480
 8328TIP3   OH249178   7.080   4.487  10.852 -0.0810 -0.0217  0.6693
 8328TIP3    H149179   6.989   4.516  10.858  0.3474  1.3019  1.0666
 8328TIP3    H249180   7.124   4.555  10.802  0.2504 -1.7951 -1.6022
 8329TIP3   OH249181   3.973   3.319  10.650  0.5323 -0.1926 -0.1056
 8329TIP3    H149182   3.941   3.351  10.565  0.3092  1.0389  0.4198
 8329TIP3    H249183   3.998   3.228  10.634 -1.1835 -0.5309 -1.0693
 8330TIP3   OH249184   7.301   0.925  12.362  0.1212  0.4823 -0.7385
 8330TIP3    H149185   7.220   0.883  12.333  0.4824 -0.7093 -0.0730
 8330TIP3    H249186   7.274   1.015  12.385 -1.5387 -0.5025  1.6309
 8331TIP3   OH249187   6.649   0.651  12.027  0.6389 -0.0412 -0.0222
 8331TIP3    H149188   6.563   0.692  12.014  1.1116  1.1646  0.5399
 8331TIP3    H249189   6.679   0.630  11.938  0.1775  0.3994 -0.2908
 8332TIP3   OH249190   6.176   3.548  11.567 -0.2597 -0.3495 -0.4599
 8332TIP3    H149191   6.088   3.519  11.589 -0.1166 -1.1366 -0.9025
 8332TIP3    H249192   6.173   3.565  11.473  0.2544 -1.0844 -0.6121
 8333TIP3   OH249193   0.504   6.738  12.977  0.0519 -0.3147  0.1044
 8333TIP3    H149194   0.587   6.698  12.953 -0.4967 -1.0502 -0.6549
 8333TIP3    H249195   0.492   6.810  12.915  0.9219  0.9339  1.3166
 8334TIP3   OH249196   1.890   4.296  11.100 -0.2765 -0.2596 -0.5384
 8334TIP3    H149197   1.965   4.344  11.137 -3.8671  2.6007  4.1512
 8334TIP3    H249198   1.885   4.216  11.152 -2.2120  1.1894  1.6873
 8335TIP3   OH249199   1.119   6.237  10.696  0.1331 -0.4331  0.3539
 8335TIP3    H149200   1.185   6.292  10.653  0.6257 -1.7980 -0.7204
 8335TIP3    H249201   1.158   6.149  10.696 -0.4185 -0.7221  2.4688
 8336TIP3   OH249202   1.311   5.751  18.354  0.0297 -0.3762 -0.6569
 8336TIP3    H149203   1.285   5.744  18.263 -0.3963 -1.4605 -0.4562
 8336TIP3    H249204   1.369   5.677  18.369  0.4442  0.0382 -0.1579
 8337TIP3   OH249205   7.560   6.134  11.000 -0.3439 -0.2677  0.0287
 8337TIP3    H149206   7.650   6.105  11.011 -0.4433  0.0931  2.1566
 8337TIP3    H249207   7.559   6.224  11.033 -1.4370 -0.2030 -0.1321
 8338TIP3   OH249208   6.834   2.103  12.374 -0.6172  0.9519  0.3336
 8338TIP3    H149209   6.908   2.153  12.409 -1.3813  0.3349  3.0487
 8338TIP3    H249210   6.775   2.092  12.448 -2.8267  0.2611 -1.4196
 8339TIP3   OH249211   3.744   3.379  11.206  0.2268 -0.4917 -0.4559
 8339TIP3    H149212   3.715   3.440  11.138 -0.7852 -0.0446  0.3435
 8339TIP3    H249213   3.801   3.431  11.262 -1.6417  0.1361  0.9552
 8340TIP3   OH249214   6.583   5.796  11.155 -0.5312 -0.2915  0.0636
 8340TIP3    H149215   6.539   5.878  11.175  0.4868  0.1726  0.4285
 8340TIP3    H249216   6.535   5.761  11.079 -1.7189  0.0339  0.6407
 8341TIP3   OH249217   2.986   4.712  12.655  0.1845  0.4911  0.4958
 8341TIP3    H149218   3.056   4.658  12.692  1.3890  1.9483  0.4000
 8341TIP3    H249219   3.021   4.746  12.573 -1.2639 -0.0500 -0.4034
 8342TIP3   OH249220   4.628   0.915  12.427  0.6087 -0.1744  0.1226
 8342TIP3    H149221   4.655   0.903  12.518  0.5912 -2.1869 -0.0774
 8342TIP3    H249222   4.685   0.984  12.393 -0.4263  1.7115  2.0526
 8343TIP3   OH249223   3.469   5.812  10.930  0.0439 -0.4027 -0.2412
 8343TIP3    H149224   3.442   5.899  10.959 -2.4067 -0.6216 -1.6002
 8343TIP3    H249225   3.528   5.828  10.856  2.1101  0.0647  1.4194
 8344TIP3   OH249226   5.360   0.067  10.851 -0.7475  0.1317 -0.0667
 8344TIP3    H149227   5.441   0.029  10.817  0.8190  3.3173 -0.2084
 8344TIP3    H249228   5.361   0.045  10.944 -0.5336 -1.1168 -0.3429
 8345TIP3   OH249229   7.422   6.500  11.262 -0.2874  0.0787 -0.1610
 8345TIP3    H149230   7.360   6.530  11.195  0.9028 -0.6365 -1.6596
 8345TIP3    H249231   7.451   6.580  11.306  1.0751  0.9904 -2.5066
 8346TIP3   OH249232   3.407   2.507  12.818 -0.0491 -0.2364 -0.7436
 8346TIP3    H149233   3.343   2.547  12.877 -1.1728 -0.5913 -1.7011
 8346TIP3    H249234   3.409   2.415  12.845 -0.0070 -0.2405 -0.7617
 8347TIP3   OH249235   7.203   3.470  11.231  0.5632 -0.1143 -0.3944
 8347TIP3    H149236   7.169   3.472  11.321 -0.7119 -1.3472 -0.8084
 8347TIP3    H249237   7.287   3.426  11.238 -0.8611 -3.0431 -0.1206
 8348TIP3   OH249238   6.664   3.828  17.764  0.2390  0.4854 -0.1897
 8348TIP3    H149239   6.697   3.820  17.853 -0.9745 -0.7325  0.1722
 8348TIP3    H249240   6.737   3.867  17.715  2.0803 -1.7225  0.6370
 8349TIP3   OH249241   0.865   2.402  10.293 -0.0985  0.3661  0.2552
 8349TIP3    H149242   0.956   2.395  10.322 -0.4176  0.2488  1.2493
 8349TIP3    H249243   0.853   2.329  10.233  0.0678 -0.4487  1.1929
 8350TIP3   OH249244   7.297   6.342  12.286 -0.2514  0.5542  0.2648
 8350TIP3    H149245   7.322   6.419  12.337  0.3510 -0.6775  1.9373
 8350TIP3    H249246   7.367   6.279  12.304 -0.9851 -0.5451 -0.6674
 8351TIP3   OH249247   4.836   6.598  10.950  0.3587  1.0207  0.4300
 8351TIP3    H149248   4.766   6.599  11.015  0.4753 -0.2702  0.6041
 8351TIP3    H249249   4.811   6.528  10.889  1.2024  0.9371  0.1691
 8352TIP3   OH249250   0.227   7.195  11.528  0.5544 -0.0426 -0.0834
 8352TIP3    H149251   0.313   7.183  11.486  0.3921  0.7030 -0.6398
 8352TIP3    H249252   0.179   7.252  11.468 -0.1468 -0.0253  0.4889
 8353TIP3   OH249253   0.519   0.695  12.986  0.6098 -0.4933  0.1244
 8353TIP3    H149254   0.561   0.702  13.072  0.0904 -1.7836  0.4999
 8353TIP3    H249255   0.517   0.602  12.967 -1.4809 -0.4533 -0.1645
 8354TIP3   OH249256   1.328   0.653  10.349 -0.6261 -0.4645  0.3418
 8354TIP3    H149257   1.419   0.648  10.321 -0.9224 -1.4198 -0.4779
 8354TIP3    H249258   1.329   0.715  10.423  0.3568  1.1159 -0.9336
 8355TIP3   OH249259   5.209   4.444  10.784 -0.7907  0.4831  0.0557
 8355TIP3    H149260   5.212   4.536  10.759 -0.5852  0.0973 -1.4117
 8355TIP3    H249261   5.292   4.428  10.828  0.7655  0.1809 -2.7958
 8356TIP3   OH249262   4.408   0.775  12.084 -0.2651 -0.3570  0.3065
 8356TIP3    H149263   4.484   0.788  12.028 -0.3290  0.7261  0.4584
 8356TIP3    H249264   4.440   0.724  12.158  0.8165  1.8221  1.4149
 8357TIP3   OH249265   4.347   0.661  10.310 -0.3151  0.0814 -0.5058
 8357TIP3    H149266   4.354   0.669  10.214 -0.1224 -2.0905 -0.7376
 8357TIP3    H249267   4.436   0.675  10.342 -0.6720  2.5555 -0.4175
 8358TIP3   OH249268   5.963   0.519  12.194  0.0804  0.4455  0.1618
 8358TIP3    H149269   6.039   0.465  12.216  1.0295  1.0160 -1.4959
 8358TIP3    H249270   5.952   0.507  12.099 -1.2602  1.2038  0.1946
 8359TIP3   OH249271   5.788   5.792  13.173  0.8341 -0.1642  0.1937
 8359TIP3    H149272   5.871   5.749  13.191  0.3459 -2.0795 -1.6471
 8359TIP3    H249273   5.811   5.882  13.149  2.4292 -0.7499 -0.5931
 8360TIP3   OH249274   2.964   2.085  12.774  0.1533  0.2498  0.0665
 8360TIP3    H149275   2.962   2.011  12.835  0.5408  0.5462  0.4455
 8360TIP3    H249276   3.025   2.147  12.814 -0.5023  0.9642 -0.0267
 8361TIP3   OH249277   4.165   0.106  11.810 -0.0337  0.0036 -0.2475
 8361TIP3    H149278   4.091   0.128  11.754  0.3786 -0.7035 -1.1002
 8361TIP3    H249279   4.187   0.016  11.786  0.3330 -0.2162  0.8603
 8362TIP3   OH249280   5.142   1.078  11.675  0.0756 -0.1698  0.1693
 8362TIP3    H149281   5.210   1.135  11.709  0.9859 -0.2731 -1.3727
 8362TIP3    H249282   5.061   1.128  11.683  0.0543 -0.5205  3.1989
 8363TIP3   OH249283   0.623   5.754  12.869 -0.4126 -0.1240 -0.7920
 8363TIP3    H149284   0.660   5.679  12.822 -0.7389 -0.8140  0.0229
 8363TIP3    H249285   0.594   5.717  12.953 -0.6841  0.8958 -0.4285
 8364TIP3   OH249286   1.618   7.001  10.440 -0.0491 -0.7605 -0.2464
 8364TIP3    H149287   1.581   6.996  10.351 -0.1002  1.3663 -0.4159
 8364TIP3    H249288   1.707   7.032  10.426 -0.2942  0.3064  0.4588
 8365TIP3   OH249289   0.407   3.272  12.664  0.5359  0.2407 -0.0832
 8365TIP3    H149290   0.378   3.182  12.673 -0.8696  0.4891 -1.7518
 8365TIP3    H249291   0.463   3.287  12.741  0.8139 -2.0240  0.2069
 8366TIP3   OH249292   0.709   2.236  11.251 -0.2162  0.0818 -0.2835
 8366TIP3    H149293   0.754   2.171  11.197 -0.2977 -0.9858  0.8979
 8366TIP3    H249294   0.727   2.320  11.207  1.0976 -0.5625 -1.0339
 8367TIP3   OH249295   3.167   4.286  12.111 -0.5178  0.1906  0.1302
 8367TIP3    H149296   3.236   4.284  12.045  0.1508 -0.9109  0.8149
 8367TIP3    H249297   3.214   4.298  12.194 -1.0107 -1.6712  0.7330
 8368TIP3   OH249298   0.900   4.839  12.847 -0.0998 -0.0428  0.2625
 8368TIP3    H149299   0.914   4.902  12.918 -2.0381 -0.6319  1.2390
 8368TIP3    H249300   0.914   4.753  12.886  1.0454 -0.3205 -0.6830
 8369TIP3   OH249301   3.203   5.288  12.335  0.1710  0.0474  0.2684
 8369TIP3    H149302   3.169   5.257  12.251  1.0795  2.9331 -1.3191
 8369TIP3    H249303   3.251   5.214  12.371 -0.7600 -1.4633 -1.4741
 8370TIP3   OH249304   3.102   2.336  12.985 -0.2976 -0.7550 -0.2006
 8370TIP3    H149305   3.146   2.421  12.978 -1.0944 -0.3681 -0.6549
 8370TIP3    H249306   3.147   2.281  12.921 -0.9244 -0.1435 -1.2065
 8371TIP3   OH249307   2.699   1.448  11.443  0.4397  0.1513  0.0997
 8371TIP3    H149308   2.778   1.395  11.455  0.8841  0.8946  0.5814
 8371TIP3    H249309   2.635   1.388  11.404  1.0348 -0.6364  0.3068
 8372TIP3   OH249310   2.663   6.900  12.219  0.1046  0.0826 -0.6355
 8372TIP3    H149311   2.668   6.940  12.306 -0.7015  2.5360 -1.6228
 8372TIP3    H249312   2.754   6.885  12.194  0.3478 -0.4297  0.5189
 8373TIP3   OH249313   6.050   3.487  12.802  0.3947 -0.3685  0.0127
 8373TIP3    H149314   6.128   3.479  12.747  0.1051 -0.0573 -0.4558
 8373TIP3    H249315   5.978   3.465  12.744 -0.1240  2.0317 -0.3846
 8374TIP3   OH249316   2.201   6.300  10.448 -0.4119  0.4188  0.6276
 8374TIP3    H149317   2.221   6.255  10.529  1.4746  2.9626  1.7019
 8374TIP3    H249318   2.276   6.282  10.391  0.8602  2.6982  1.4081
 8375TIP3   OH249319   3.082   5.874  12.381 -0.2882  0.2077  0.2949
 8375TIP3    H149320   3.113   5.804  12.439  2.5826  0.9892 -0.1777
 8375TIP3    H249321   3.116   5.954  12.419  0.1861  0.9142 -1.5233
 8376TIP3   OH249322   3.520   6.367  11.061  0.1989  0.3067  0.8216
 8376TIP3    H149323   3.511   6.430  11.132 -2.8310  0.5813  0.3645
 8376TIP3    H249324   3.540   6.420  10.984 -1.9688  0.7647  0.5092
 8377TIP3   OH249325   1.331   6.031  10.967  0.0285  0.4269 -0.2066
 8377TIP3    H149326   1.405   6.067  10.918  1.0614 -1.2925  0.0232
 8377TIP3    H249327   1.281   5.981  10.902  1.0438 -1.3183  0.2969
 8378TIP3   OH249328   4.456   2.339  12.146 -0.1725  0.3757 -0.6103
 8378TIP3    H149329   4.452   2.415  12.205 -0.4920  0.3862 -0.6491
 8378TIP3    H249330   4.499   2.271  12.198  1.0004  0.8665 -0.8824
 8379TIP3   OH249331   3.525   0.275  12.675  0.5347 -0.1245  0.1121
 8379TIP3    H149332   3.449   0.286  12.619 -0.2716 -1.5952  0.8449
 8379TIP3    H249333   3.517   0.185  12.708  1.7410  0.2201  1.4359
 8380TIP3   OH249334   7.658   6.389  13.220 -0.4037  0.0055 -0.6946
 8380TIP3    H149335   7.572   6.346  13.224 -0.6113  0.4361 -0.4722
 8380TIP3    H249336   7.717   6.327  13.262 -0.4534 -0.6476 -1.5478
 8381TIP3   OH249337   2.826   6.285  12.023  0.0353  0.0400  0.3450
 8381TIP3    H149338   2.790   6.352  12.080  1.1767  0.5701  0.4721
 8381TIP3    H249339   2.899   6.247  12.073 -1.2616 -2.1160  0.7640
 8382TIP3   OH249340   1.113   6.080  11.644  0.6772  0.4461  0.0972
 8382TIP3    H149341   1.175   6.129  11.698  1.1349  1.5656 -1.3671
 8382TIP3    H249342   1.106   6.131  11.563 -1.9996  0.2675  0.1044
 8383TIP3   OH249343   5.151   6.540  11.143 -0.0607 -0.0219 -0.2721
 8383TIP3    H149344   5.123   6.525  11.234  0.1311  1.3216  0.0297
 8383TIP3    H249345   5.227   6.597  11.152  0.4414 -0.5177 -1.2595
 8384TIP3   OH249346   2.998   3.158  13.349  0.3787 -0.2419 -0.2708
 8384TIP3    H149347   3.046   3.233  13.385 -0.3893  0.6463 -1.0416
 8384TIP3    H249348   2.958   3.116  13.425  2.1803 -0.8843  0.3680
 8385TIP3   OH249349   5.301   6.278  11.578 -0.2851  0.0531 -0.2008
 8385TIP3    H149350   5.377   6.326  11.610 -1.4590 -0.3351  3.6997
 8385TIP3    H249351   5.332   6.230  11.502  3.0773  0.6785  0.6347
 8386TIP3   OH249352   3.436   1.854  11.304  0.1573  0.2323  0.0895
 8386TIP3    H149353   3.429   1.761  11.326  0.8696  0.6844  2.5757
 8386TIP3    H249354   3.362   1.895  11.349 -0.6309  0.8150 -1.6524
 8387TIP3   OH249355   6.498   0.447  11.070 -0.4064 -0.2881  0.0320
 8387TIP3    H149356   6.465   0.537  11.077  1.3927  0.5403 -1.2950
 8387TIP3    H249357   6.520   0.423  11.160 -1.1572  0.5146  0.4428
 8388TIP3   OH249358   5.370   2.649  12.029  0.1873 -0.0606 -0.2737
 8388TIP3    H149359   5.446   2.640  12.087 -0.6221 -1.1250  0.6723
 8388TIP3    H249360   5.360   2.562  11.991  0.2703  0.4440 -1.4877
 8389TIP3   OH249361   0.087   3.608  10.670  0.2656 -0.2137 -0.0540
 8389TIP3    H149362   0.003   3.596  10.626  0.3856 -0.8592 -0.1226
 8389TIP3    H249363   0.104   3.702  10.663 -1.0538  0.1426  1.0930
 8390TIP3   OH249364   2.089   2.260  12.405 -0.4390 -0.3296  0.1858
 8390TIP3    H149365   2.037   2.341  12.406 -1.3626 -0.9094  0.7990
 8390TIP3    H249366   2.029   2.194  12.369  0.0803 -0.8836  0.3254
 8391TIP3   OH249367   3.623   0.106  11.603  1.2075 -0.0102 -0.3989
 8391TIP3    H149368   3.600   0.194  11.572  1.8924 -0.5093 -2.4318
 8391TIP3    H249369   3.578   0.047  11.543  0.2404 -1.0995  1.3235
 8392TIP3   OH249370   4.495   0.260  11.577  0.6628 -0.7604 -0.2182
 8392TIP3    H149371   4.544   0.198  11.632  0.8463 -0.2561  0.1968
 8392TIP3    H249372   4.524   0.346  11.606  1.7803 -0.4712 -2.0309
 8393TIP3   OH249373   4.852   1.756  12.006  0.4264  0.3413  0.4886
 8393TIP3    H149374   4.822   1.727  11.920  2.3538  0.0491 -0.1368
 8393TIP3    H249375   4.879   1.675  12.050  1.3646  0.6870  0.5672
 8394TIP3   OH249376   3.432   4.899  11.042  0.0948  0.5358  0.3908
 8394TIP3    H149377   3.509   4.844  11.027  0.0829  0.3821  0.8716
 8394TIP3    H249378   3.459   4.985  11.010 -0.0129  0.1793 -0.6838
 8395TIP3   OH249379   1.615   7.067  11.668 -0.0097  0.0723 -0.4292
 8395TIP3    H149380   1.590   7.138  11.608 -0.8931  0.2406  0.1151
 8395TIP3    H249381   1.615   7.107  11.755  1.3718 -0.1460 -0.3045
 8396TIP3   OH249382   2.302   4.748  12.509 -0.3007  0.1797 -0.9913
 8396TIP3    H149383   2.341   4.735  12.595 -1.3220  0.6024 -0.4465
 8396TIP3    H249384   2.349   4.688  12.452  1.2106  0.7275 -0.3957
 8397TIP3   OH249385   0.184   1.331  11.940  0.2594 -0.3203  0.1299
 8397TIP3    H149386   0.209   1.410  11.892 -1.0906 -0.1803 -0.4040
 8397TIP3    H249387   0.246   1.264  11.910  0.5753  0.2183 -0.4439
 8398TIP3   OH249388   5.447   4.869  12.520  0.1486 -0.3421  0.4649
 8398TIP3    H149389   5.509   4.899  12.586  0.1719 -0.3985  0.4692
 8398TIP3    H249390   5.487   4.893  12.436 -0.6108  1.1224  0.5029
 8399TIP3   OH249391   7.656   3.944  10.823  0.5444  0.0592  0.0080
 8399TIP3    H149392   7.652   3.863  10.874 -0.4459 -0.5694 -1.0355
 8399TIP3    H249393   7.578   3.993  10.848  0.7786  0.3866  0.1121
 8400TIP3   OH249394   3.364   6.872  10.826  0.3558 -0.1681 -0.4264
 8400TIP3    H149395   3.419   6.941  10.791  1.1878 -0.7323 -0.2670
 8400TIP3    H249396   3.284   6.916  10.854  0.9645  0.7525 -0.1108
 8401TIP3   OH249397   1.140   0.356  11.142 -0.0635 -0.0451 -0.0522
 8401TIP3    H149398   1.130   0.434  11.088  0.7945  0.7977  0.9718
 8401TIP3    H249399   1.139   0.283  11.080 -0.9393  0.7637 -1.0172
 8402TIP3   OH249400   0.270   6.868  13.125  0.1642  0.3300  0.1053
 8402TIP3    H149401   0.322   6.842  13.049  0.5514  1.4788 -0.0463
 8402TIP3    H249402   0.308   6.820  13.198 -1.9490 -2.9616 -0.7800
 8403TIP3   OH249403   2.748   1.145  10.827 -0.6081  0.1854  0.0407
 8403TIP3    H149404   2.826   1.166  10.776 -1.0770 -1.1449 -1.3036
 8403TIP3    H249405   2.687   1.216  10.810  0.2415  1.2014  1.0476
 8404TIP3   OH249406   5.854   7.213  11.755  0.5164 -0.2983 -0.1466
 8404TIP3    H149407   5.765   7.242  11.732  0.0039 -1.0065  0.8712
 8404TIP3    H249408   5.885   7.168  11.677 -0.6569 -1.4534  0.0158
 8405TIP3   OH249409   5.750   1.001  11.203  0.0781  0.2533  0.6078
 8405TIP3    H149410   5.804   0.928  11.234 -0.5166  0.2119  1.5853
 8405TIP3    H249411   5.665   0.988  11.246 -1.1818 -0.4129 -1.8813
 8406TIP3   OH249412   4.264   1.303  11.074 -0.8563 -0.0808  0.1707
 8406TIP3    H149413   4.265   1.239  11.145  0.8328 -0.2377  0.0476
 8406TIP3    H249414   4.199   1.368  11.100  0.9239  0.8157  2.7508
 8407TIP3   OH249415   1.675   1.766  12.588  0.0158 -0.0497 -0.3268
 8407TIP3    H149416   1.718   1.692  12.546  0.3070 -0.0163 -0.0988
 8407TIP3    H249417   1.725   1.779  12.669 -0.5281 -0.1093  0.0239
 8408TIP3   OH249418   7.547   2.401  11.479 -0.0537  0.4287 -0.1391
 8408TIP3    H149419   7.524   2.335  11.414  1.6765 -0.5727  0.1869
 8408TIP3    H249420   7.571   2.478  11.428  1.6705 -0.4624 -0.7913
 8409TIP3   OH249421   4.233   1.019  11.519  0.2502 -0.2463  0.2838
 8409TIP3    H149422   4.215   0.968  11.598  1.4035 -0.5056  0.3935
 8409TIP3    H249423   4.310   1.072  11.542  3.1996 -3.2028 -1.8361
 8410TIP3   OH249424   3.835   2.960  10.880  0.6841  0.6255  0.5158
 8410TIP3    H149425   3.874   2.938  10.795 -0.2011  2.5437 -0.4712
 8410TIP3    H249426   3.894   3.024  10.918 -0.3300  1.9362 -0.0174
 8411TIP3   OH249427   5.510   1.426  12.070 -0.2036 -0.0102 -0.1354
 8411TIP3    H149428   5.531   1.424  11.976 -2.2962 -0.7410 -0.6433
 8411TIP3    H249429   5.532   1.515  12.097  3.5220 -0.6522 -0.4756
 8412TIP3   OH249430   3.562   2.862  10.727 -0.4164 -0.2228  0.5922
 8412TIP3    H149431   3.469   2.885  10.725 -0.4669 -0.3097 -1.6751
 8412TIP3    H249432   3.605   2.937  10.767 -1.4296 -0.0810  1.4432
 8413TIP3   OH249433   5.032   6.230  11.547 -0.0117  0.2813 -0.0350
 8413TIP3    H149434   5.118   6.260  11.578  1.0222 -0.7709 -1.7249
 8413TIP3    H249435   5.006   6.162  11.610  1.2082 -0.5679 -0.4099
 8414TIP3   OH249436   0.801   4.636  10.814 -0.0972  0.3931  0.0858
 8414TIP3    H149437   0.804   4.542  10.832 -1.2545  0.1513 -0.8164
 8414TIP3    H249438   0.880   4.654  10.764  0.4349  0.0209  0.7874
 8415TIP3   OH249439   7.264   2.269  12.094 -0.5457  0.1525  0.3559
 8415TIP3    H149440   7.253   2.212  12.018 -2.0807 -0.3858  0.9252
 8415TIP3    H249441   7.312   2.345  12.062  0.2342 -0.7963 -0.7665
 8416TIP3   OH249442   6.050   2.616  11.738 -0.4040 -0.0688 -0.3679
 8416TIP3    H149443   6.053   2.536  11.791 -0.5973 -0.1417 -0.4655
 8416TIP3    H249444   6.138   2.653  11.746 -1.0254  1.1244  1.8575
 8417TIP3   OH249445   1.120   7.533  10.538  0.1115  1.2265  0.1479
 8417TIP3    H149446   1.052   7.589  10.500 -2.1961  0.3258  2.6173
 8417TIP3    H249447   1.095   7.524  10.630  2.1922 -1.2323  0.5818
 8418TIP3   OH249448   3.234   1.030  11.837 -0.3642  0.0569 -0.0012
 8418TIP3    H149449   3.267   0.956  11.785  0.8643  0.5833 -0.0152
 8418TIP3    H249450   3.311   1.085  11.851 -0.9139  0.4924  1.4446
 8419TIP3   OH249451   1.410   4.040  11.392 -0.5345  0.7305 -0.2005
 8419TIP3    H149452   1.350   4.087  11.335  1.2390  2.8336 -0.4704
 8419TIP3    H249453   1.468   3.993  11.332 -1.4095 -0.7338  0.0438
 8420TIP3   OH249454   5.384   1.355  11.255 -0.7024  0.3156 -0.4012
 8420TIP3    H149455   5.308   1.328  11.204 -0.2775 -0.8119 -0.4767
 8420TIP3    H249456   5.358   1.341  11.346 -0.6764  0.1542 -0.4178
 8421TIP3   OH249457   1.390   6.801  13.522 -0.1209  0.3060 -0.3894
 8421TIP3    H149458   1.347   6.879  13.488 -0.7382  0.1550  0.0270
 8421TIP3    H249459   1.450   6.774  13.452 -0.3444  0.8050 -0.7770
 8422TIP3   OH249460   6.190   0.310  13.073  0.2260  1.0261  0.4753
 8422TIP3    H149461   6.115   0.283  13.127 -0.1400  0.8919 -0.0959
 8422TIP3    H249462   6.155   0.316  12.984  1.0087  0.4564  0.1116
 8423TIP3   OH249463   6.704   1.724  12.419  0.6338  0.2804  0.3808
 8423TIP3    H149464   6.713   1.645  12.471  0.4249  0.1832  0.2711
 8423TIP3    H249465   6.683   1.793  12.483  0.1586  0.1191  0.4049
 8424TIP3   OH249466   7.054   1.940  12.215  0.1525 -0.4354  0.5069
 8424TIP3    H149467   6.974   1.968  12.259 -0.2530  0.1318 -0.5679
 8424TIP3    H249468   7.124   1.990  12.259 -0.4833  1.8630 -0.9409
 8425TIP3   OH249469   4.269   1.218  13.139  0.1500 -0.7444  0.0699
 8425TIP3    H149470   4.208   1.225  13.213 -2.6429 -1.5516 -1.9658
 8425TIP3    H249471   4.313   1.303  13.136  0.2349 -0.6457  2.5142
 8426TIP3   OH249472   7.066   2.416  10.728  0.1773  0.3705 -0.4311
 8426TIP3    H149473   7.062   2.469  10.808 -1.2300  2.5446 -1.8243
 8426TIP3    H249474   7.149   2.369  10.735  1.2487  2.3099  1.2182
 8427TIP3   OH249475   6.048   6.870  12.496  0.3248 -0.0072 -0.5629
 8427TIP3    H149476   6.069   6.823  12.576 -0.0997 -0.0623 -0.4818
 8427TIP3    H249477   5.958   6.845  12.475  1.1899 -1.9063 -2.3968
 8428TIP3   OH249478   3.147   6.027  12.076 -0.3170  0.6445 -0.4971
 8428TIP3    H149479   3.127   5.935  12.059 -0.2017  0.5145  0.0534
 8428TIP3    H249480   3.234   6.026  12.117 -0.7073  0.9138  0.3655
 8429TIP3   OH249481   4.479   1.270  10.545 -0.0308  0.2596  0.2069
 8429TIP3    H149482   4.444   1.291  10.631  1.1956  1.8418  0.3640
 8429TIP3    H249483   4.425   1.320  10.484  0.5964  1.0246  0.2705
 8430TIP3   OH249484   0.319   6.753  11.685  0.3608  0.1692  0.2313
 8430TIP3    H149485   0.368   6.683  11.641  0.3893  1.7642 -2.4758
 8430TIP3    H249486   0.387   6.810  11.722  0.4714  0.4785 -0.4262
 8431TIP3   OH249487   7.542   4.289  13.123  0.3257 -0.1190 -0.4274
 8431TIP3    H149488   7.476   4.346  13.161  0.6816  0.3672 -0.5283
 8431TIP3    H249489   7.495   4.240  13.055 -0.2983 -0.9663  0.5983
 8432TIP3   OH249490   0.207   6.529  12.026  0.2944 -0.5274  0.6668
 8432TIP3    H149491   0.181   6.475  12.101  2.0926 -1.9627  0.3332
 8432TIP3    H249492   0.177   6.479  11.949 -0.7812  0.5191  0.3740
 8433TIP3   OH249493   5.568   6.348  11.633 -0.0956 -0.3276  0.5349
 8433TIP3    H149494   5.602   6.282  11.694 -0.0022  0.3701  1.2521
 8433TIP3    H249495   5.602   6.431  11.667  0.6810  0.0028 -0.9600
 8434TIP3   OH249496   0.468   1.339  11.080  0.0181 -0.1212  0.2515
 8434TIP3    H149497   0.541   1.278  11.093  0.2351 -0.0099 -0.3982
 8434TIP3    H249498   0.394   1.283  11.055  0.1752 -0.1381 -0.1864
 8435TIP3   OH249499   3.424   6.071  11.133 -0.3595  0.3188 -0.9584
 8435TIP3    H149500   3.483   6.005  11.170  0.5447  3.0609  3.1583
 8435TIP3    H249501   3.482   6.143  11.108 -1.6209  1.2572 -1.2718
 8436TIP3   OH249502   5.328   4.320  11.363  0.5583  0.0449 -0.5758
 8436TIP3    H149503   5.305   4.389  11.424 -1.0805  2.8128 -3.9639
 8436TIP3    H249504   5.257   4.256  11.372 -0.9307  1.5535 -1.0815
 8437TIP3   OH249505   5.078   4.457  11.888  0.1590  1.1529 -0.8774
 8437TIP3    H149506   5.040   4.513  11.821 -0.5881  0.3940 -1.1108
 8437TIP3    H249507   5.087   4.513  11.965  1.1879  2.0813 -1.6438
 8438TIP3   OH249508   6.234   5.602  11.564  0.1810  0.2017 -0.0091
 8438TIP3    H149509   6.292   5.671  11.530 -1.3682  1.1183 -0.9066
 8438TIP3    H249510   6.159   5.602  11.504 -0.6471 -1.1109  0.9726
 8439TIP3   OH249511   7.158   3.798  10.891 -0.3531  0.0621  0.1735
 8439TIP3    H149512   7.074   3.832  10.859  0.5737  0.7745 -1.5967
 8439TIP3    H249513   7.141   3.776  10.983 -2.3454  0.6246 -0.0175
 8440TIP3   OH249514   7.174   5.459  10.616 -0.4759  0.1397 -0.1628
 8440TIP3    H149515   7.147   5.519  10.685 -0.9750 -0.4733  0.1889
 8440TIP3    H249516   7.105   5.467  10.549  0.3113  1.1722 -0.8787
 8441TIP3   OH249517   7.313   3.687  10.708 -0.1279  0.1700  0.1483
 8441TIP3    H149518   7.284   3.604  10.745 -0.3301  0.3313  0.3543
 8441TIP3    H249519   7.275   3.754  10.765 -0.2773  0.4154 -0.2277
 8442TIP3   OH249520   2.720   2.001  10.775  0.6939  0.0088  0.0883
 8442TIP3    H149521   2.630   2.027  10.796 -0.3594 -1.4346 -2.2209
 8442TIP3    H249522   2.755   2.074  10.724  0.5722  0.2521  0.3493
 8443TIP3   OH249523   5.119   6.917  10.936 -0.4992  0.0662 -0.0476
 8443TIP3    H149524   5.213   6.903  10.925  0.0189  2.4443  0.8761
 8443TIP3    H249525   5.088   6.945  10.850  0.3271  2.4495  0.3627
 8444TIP3   OH249526   0.483   4.746  12.966 -0.1619  0.1510  0.5105
 8444TIP3    H149527   0.557   4.744  13.027  0.2554  1.3901  0.0753
 8444TIP3    H249528   0.467   4.654  12.944  1.9385 -0.0941 -0.1973
 8445TIP3   OH249529   5.062   7.193  11.350  0.4558 -0.1727  0.2879
 8445TIP3    H149530   5.113   7.145  11.285  3.8478  3.0695  0.2064
 8445TIP3    H249531   5.070   7.141  11.430  0.5046 -1.6926 -0.6672
 8446TIP3   OH249532   1.756   2.522  11.591  0.2654  0.7714 -0.6555
 8446TIP3    H149533   1.846   2.537  11.561  0.1861  2.4166 -0.1908
 8446TIP3    H249534   1.711   2.605  11.574 -0.9639  0.2336 -0.1594
 8447TIP3   OH249535   3.963   1.810  12.264  0.3451 -0.3597  0.3662
 8447TIP3    H149536   3.958   1.856  12.180  3.5023 -0.2305  0.1349
 8447TIP3    H249537   4.033   1.855  12.311  0.6407 -2.2837  1.8642
 8448TIP3   OH249538   0.914   0.462  12.464  0.2216  0.0760  0.2589
 8448TIP3    H149539   0.863   0.538  12.493 -0.1005 -0.4936  1.2205
 8448TIP3    H249540   0.983   0.454  12.529 -1.1079 -1.8447  1.5484
 8449TIP3   OH249541   5.507   0.595  11.237  0.5711  0.2928  0.3385
 8449TIP3    H149542   5.424   0.587  11.285 -0.6722  4.3272 -0.7445
 8449TIP3    H249543   5.506   0.522  11.176 -1.4186 -0.6868  1.4184
 8450TIP3   OH249544   5.480   3.109  12.428 -0.2428  0.0642  0.0749
 8450TIP3    H149545   5.430   3.033  12.398 -0.3854  0.6878 -1.3243
 8450TIP3    H249546   5.492   3.163  12.350  3.3826 -0.4509  0.0788
 8451TIP3   OH249547   1.123   1.704  11.286  0.1005  0.5932  1.0518
 8451TIP3    H149548   1.037   1.661  11.283 -0.0644  0.9493  0.3715
 8451TIP3    H249549   1.107   1.784  11.336 -0.7385  2.2385 -1.6321
 8452TIP3   OH249550   6.527   6.895  11.173 -0.2563 -0.5391 -0.0787
 8452TIP3    H149551   6.575   6.829  11.123 -2.6239 -0.2718 -2.9487
 8452TIP3    H249552   6.473   6.845  11.233 -0.8675 -1.1667 -1.1234
 8453TIP3   OH249553   5.013   1.693  12.895  0.0392 -0.2862  0.4184
 8453TIP3    H149554   4.999   1.607  12.856 -0.8741 -0.4160  1.0049
 8453TIP3    H249555   5.089   1.681  12.952  0.5678 -0.4266 -0.3044
 8454TIP3   OH249556   0.591   4.627  12.414 -0.0036 -0.1421 -0.1689
 8454TIP3    H149557   0.500   4.658  12.406  0.6666  1.9377 -0.4097
 8454TIP3    H249558   0.634   4.694  12.466  1.2054 -1.5976  0.7604
 8455TIP3   OH249559   0.868   2.151  10.144 -0.3677  0.2427  0.1653
 8455TIP3    H149560   0.932   2.098  10.096 -2.5634 -0.8317 -1.7826
 8455TIP3    H249561   0.830   2.091  10.207 -2.6941 -0.5925 -1.8869
 8456TIP3   OH249562   5.218   1.488  11.554 -0.5119 -0.7429 -0.1204
 8456TIP3    H149563   5.175   1.532  11.481  0.0948  1.4228  0.7564
 8456TIP3    H249564   5.259   1.558  11.604  2.2581 -2.5070  0.2843
 8457TIP3   OH249565   4.317   6.400  11.847  0.1273  0.6390  0.6092
 8457TIP3    H149566   4.237   6.439  11.812 -0.0574  2.0842  2.5099
 8457TIP3    H249567   4.365   6.371  11.769 -0.5198  3.1831 -0.8316
 8458TIP3   OH249568   0.876   1.678  12.893  0.0537 -0.2405  0.3438
 8458TIP3    H149569   0.959   1.694  12.849  0.8422 -0.6158  1.6398
 8458TIP3    H249570   0.889   1.595  12.940 -0.7777  0.0813  1.1855
 8459TIP3   OH249571   0.615   4.928  11.812  0.0563  0.1167  0.4359
 8459TIP3    H149572   0.594   5.020  11.824  0.2537  0.5298 -1.9866
 8459TIP3    H249573   0.711   4.925  11.810  0.0976 -0.3767  1.8434
 8460TIP3   OH249574   5.788   2.769  11.308 -0.3031 -0.1374  0.3110
 8460TIP3    H149575   5.777   2.858  11.275 -1.8926 -0.5141 -0.2359
 8460TIP3    H249576   5.821   2.780  11.397  3.0965  0.9333 -0.9210
 8461TIP3   OH249577   5.248   4.134  11.074  0.4340  0.3146 -0.0344
 8461TIP3    H149578   5.335   4.166  11.048  1.1489 -0.8407  0.8401
 8461TIP3    H249579   5.231   4.177  11.158 -0.6751  1.9363 -1.0292
 8462TIP3   OH249580   5.828   2.979  11.558  0.3541 -0.1311  0.0166
 8462TIP3    H149581   5.839   2.886  11.577  0.7057  0.2043  1.5625
 8462TIP3    H249582   5.777   3.013  11.632  0.2180  0.9107 -0.5328
 8463TIP3   OH249583   3.630   2.703  12.432 -0.2674 -0.0405  0.1597
 8463TIP3    H149584   3.597   2.793  12.435 -1.7455 -0.5392 -0.0520
 8463TIP3    H249585   3.555   2.649  12.459 -0.1744 -1.3531 -1.9622
 8464TIP3   OH249586   0.773   2.954  12.349 -0.2635 -0.4976 -0.0201
 8464TIP3    H149587   0.683   2.983  12.361  0.0258  0.5963 -0.3549
 8464TIP3    H249588   0.825   3.012  12.406  0.4688  0.5702 -1.7106
 8465TIP3   OH249589   1.816   3.775  12.205 -0.1764 -0.1112  0.1193
 8465TIP3    H149590   1.908   3.793  12.191 -0.5597  1.4428 -0.6101
 8465TIP3    H249591   1.779   3.858  12.236 -1.1652 -0.9533  1.3000
 8466TIP3   OH249592   1.367   5.724  12.537  0.4406  0.1653  0.1959
 8466TIP3    H149593   1.333   5.813  12.530 -0.0311 -0.0664 -0.6611
 8466TIP3    H249594   1.288   5.669  12.537  0.7433 -0.2702  0.3565
 8467TIP3   OH249595   6.956   1.393  11.007 -0.2964  0.0254  0.1210
 8467TIP3    H149596   6.968   1.488  11.018 -0.8587  0.0204  0.8557
 8467TIP3    H249597   6.865   1.377  11.033 -0.1346 -0.7483  0.2425
 8468TIP3   OH249598   0.919   7.147  11.131 -0.2532  0.0672  0.2192
 8468TIP3    H149599   1.006   7.172  11.103 -0.7005  0.9476 -0.4140
 8468TIP3    H249600   0.892   7.080  11.069 -0.3744  0.4297 -0.1195
 8469TIP3   OH249601   6.769   0.559  12.248 -0.2530 -0.2958 -0.1265
 8469TIP3    H149602   6.803   0.470  12.232 -0.4842 -0.5160  0.5519
 8469TIP3    H249603   6.728   0.584  12.166  0.3409 -0.5804 -0.5191
 8470TIP3   OH249604   0.527   4.711  10.816  0.2359 -0.3803 -0.3394
 8470TIP3    H149605   0.477   4.632  10.798 -0.8932  0.2087  0.0886
 8470TIP3    H249606   0.617   4.680  10.831 -0.0682 -1.5026 -0.7401
 8471TIP3   OH249607   1.707   4.244  12.843 -0.0383 -0.1493 -0.3449
 8471TIP3    H149608   1.618   4.232  12.810 -0.6446  1.0926  0.7362
 8471TIP3    H249609   1.722   4.168  12.900  0.6639 -1.7980 -2.6020
 8472TIP3   OH249610   1.092   2.775  11.360 -0.4602 -0.3123 -0.5601
 8472TIP3    H149611   1.103   2.847  11.423  2.0993 -0.6686 -0.4978
 8472TIP3    H249612   1.041   2.709  11.408 -0.2150  0.2232  0.4676
 8473TIP3   OH249613   4.845   7.210  12.508 -0.3441 -0.0382 -0.1012
 8473TIP3    H149614   4.851   7.190  12.602 -2.2548 -1.3535 -0.2128
 8473TIP3    H249615   4.751   7.212  12.489  0.0121 -0.6930 -2.1765
 8474TIP3   OH249616   2.915   6.802  10.511 -0.2672 -0.7728 -0.0949
 8474TIP3    H149617   2.825   6.827  10.534 -0.1598 -0.2028 -0.2722
 8474TIP3    H249618   2.960   6.885  10.500  0.3229 -1.0612  0.1372
 8475TIP3   OH249619   2.004   6.141  11.338  0.2551  0.0463  0.3803
 8475TIP3    H149620   1.997   6.062  11.393  0.1917  0.4817  1.0034
 8475TIP3    H249621   2.045   6.110  11.258 -0.8643 -0.8768  0.1213
 8476TIP3   OH249622   5.285   1.407  12.985 -0.5598  0.6860 -0.1125
 8476TIP3    H149623   5.369   1.392  12.942 -0.0880 -0.9574  1.2586
 8476TIP3    H249624   5.220   1.377  12.922  0.0582 -0.6969 -0.1281
 8477TIP3   OH249625   3.166   6.522  10.810  0.1994 -0.6015  0.1602
 8477TIP3    H149626   3.110   6.531  10.733  0.5093 -1.0598 -0.1266
 8477TIP3    H249627   3.255   6.534  10.775  0.2714  0.3571  0.6445
 8478TIP3   OH249628   5.858   6.405  11.952  0.2189 -0.6198 -0.2801
 8478TIP3    H149629   5.801   6.349  11.898 -1.7863 -0.0444  1.1359
 8478TIP3    H249630   5.799   6.468  11.993  1.8030 -0.3101  1.6993
 8479TIP3   OH249631   1.911   2.090  10.986 -0.0965 -0.3457  0.3456
 8479TIP3    H149632   1.933   2.034  10.912  0.8461 -0.0419  0.3777
 8479TIP3    H249633   1.910   2.031  11.062  0.5466 -0.3867  0.3268
 8480TIP3   OH249634   7.107   0.324  12.890  0.0399 -0.4020  0.0964
 8480TIP3    H149635   7.161   0.393  12.929  0.2008 -1.0037  0.9694
 8480TIP3    H249636   7.093   0.353  12.800  2.5401 -0.6121 -0.4438
 8481TIP3   OH249637   0.808   6.420  13.190  0.1834  0.1750 -0.0473
 8481TIP3    H149638   0.719   6.455  13.177 -0.1797 -0.5285  0.4907
 8481TIP3    H249639   0.810   6.340  13.137  0.1916 -0.2870  0.6397
 8482TIP3   OH249640   7.128   5.024  13.246  0.0538 -0.3714  0.6258
 8482TIP3    H149641   7.188   5.021  13.321 -0.8096  0.4590  1.3747
 8482TIP3    H249642   7.100   5.115  13.241 -2.0497 -0.9534  1.0319
 8483TIP3   OH249643   5.712   0.420  11.648 -0.0055 -0.4204  0.6912
 8483TIP3    H149644   5.772   0.345  11.650  1.6751  0.8082 -0.2829
 8483TIP3    H249645   5.691   0.432  11.555 -3.2028 -1.8149  1.1079
 8484TIP3   OH249646   5.926   7.151  12.191  0.1791 -0.4652 -0.2284
 8484TIP3    H149647   6.016   7.146  12.222  0.1707  1.4207  0.2379
 8484TIP3    H249648   5.903   7.061  12.167  1.4751 -1.3509  1.6362
 8485TIP3   OH249649   1.327   7.087  10.833 -0.5953  0.8125 -0.2449
 8485TIP3    H149650   1.281   7.028  10.773 -0.8119  0.8910 -0.1590
 8485TIP3    H249651   1.412   7.100  10.793 -1.1133  1.7243 -1.0962
 8486TIP3   OH249652   5.574   5.387  10.985 -0.4070  0.6860  0.3284
 8486TIP3    H149653   5.610   5.470  11.016  1.7410 -0.2709  0.5945
 8486TIP3    H249654   5.528   5.351  11.060  1.0555  0.3995  1.1386
 8487TIP3   OH249655   4.046   0.002  11.244  0.3386 -0.2177 -0.1690
 8487TIP3    H149656   3.979  -0.036  11.187  0.9583  0.2551 -1.2498
 8487TIP3    H249657   4.012   0.089  11.266 -0.8585 -1.1603  1.9151
 8488TIP3   OH249658   6.539   2.889  11.352 -0.8247  0.2831  0.1597
 8488TIP3    H149659   6.474   2.848  11.295 -1.1774 -0.2134  0.9016
 8488TIP3    H249660   6.594   2.816  11.382  1.6747  0.9254 -2.3638
 8489TIP3   OH249661   1.922   4.062  10.660  0.5335 -0.0387 -0.3745
 8489TIP3    H149662   1.932   4.144  10.709  1.8911  0.9771 -2.1989
 8489TIP3    H249663   1.829   4.058  10.639  0.5357  1.3863 -0.7787
 8490TIP3   OH249664   0.124   2.396  10.557  0.1631  0.2522 -0.0444
 8490TIP3    H149665   0.131   2.456  10.482 -0.4487  1.5340  0.8685
 8490TIP3    H249666   0.204   2.410  10.607  0.4103 -0.3375 -0.2729
 8491TIP3   OH249667   0.141   5.007  10.757 -0.2296 -0.3072  0.8123
 8491TIP3    H149668   0.192   4.932  10.790 -0.4403 -0.7590  0.1188
 8491TIP3    H249669   0.207   5.069  10.725 -0.1036 -0.9731 -0.2587
 8492TIP3   OH249670   7.677   6.761  12.773  0.2377  0.0108 -0.4268
 8492TIP3    H149671   7.654   6.766  12.866 -0.3351 -1.0832 -0.4907
 8492TIP3    H249672   7.765   6.723  12.771 -0.4820 -1.8008 -0.3490
 8493TIP3   OH249673   1.016   3.814  10.871 -0.8086  0.3993 -0.2366
 8493TIP3    H149674   0.932   3.770  10.856 -0.1767 -0.5928 -0.9845
 8493TIP3    H249675   1.053   3.771  10.948 -0.1727 -0.4479 -0.9907
 8494TIP3   OH249676   4.152   6.992  11.919  0.0384 -0.0496  0.5059
 8494TIP3    H149677   4.070   7.026  11.883  0.0850  0.3587  0.7824
 8494TIP3    H249678   4.161   6.905  11.880  1.2416  1.2281 -2.3248
 8495TIP3   OH249679   2.876   0.749  10.732  0.8726 -0.1118  0.3145
 8495TIP3    H149680   2.829   0.816  10.782  1.0491  0.7395 -0.6339
 8495TIP3    H249681   2.933   0.706  10.796 -0.0201 -0.0863  1.1469
 8496TIP3   OH249682   6.622   7.211  12.035 -0.9585 -0.0035 -0.4771
 8496TIP3    H149683   6.552   7.159  11.997 -1.3926 -0.1421  0.4827
 8496TIP3    H249684   6.579   7.267  12.099 -0.1730 -0.3071  0.3504
 8497TIP3   OH249685   4.803   5.041  12.043 -0.3199 -0.3956 -0.2280
 8497TIP3    H149686   4.824   4.979  12.113 -1.0147  0.5513  0.8464
 8497TIP3    H249687   4.865   5.019  11.973  1.2934 -0.5336  1.1618
 8498TIP3   OH249688   4.524   4.221  10.920 -0.3115  0.0326  0.0113
 8498TIP3    H149689   4.523   4.281  10.995  0.4937 -0.7684  0.6832
 8498TIP3    H249690   4.605   4.171  10.931 -1.6082 -2.1131  0.2122
 8499TIP3   OH249691   5.132   1.162  12.209 -0.6466  0.5285  0.1496
 8499TIP3    H149692   5.068   1.170  12.279 -0.6707 -1.9415  0.5068
 8499TIP3    H249693   5.208   1.120  12.250  0.4333  1.5252 -0.7240
 8500TIP3   OH249694   1.840   0.504  12.217 -0.3627  0.4454  0.9486
 8500TIP3    H149695   1.903   0.512  12.289  0.0274  2.8229  0.4323
 8500TIP3    H249696   1.772   0.568  12.238 -1.1019 -0.0259  0.0411
 8501TIP3   OH249697   2.106   7.153  12.588 -0.2926  0.2137 -0.4085
 8501TIP3    H149698   2.034   7.167  12.649 -0.4673  2.4833 -1.0286
 8501TIP3    H249699   2.177   7.208  12.623 -0.3595  1.4760 -2.1057
 8502TIP3   OH249700   0.685   7.360  13.439 -0.1610 -0.7452  0.0494
 8502TIP3    H149701   0.630   7.378  13.363  0.5053 -0.8898 -0.4729
 8502TIP3    H249702   0.768   7.331  13.403  0.3819 -0.1973  0.8234
 8503TIP3   OH249703   0.453   2.341  10.773  0.3307 -0.8145 -0.1021
 8503TIP3    H149704   0.542   2.371  10.787 -0.3593  0.5920  1.6041
 8503TIP3    H249705   0.446   2.332  10.678  2.3727 -1.3246 -0.2493
 8504TIP3   OH249706   5.014   0.720  12.418 -0.1364  1.0202  0.4487
 8504TIP3    H149707   4.994   0.756  12.505 -0.6037 -0.8187  1.1379
 8504TIP3    H249708   5.110   0.721  12.413  0.1041 -1.9286  2.4235
 8505TIP3   OH249709   1.453   7.626  10.801 -0.1040  0.3012 -0.1276
 8505TIP3    H149710   1.429   7.534  10.812  0.3073  0.0732 -1.0388
 8505TIP3    H249711   1.412   7.652  10.718  0.1575  0.8162 -0.1008
 8506TIP3   OH249712   3.334   3.140  11.266 -0.3224  0.3561 -0.0153
 8506TIP3    H149713   3.240   3.145  11.287 -0.7079 -0.9923 -1.2853
 8506TIP3    H249714   3.359   3.051  11.290  1.0143  1.1380  1.6659
 8507TIP3   OH249715   6.873   4.656  10.987 -0.6460  0.0487  0.2549
 8507TIP3    H149716   6.881   4.653  11.083  0.5407  0.1334  0.1755
 8507TIP3    H249717   6.946   4.712  10.959 -0.7437 -0.2975 -0.7244
 8508TIP3   OH249718   2.545   0.658  13.297  0.0718 -0.0849 -0.2784
 8508TIP3    H149719   2.506   0.602  13.230  0.9736  1.1025 -1.8854
 8508TIP3    H249720   2.479   0.664  13.365 -1.8849  0.4706 -2.1044
 8509TIP3   OH249721   7.268   0.043  10.940 -0.1945 -0.2689 -0.0681
 8509TIP3    H149722   7.224   0.127  10.928 -1.6858 -1.1833 -1.1923
 8509TIP3    H249723   7.297   0.045  11.032 -1.4639  0.8847  0.3495
 8510TIP3   OH249724   1.449   1.678  11.718 -0.8449  0.4677  0.2007
 8510TIP3    H149725   1.366   1.635  11.700 -0.5901 -0.0670  0.3046
 8510TIP3    H249726   1.463   1.734  11.641 -1.5704  0.9957  0.4398
 8511TIP3   OH249727   3.671   4.162  13.020  0.1343 -0.0592 -0.4460
 8511TIP3    H149728   3.710   4.079  12.994  0.2329 -1.0199  2.3769
 8511TIP3    H249729   3.723   4.229  12.975  0.9231 -1.4649 -1.7155
 8512TIP3   OH249730   3.870   2.331  12.710  0.0075 -0.7416  0.1206
 8512TIP3    H149731   3.821   2.412  12.716  0.6325 -0.3223 -0.2418
 8512TIP3    H249732   3.806   2.262  12.724 -0.4673 -0.1750  0.7809
 8513TIP3   OH249733   0.734   2.633  12.377  0.2223  0.3405 -0.2142
 8513TIP3    H149734   0.772   2.717  12.351 -0.4457  1.3022  1.6846
 8513TIP3    H249735   0.651   2.657  12.420  0.2840 -1.2264  0.8735
 8514TIP3   OH249736   7.229   1.098  12.946  0.7356  0.3638 -0.1144
 8514TIP3    H149737   7.143   1.136  12.964 -0.6336 -1.9286 -1.2809
 8514TIP3    H249738   7.240   1.032  13.015  1.6345  0.7527  0.1158
 8515TIP3   OH249739   5.889   5.243  12.813 -0.3321 -0.1312 -0.0560
 8515TIP3    H149740   5.832   5.202  12.878 -0.1146 -1.2188 -0.5290
 8515TIP3    H249741   5.969   5.266  12.862 -0.1086 -1.0767  0.0440
 8516TIP3   OH249742   1.393   5.077  12.891 -0.4603  0.6822 -0.3489
 8516TIP3    H149743   1.445   5.044  12.964 -0.3277  1.2102 -0.2017
 8516TIP3    H249744   1.303   5.055  12.914 -0.2027 -1.5555 -1.2957
 8517TIP3   OH249745   3.442   1.275  10.683  0.3384  0.7554 -0.1345
 8517TIP3    H149746   3.505   1.347  10.683  2.0041 -0.6224  1.4095
 8517TIP3    H249747   3.483   1.206  10.631  0.5149 -0.4504  1.5381
 8518TIP3   OH249748   3.934   7.074  11.501  0.1700  0.0116  0.2223
 8518TIP3    H149749   3.949   7.048  11.592  3.1538 -2.1248 -0.7160
 8518TIP3    H249750   3.978   7.158  11.493  0.3681 -0.0464  0.6357
 8519TIP3   OH249751   3.078   4.951  13.401 -0.6344 -0.0215  0.0555
 8519TIP3    H149752   3.104   4.870  13.356  0.4318  1.0535 -1.3753
 8519TIP3    H249753   3.153   4.974  13.455 -0.4224  0.6727 -0.5255
 8520TIP3   OH249754   0.963   0.411  11.539  0.5348 -0.1494  0.0174
 8520TIP3    H149755   0.984   0.384  11.628 -0.4080 -0.3929  0.1772
 8520TIP3    H249756   1.041   0.389  11.488  1.9227  1.8436  1.1043
 8521TIP3   OH249757   3.369   5.392  11.850  0.2385 -0.2048 -0.3228
 8521TIP3    H149758   3.420   5.471  11.868  0.0946 -0.2962  0.5317
 8521TIP3    H249759   3.307   5.386  11.923 -0.5872 -0.4338 -1.0184
 8522TIP3   OH249760   2.956   6.557  10.618  0.1529  0.8309 -0.0151
 8522TIP3    H149761   2.936   6.639  10.573 -0.4596  0.2802 -0.7696
 8522TIP3    H249762   2.879   6.540  10.673  0.5259  1.0492  0.5905
 8523TIP3   OH249763   3.773   1.138  10.638 -0.0555  0.1942  0.2594
 8523TIP3    H149764   3.812   1.225  10.640  0.9799 -0.2423 -0.2165
 8523TIP3    H249765   3.728   1.134  10.553 -0.4137  0.3875  0.4371
 8524TIP3   OH249766   6.470   3.876  11.098  0.2298  0.0235  0.1002
 8524TIP3    H149767   6.470   3.885  11.193 -1.4967 -1.0632  0.2475
 8524TIP3    H249768   6.550   3.826  11.079  0.2207 -0.3787  1.0563
 8525TIP3   OH249769   3.664   6.571  12.558  0.9156 -0.3429 -0.5729
 8525TIP3    H149770   3.609   6.579  12.480 -1.0304 -1.1751  0.6075
 8525TIP3    H249771   3.644   6.650  12.609 -0.5503 -1.3985  0.6006
 8526TIP3   OH249772   6.410   2.295  11.637  0.2248 -0.2934 -0.3159
 8526TIP3    H149773   6.315   2.299  11.652  0.3324  1.3217  0.0876
 8526TIP3    H249774   6.441   2.228  11.697 -0.6169 -0.6346 -0.2423
 8527TIP3   OH249775   7.144   4.242  10.812 -0.0079  0.1444  0.2334
 8527TIP3    H149776   7.141   4.333  10.841 -0.8543 -0.0198  0.6995
 8527TIP3    H249777   7.052   4.216  10.808 -0.0078  0.1856 -2.7342
 8528TIP3   OH249778   1.480   1.413  11.471 -0.6709 -0.2338 -0.3699
 8528TIP3    H149779   1.518   1.357  11.404 -0.3382 -0.2864 -0.1402
 8528TIP3    H249780   1.387   1.416  11.451 -0.8700 -1.7362  0.2497
 8529TIP3   OH249781   2.468   0.796  10.852  0.0862  0.3961  0.6416
 8529TIP3    H149782   2.483   0.881  10.892 -3.2844  1.9144 -0.9543
 8529TIP3    H249783   2.389   0.762  10.894 -1.1951  0.2013 -1.7232
 8530TIP3   OH249784   2.452   1.908  10.908 -0.4110 -0.3287  0.3182
 8530TIP3    H149785   2.363   1.879  10.925  0.3538 -2.1981  1.4424
 8530TIP3    H249786   2.508   1.839  10.945  1.5056  0.7532 -0.3854
 8531TIP3   OH249787   0.569   3.495  11.528 -0.2096 -0.3858 -0.0283
 8531TIP3    H149788   0.598   3.414  11.486 -0.5366 -0.5975  0.1426
 8531TIP3    H249789   0.499   3.527  11.472  0.7446  0.4491 -0.7716
 8532TIP3   OH249790   0.962   6.629  13.509 -0.6479  0.0997 -0.3293
 8532TIP3    H149791   0.925   6.541  13.498  3.1344 -1.6929 -0.3778
 8532TIP3    H249792   1.013   6.624  13.590  0.4099  1.9063 -0.8221
 8533TIP3   OH249793   5.308   5.923  11.393 -0.0406  0.8441  0.1353
 8533TIP3    H149794   5.297   6.012  11.359 -0.1376  1.8789  2.6276
 8533TIP3    H249795   5.402   5.908  11.391 -0.1219  0.2813 -1.8215
 8534TIP3   OH249796   3.901   5.893  12.277 -0.5123  0.7254 -0.0605
 8534TIP3    H149797   3.945   5.809  12.293  0.8385  1.1378 -1.3391
 8534TIP3    H249798   3.813   5.869  12.249 -0.6063 -0.2017  0.9785
 8535TIP3   OH249799   4.518   2.568  11.565  0.0833  0.6024  0.7469
 8535TIP3    H149800   4.567   2.645  11.536  0.6353 -0.0285 -0.0587
 8535TIP3    H249801   4.531   2.565  11.660 -1.2285  2.3541  1.0305
 8536TIP3   OH249802   4.854   6.547  12.935  0.0134  0.1669  0.2712
 8536TIP3    H149803   4.877   6.578  12.848  0.0198 -3.3000 -1.0930
 8536TIP3    H249804   4.927   6.491  12.961 -1.6796 -1.9765  0.7259
 8537TIP3   OH249805   2.198   5.200  11.980  0.0678  0.3499 -0.0770
 8537TIP3    H149806   2.166   5.180  11.892  1.0578  0.3713 -0.4466
 8537TIP3    H249807   2.129   5.167  12.038  0.0061 -0.8892 -0.8089
 8538TIP3   OH249808   5.950   6.215  11.661 -0.6582  0.4463  0.3222
 8538TIP3    H149809   6.025   6.156  11.658  0.2774  1.4407  2.3066
 8538TIP3    H249810   5.895   6.188  11.587  1.3008 -0.7464 -0.7765
 8539TIP3   OH249811   4.284   0.209  12.036 -0.5167 -0.4185 -0.5200
 8539TIP3    H149812   4.349   0.198  11.967 -0.6828 -1.6102 -0.5058
 8539TIP3    H249813   4.201   0.183  11.996 -0.5491 -1.5482  0.2320
 8540TIP3   OH249814   4.518   3.273  11.909  0.8439  0.0350 -0.1958
 8540TIP3    H149815   4.577   3.261  11.984 -0.6964  1.0376  1.2588
 8540TIP3    H249816   4.436   3.233  11.938  0.4160 -0.1611 -1.6414
 8541TIP3   OH249817   4.045   6.951  10.571 -0.0054 -0.0471  0.5607
 8541TIP3    H149818   4.077   7.029  10.526 -0.1403  0.4210  1.2663
 8541TIP3    H249819   4.123   6.912  10.611 -0.3003  1.2235  2.4790
 8542TIP3   OH249820   4.273   3.175  12.398 -0.2643  0.1273  0.8351
 8542TIP3    H149821   4.360   3.146  12.371  0.8906  2.3220  2.0122
 8542TIP3    H249822   4.260   3.134  12.483 -1.1738 -1.5643 -0.0556
 8543TIP3   OH249823   0.874   5.834  11.956 -0.4999 -0.0973 -0.2332
 8543TIP3    H149824   0.906   5.912  12.001  0.3108 -0.3708 -0.3176
 8543TIP3    H249825   0.953   5.789  11.927 -0.9598 -0.9127 -0.2495
 8544TIP3   OH249826   5.849   5.075  11.411 -0.3057 -0.1024  0.3150
 8544TIP3    H149827   5.931   5.031  11.433 -0.3442 -0.7058 -0.6807
 8544TIP3    H249828   5.787   5.003  11.396 -0.3332  0.2434 -1.4922
 8545TIP3   OH249829   6.368   7.463  11.248  0.4381  0.0646 -0.0058
 8545TIP3    H149830   6.305   7.529  11.277  1.8642  0.9135  1.3343
 8545TIP3    H249831   6.314   7.392  11.212 -1.1807  1.4601 -0.4539
 8546TIP3   OH249832   4.288   5.887  12.372  0.3270 -0.4138  0.2553
 8546TIP3    H149833   4.221   5.826  12.342 -0.8236  0.7045  0.4346
 8546TIP3    H249834   4.341   5.904  12.294  0.8766 -1.8591  0.2857
 8547TIP3   OH249835   1.184   4.335  12.308 -0.0012 -0.5358 -0.2416
 8547TIP3    H149836   1.185   4.283  12.389 -0.9166 -0.3793 -0.1201
 8547TIP3    H249837   1.092   4.338  12.283  0.0430  0.9657 -0.2910
 8548TIP3   OH249838   1.325   2.055  11.417  0.5947 -0.4925 -0.4129
 8548TIP3    H149839   1.324   2.145  11.450 -0.1113 -0.9040  0.7364
 8548TIP3    H249840   1.232   2.029  11.416  0.7092 -0.8954 -1.6296
 8549TIP3   OH249841   0.814   4.471  12.494  0.2003 -0.2853 -0.1491
 8549TIP3    H149842   0.796   4.472  12.588 -2.1085 -2.3603 -0.4651
 8549TIP3    H249843   0.742   4.519  12.454  0.8109  0.0237 -0.9204
 8550TIP3   OH249844   7.463   1.404  19.364  0.1453  0.1485 -0.2452
 8550TIP3    H149845   7.397   1.351  19.409  1.3599 -1.5115 -0.3306
 8550TIP3    H249846   7.417   1.440  19.288 -0.7964 -0.5612 -0.0412
 8551TIP3   OH249847   4.118   5.421  12.965 -0.1993 -0.1565 -0.2637
 8551TIP3    H149848   4.043   5.477  12.944  0.2991  0.6934  0.1581
 8551TIP3    H249849   4.190   5.482  12.979  0.0933 -0.8322  1.3551
 8552TIP3   OH249850   0.213   7.278  11.977  0.2166  1.0395 -0.3462
 8552TIP3    H149851   0.127   7.238  11.968 -0.0303  1.2990  0.7311
 8552TIP3    H249852   0.225   7.288  12.072  1.8602  0.0537 -0.4072
 8553TIP3   OH249853   3.686   4.569  12.009 -0.2203 -0.2252 -0.2005
 8553TIP3    H149854   3.639   4.487  12.029 -1.0624  0.2422 -0.2091
 8553TIP3    H249855   3.689   4.615  12.093 -0.3316  0.0260 -0.3343
 8554TIP3   OH249856   5.748   5.184  11.773 -0.0202  0.4738  0.1170
 8554TIP3    H149857   5.794   5.102  11.757 -2.6802 -0.8842 -1.2092
 8554TIP3    H249858   5.733   5.185  11.867  1.5236  0.3152  0.3842
 8555TIP3   OH249859   1.690   1.971  11.362 -0.2325 -0.1824 -0.6736
 8555TIP3    H149860   1.606   1.987  11.318 -0.2179  1.4192 -0.2091
 8555TIP3    H249861   1.671   1.900  11.424 -0.4717 -1.8397 -2.5577
 8556TIP3   OH249862   0.017   5.508  10.990  0.4140 -0.2162  0.3517
 8556TIP3    H149863  -0.007   5.581  11.047  0.3414  0.4285 -0.4851
 8556TIP3    H249864   0.001   5.540  10.902  3.4340 -0.0608 -0.2495
 8557TIP3   OH249865   0.643   1.403  11.811 -0.2073  0.3012  0.2853
 8557TIP3    H149866   0.648   1.321  11.860 -0.9975 -0.3791 -0.7427
 8557TIP3    H249867   0.643   1.377  11.719 -1.5321  1.3823 -0.0564
 8558TIP3   OH249868   0.909   1.392  10.937 -0.3274 -0.3239  0.4010
 8558TIP3    H149869   0.950   1.476  10.919 -0.1588 -0.6107 -0.6091
 8558TIP3    H249870   0.886   1.357  10.851  0.7158 -1.8547  0.6931
 8559TIP3   OH249871   3.743   1.838  11.118  0.2399 -0.2124 -0.5032
 8559TIP3    H149872   3.713   1.928  11.132  3.8369  1.4714 -2.2730
 8559TIP3    H249873   3.804   1.822  11.190  0.6434 -0.6956 -0.9415
 8560TIP3   OH249874   6.255   3.993  11.021  0.1936  0.0824  0.3095
 8560TIP3    H149875   6.264   3.990  10.926  0.3639 -0.4512  0.3380
 8560TIP3    H249876   6.332   3.945  11.054 -0.2460 -0.3763  0.6905
 8561TIP3   OH249877   2.028   3.513  11.834 -0.0139  0.2296 -0.6245
 8561TIP3    H149878   2.091   3.567  11.883 -0.3056 -0.1089  0.1424
 8561TIP3    H249879   2.049   3.529  11.742  0.4461  1.0049 -0.3950
 8562TIP3   OH249880   2.981   4.997  17.864 -0.4115  0.0623 -0.0533
 8562TIP3    H149881   3.043   4.926  17.883 -0.2134 -0.0036 -0.9144
 8562TIP3    H249882   2.915   4.989  17.933  0.4907  0.0947  0.8542
 8563TIP3   OH249883   3.848   0.220  12.441 -0.1897 -0.2614  0.1388
 8563TIP3    H149884   3.919   0.230  12.378 -0.2141 -1.3524 -0.0927
 8563TIP3    H249885   3.780   0.281  12.411  0.6882  0.9010  0.4554
 8564TIP3   OH249886   7.169   6.336  10.613 -0.3221 -1.0635 -0.6940
 8564TIP3    H149887   7.102   6.273  10.641  0.4340 -1.4848  0.2162
 8564TIP3    H249888   7.153   6.413  10.668 -1.4545 -0.2833 -2.0298
 8565TIP3   OH249889   6.941   5.808  11.476 -0.2047 -0.0207 -0.0794
 8565TIP3    H149890   6.884   5.843  11.544  0.1937 -0.2802  0.3984
 8565TIP3    H249891   6.980   5.730  11.516  0.8956  0.4516 -0.2033
 8566TIP3   OH249892   3.294   6.425  10.401 -0.5897 -0.3691 -0.4430
 8566TIP3    H149893   3.260   6.374  10.475  0.6752 -1.5381 -0.6140
 8566TIP3    H249894   3.341   6.360  10.347  1.0703  0.9496 -0.6762
 8567TIP3   OH249895   4.315   1.692  10.947 -0.8176 -0.5377 -0.0708
 8567TIP3    H149896   4.330   1.784  10.926  0.8039 -0.5066  1.0419
 8567TIP3    H249897   4.233   1.691  10.996 -2.1096 -0.0271 -2.1177
 8568TIP3   OH249898   5.297   1.290  11.738  0.9100  0.1546 -0.2178
 8568TIP3    H149899   5.372   1.330  11.781 -0.3235 -0.1754  2.4722
 8568TIP3    H249900   5.263   1.359  11.681  0.9496  1.7683  1.5709
 8569TIP3   OH249901   3.002   0.552  11.366  0.0455  0.4708  0.2120
 8569TIP3    H149902   3.076   0.547  11.306  0.8432 -0.2645  1.2208
 8569TIP3    H249903   3.040   0.584  11.448 -0.7546  0.1137  0.7358
 8570TIP3   OH249904   7.413   4.006  11.878  0.3373  0.2078  0.0075
 8570TIP3    H149905   7.363   3.929  11.848  1.5602 -0.4546 -0.4162
 8570TIP3    H249906   7.367   4.036  11.956 -0.0842 -1.0609  0.2763
 8571TIP3   OH249907   2.362   0.124  10.584 -0.2106  0.3268 -0.3215
 8571TIP3    H149908   2.351   0.182  10.508  3.1462  0.5939 -0.7609
 8571TIP3    H249909   2.401   0.179  10.651 -0.3819 -0.6061  0.5716
 8572TIP3   OH249910   4.046   5.758  10.244  0.1636  0.0492 -0.0523
 8572TIP3    H149911   4.101   5.683  10.223 -0.5042 -0.2726 -0.7172
 8572TIP3    H249912   3.957   5.722  10.251  0.1960  0.2928  2.4990
 8573TIP3   OH249913   5.688   7.630  12.775  1.4140 -0.1167  0.2730
 8573TIP3    H149914   5.740   7.683  12.835 -0.1434  1.4820  0.2832
 8573TIP3    H249915   5.613   7.601  12.827 -0.6342  2.3468 -1.1150
 8574TIP3   OH249916   7.164   6.366  11.057 -0.0043  0.0755  0.1364
 8574TIP3    H149917   7.213   6.423  11.116 -0.2851  0.8824 -0.4019
 8574TIP3    H249918   7.090   6.419  11.027  0.4619 -0.0919 -1.4142
 8575TIP3   OH249919   6.817   4.745  10.508 -0.0532  0.2869  0.2943
 8575TIP3    H149920   6.744   4.705  10.461 -0.8291  1.1895  0.7135
 8575TIP3    H249921   6.795   4.733  10.600 -0.9503  2.7726  0.4585
 8576TIP3   OH249922   0.022   1.174  10.739  0.1077  0.0168  0.4107
 8576TIP3    H149923  -0.054   1.116  10.749 -0.5622  0.2892 -2.4897
 8576TIP3    H249924  -0.015   1.262  10.737  0.5624  0.1929 -0.3925
 8577TIP3   OH249925   0.327   6.016  10.404 -0.6256 -0.0613  0.5531
 8577TIP3    H149926   0.322   5.986  10.494 -1.5580 -0.2707  0.4353
 8577TIP3    H249927   0.272   5.955  10.355  1.0313 -0.8788 -0.4147
 8578TIP3   OH249928   4.507   6.824  13.089  0.5319 -0.3515  0.0157
 8578TIP3    H149929   4.535   6.841  13.179 -0.2037  0.8171  0.0448
 8578TIP3    H249930   4.540   6.736  13.070  1.8988 -0.0710  0.9341
 8579TIP3   OH249931   1.345   0.079  12.356 -0.4792 -0.1251 -0.0180
 8579TIP3    H149932   1.299  -0.004  12.370  0.2150 -0.6483 -0.7954
 8579TIP3    H249933   1.347   0.089  12.261  0.0619  0.4343  0.0531
 8580TIP3   OH249934   2.686   3.081  11.282 -0.1237  0.1379  0.3985
 8580TIP3    H149935   2.595   3.058  11.299 -0.2345 -0.4127 -0.8910
 8580TIP3    H249936   2.694   3.172  11.312 -1.2670  0.4085 -0.0942
 8581TIP3   OH249937   5.679   0.706  12.830  0.0826 -0.0303  0.0458
 8581TIP3    H149938   5.729   0.773  12.783 -0.5367 -0.6316 -1.5486
 8581TIP3    H249939   5.588   0.735  12.822 -0.0105  0.0386  1.2201
 8582TIP3   OH249940   0.707   5.982  12.749 -0.1567  0.0382  0.3693
 8582TIP3    H149941   0.763   6.031  12.809  1.0668 -0.9402  0.0698
 8582TIP3    H249942   0.703   5.894  12.787 -0.1534 -0.3309 -0.4625
 8583TIP3   OH249943   4.327   2.612  12.017 -0.0833 -0.6433 -0.4456
 8583TIP3    H149944   4.237   2.629  11.989 -0.2905 -3.5083 -1.8566
 8583TIP3    H249945   4.317   2.568  12.102  0.2325  1.5516  0.8333
 8584TIP3   OH249946   7.457   1.715  11.435  0.3138  0.2321 -0.1019
 8584TIP3    H149947   7.454   1.709  11.340  0.5787 -0.1982 -0.0851
 8584TIP3    H249948   7.528   1.657  11.461 -1.4039 -1.7297  0.5305
 8585TIP3   OH249949   4.463   3.061  11.090 -0.1465 -0.0083 -0.1617
 8585TIP3    H149950   4.389   3.081  11.148  0.4663 -0.4505  0.7863
 8585TIP3    H249951   4.477   2.967  11.100  0.4726  0.0532 -0.4192
 8586TIP3   OH249952   3.359   3.966  12.084 -0.3855 -0.1559  0.2133
 8586TIP3    H149953   3.369   4.031  12.015 -0.5213 -1.3435 -0.9607
 8586TIP3    H249954   3.280   3.993  12.132 -2.3190 -1.1240 -2.2079
 8587TIP3   OH249955   0.420   3.941  11.545 -0.2613 -0.2801  0.5410
 8587TIP3    H149956   0.401   3.884  11.471  0.7702 -0.3491  0.3043
 8587TIP3    H249957   0.409   4.030  11.511 -1.0408 -0.3182  0.6738
 8588TIP3   OH249958   5.754   3.406  12.028  0.5573  0.5532  0.2722
 8588TIP3    H149959   5.790   3.491  12.004  0.1063  0.2922 -1.4109
 8588TIP3    H249960   5.659   3.419  12.024  0.4790  0.1750  0.8083
 8589TIP3   OH249961   0.506   2.721  12.542 -0.4827  0.4789  0.6561
 8589TIP3    H149962   0.538   2.726  12.632  1.2054  1.0676  0.0660
 8589TIP3    H249963   0.486   2.811  12.518  1.6789  0.7410 -0.3973
 8590TIP3   OH249964   4.974   6.796  11.366  0.1693 -0.0340  0.6710
 8590TIP3    H149965   4.998   6.876  11.319 -2.8400  0.2252 -0.7045
 8590TIP3    H249966   5.055   6.767  11.407  1.8839  2.4718 -0.6412
 8591TIP3   OH249967   6.606   6.112  11.701 -0.0854  0.3796  0.4784
 8591TIP3    H149968   6.558   6.032  11.680  1.7179 -0.6598  0.1112
 8591TIP3    H249969   6.630   6.102  11.794  0.8285  0.0963  0.2214
 8592TIP3   OH249970   7.198   4.973  11.185  0.8404 -0.5720  0.5614
 8592TIP3    H149971   7.111   5.003  11.212  1.1710 -0.3349  1.4092
 8592TIP3    H249972   7.209   5.010  11.097  0.8838  1.1291  1.2377
 8593TIP3   OH249973   2.235   4.332  12.304 -0.1588  0.7585 -0.6305
 8593TIP3    H149974   2.198   4.245  12.320 -0.3411  1.0021  0.3544
 8593TIP3    H249975   2.324   4.316  12.274  0.6187  0.2505  1.7364
 8594TIP3   OH249976   2.659   1.563  12.341  0.1538 -0.5866 -0.1423
 8594TIP3    H149977   2.719   1.628  12.304  0.4431 -1.3433 -1.0356
 8594TIP3    H249978   2.580   1.569  12.288 -0.4952  0.2233  0.8689
 8595TIP3   OH249979   2.471   7.390  11.723 -0.4966  0.1533 -0.1683
 8595TIP3    H149980   2.404   7.381  11.790  1.3346  2.7590  2.2513
 8595TIP3    H249981   2.525   7.463  11.753  2.9811 -1.2771 -2.3506
 8596TIP3   OH249982   6.662   1.724  10.765 -0.5533  0.2261  1.3623
 8596TIP3    H149983   6.746   1.697  10.803  0.6948  0.4556 -1.0257
 8596TIP3    H249984   6.662   1.819  10.774  2.3577  1.0861 -3.5571
 8597TIP3   OH249985   6.757   1.694  11.233 -0.5456 -0.3395 -0.3049
 8597TIP3    H149986   6.697   1.659  11.299 -1.2139 -0.3860 -0.9222
 8597TIP3    H249987   6.740   1.642  11.155 -0.8101  0.6655 -0.9356
 8598TIP3   OH249988   1.981   0.052  11.721  0.0372  0.5042 -0.2409
 8598TIP3    H149989   1.960   0.027  11.811  2.4692  0.7892  0.4610
 8598TIP3    H249990   2.033  -0.020  11.687 -0.5985  0.5419 -1.3495
 8599TIP3   OH249991   0.046   3.823  11.808 -0.2866  0.0846 -0.7461
 8599TIP3    H149992   0.132   3.784  11.824  1.0831  2.9400 -0.5342
 8599TIP3    H249993  -0.012   3.779  11.869  1.4578 -0.5337  0.5535
 8600TIP3   OH249994   0.536   4.045  12.433 -0.6734 -0.9268  0.7954
 8600TIP3    H149995   0.601   3.985  12.469 -0.6628 -1.1858  0.3515
 8600TIP3    H249996   0.470   4.052  12.502 -1.2674 -2.3638  0.4265
 8601TIP3   OH249997   1.603   5.819  12.419 -0.1352  0.0704  0.6233
 8601TIP3    H149998   1.551   5.761  12.475 -0.9269  0.9467  0.8252
 8601TIP3    H249999   1.538   5.862  12.364  0.5355  0.0535 -0.1991
 8602TIP3   OH250000   0.959   2.341  11.477  0.3193  0.4636 -0.5734
 8602TIP3    H150001   0.867   2.318  11.464 -0.0858  1.6384  0.0893
 8602TIP3    H250002   1.008   2.278  11.423 -0.8673 -0.1064 -1.0060
 8603TIP3   OH250003   5.999   1.692  10.787  0.0010 -0.2164 -0.0292
 8603TIP3    H150004   5.919   1.710  10.836 -0.3620 -0.1777 -0.6296
 8603TIP3    H250005   6.036   1.779  10.771 -0.9644 -0.0699 -1.6135
 8604TIP3   OH250006   0.717   2.665  11.593  0.6389 -0.0479 -0.5904
 8604TIP3    H150007   0.656   2.738  11.605 -0.7820 -1.3768  0.6944
 8604TIP3    H250008   0.699   2.606  11.666  0.7111 -2.3956 -2.3390
 8605TIP3   OH250009   2.044   7.520  12.682  0.3100 -0.0655  0.4243
 8605TIP3    H150010   2.131   7.527  12.641  0.0666 -0.7395 -0.2296
 8605TIP3    H250011   2.063   7.499  12.773  0.8417 -1.3217  0.0564
 8606TIP3   OH250012   4.330   1.684  11.673 -0.4375 -0.2766  0.3375
 8606TIP3    H150013   4.247   1.697  11.628 -0.2595  0.1511  0.1213
 8606TIP3    H250014   4.313   1.709  11.764 -0.3513  0.5601  0.1297
 8607TIP3   OH250015   1.330   3.337  12.787  0.1187 -0.0019  0.5516
 8607TIP3    H150016   1.406   3.296  12.827 -1.0547 -1.2154  1.6405
 8607TIP3    H250017   1.337   3.429  12.811  1.4933  0.0116  0.1809
 8608TIP3   OH250018   5.037   4.979  12.481  0.2853 -0.3548  0.0906
 8608TIP3    H150019   4.996   5.027  12.554 -0.3449  2.3643 -1.8684
 8608TIP3    H250020   5.076   4.902  12.522  0.9346  1.5623  3.4840
 8609TIP3   OH250021   7.333   7.248  11.292  0.1742  0.0256 -0.2396
 8609TIP3    H150022   7.403   7.264  11.229  0.6172 -1.2964 -0.0977
 8609TIP3    H250023   7.269   7.317  11.274  0.8884  0.4437 -1.2614
 8610TIP3   OH250024   3.641   4.645  12.605 -0.3530 -0.0061 -0.2029
 8610TIP3    H150025   3.676   4.640  12.694 -1.7074 -0.5806  0.3247
 8610TIP3    H250026   3.606   4.734  12.598  1.3293  0.6523 -0.8145
 8611TIP3   OH250027   2.671   1.646  10.924  0.0954  0.2028 -0.3357
 8611TIP3    H150028   2.745   1.623  10.868  0.2444  0.8022 -0.3931
 8611TIP3    H250029   2.679   1.589  11.000  0.1967 -0.2458 -0.6776
 8612TIP3   OH250030   5.301   2.226  11.378  0.0015  0.2724  0.3092
 8612TIP3    H150031   5.312   2.147  11.430  0.3787  0.3998  0.4218
 8612TIP3    H250032   5.344   2.207  11.294 -2.3834 -0.7200 -0.7989
 8613TIP3   OH250033   2.106   6.996  10.434  0.3480 -0.3440  0.3811
 8613TIP3    H150034   2.141   7.084  10.419 -0.4332 -0.0500  0.2001
 8613TIP3    H250035   2.183   6.940  10.439  0.8171  0.1504 -0.8040
 8614TIP3   OH250036   4.100   2.895  11.304 -0.0477  0.0207  0.5175
 8614TIP3    H150037   4.030   2.834  11.280 -0.0527 -0.4062  1.5463
 8614TIP3    H250038   4.168   2.838  11.342 -0.1116  0.6650  1.6226
 8615TIP3   OH250039   7.218   4.328  12.894  0.0030  0.3921 -0.1349
 8615TIP3    H150040   7.132   4.363  12.874 -1.5724 -1.8317  2.2207
 8615TIP3    H250041   7.232   4.346  12.987  0.4443 -2.3218  0.4230
 8616TIP3   OH250042   5.126   4.858  11.089 -0.3310  0.1589 -0.4917
 8616TIP3    H150043   5.084   4.854  11.175 -0.2882  0.4265 -0.4581
 8616TIP3    H250044   5.084   4.788  11.039  0.0007 -0.3268 -0.0937
 8617TIP3   OH250045   5.326   6.334  12.723  0.0556  0.0707 -0.5400
 8617TIP3    H150046   5.406   6.345  12.773 -0.3887  0.9983 -0.0137
 8617TIP3    H250047   5.316   6.415  12.673  0.2182 -0.6296 -1.7626
 8618TIP3   OH250048   0.835   2.347  12.175  0.0850  0.6524 -0.1386
 8618TIP3    H150049   0.799   2.405  12.242 -1.1573  0.7511 -0.8699
 8618TIP3    H250050   0.895   2.402  12.125  0.1088  0.8867  0.1483
 8619TIP3   OH250051   7.302   5.436  10.134 -0.4468 -0.5995 -0.2256
 8619TIP3    H150052   7.342   5.474  10.212 -1.0956 -0.0128 -0.1650
 8619TIP3    H250053   7.374   5.395  10.087 -0.0063 -0.7278  0.5494
 8620TIP3   OH250054   5.408   7.457  12.304  0.5295 -0.1267 -0.0846
 8620TIP3    H150055   5.417   7.534  12.248 -0.0000 -0.6012 -0.8452
 8620TIP3    H250056   5.368   7.489  12.384 -0.1670  0.3168 -0.5981
 8621TIP3   OH250057   6.715   0.765  11.378 -0.0206  0.3333  0.1226
 8621TIP3    H150058   6.751   0.681  11.348  0.7849 -0.4759  3.0928
 8621TIP3    H250059   6.649   0.787  11.311 -0.5629 -2.8604 -0.5704
 8622TIP3   OH250060   1.563   0.454  12.413 -0.2722 -0.0883  0.0056
 8622TIP3    H150061   1.597   0.539  12.388 -2.2494  0.9392  0.5530
 8622TIP3    H250062   1.550   0.408  12.331  1.3083 -0.0910 -0.2629
 8623TIP3   OH250063   3.051   4.070  13.239 -0.2873  0.1146 -0.0569
 8623TIP3    H150064   3.101   3.988  13.233  1.1246  0.7912  1.6011
 8623TIP3    H250065   2.964   4.042  13.267  0.1754 -0.8563  0.4909
 8624TIP3   OH250066   0.387   0.315  10.626  0.1426 -0.6235 -0.3224
 8624TIP3    H150067   0.295   0.336  10.642  0.2330 -0.7197  0.3747
 8624TIP3    H250068   0.384   0.231  10.581 -0.0773 -1.8406  1.8062
 8625TIP3   OH250069   0.206   0.328  10.349 -0.2941  0.2647  0.0464
 8625TIP3    H150070   0.114   0.326  10.374 -0.3777  0.2622 -0.2541
 8625TIP3    H250071   0.238   0.239  10.364 -0.3684  0.2400  0.0561
 8626TIP3   OH250072   5.953   7.334  11.321  0.1634 -0.0184  0.8747
 8626TIP3    H150073   6.002   7.410  11.353  0.6012 -0.5638  1.5203
 8626TIP3    H250074   5.995   7.311  11.238 -0.6744  1.1143  0.1104
 8627TIP3   OH250075   4.916   5.142  11.303  0.9020  0.0642 -0.1747
 8627TIP3    H150076   4.889   5.090  11.379  2.3972 -1.3985 -0.5778
 8627TIP3    H250077   4.948   5.224  11.340  1.5696 -0.6126  0.8078
 8628TIP3   OH250078   3.931   3.192  11.454 -0.0135  0.4384 -0.3384
 8628TIP3    H150079   3.866   3.172  11.387  2.0908 -0.7835 -2.1604
 8628TIP3    H250080   3.962   3.106  11.483  0.9689  0.9859  0.2591
 8629TIP3   OH250081   0.624   0.777  10.681 -0.3073  0.9429 -0.3790
 8629TIP3    H150082   0.592   0.697  10.639  0.0550  0.5436  0.0897
 8629TIP3    H250083   0.625   0.756  10.774  2.4100  0.5056 -0.4156
 8630TIP3   OH250084   3.804   6.895  11.317  0.2188  0.3568 -0.4715
 8630TIP3    H150085   3.869   6.959  11.344  1.9840 -0.4667 -2.4250
 8630TIP3    H250086   3.778   6.850  11.398  1.0296  1.6396  0.5306
 8631TIP3   OH250087   1.097   6.947  11.315 -0.6881  0.5534 -0.2154
 8631TIP3    H150088   1.192   6.954  11.318 -0.6388 -0.2895  0.4939
 8631TIP3    H250089   1.080   6.882  11.247 -0.5249 -2.6459  2.5892
 8632TIP3   OH250090   5.540   2.692  12.449 -0.1724 -0.2801 -0.0003
 8632TIP3    H150091   5.560   2.626  12.516 -0.9162 -0.4575  0.0576
 8632TIP3    H250092   5.449   2.717  12.468 -0.0868  0.3195 -0.3966
 8633TIP3   OH250093   4.955   6.331  10.777  0.5658 -0.1516  0.1878
 8633TIP3    H150094   4.993   6.301  10.694 -1.9041 -0.2220 -1.0076
 8633TIP3    H250095   4.988   6.420  10.788  3.2002 -1.1088  0.6716
 8634TIP3   OH250096   2.924   6.491  13.252 -0.0815 -0.3498 -0.2074
 8634TIP3    H150097   2.889   6.416  13.204 -0.5336 -0.3071  0.0465
 8634TIP3    H250098   3.019   6.478  13.251 -0.1026 -0.4649 -0.9099
 8635TIP3   OH250099   5.065   2.195  12.343 -0.0101 -0.2161 -0.3475
 8635TIP3    H150100   5.145   2.171  12.390 -0.9909  0.9726  2.0531
 8635TIP3    H250101   5.092   2.267  12.286  0.7566 -0.3012 -0.1115
 8636TIP3   OH250102   0.197   7.625  12.013  0.2762  0.1042  0.6037
 8636TIP3    H150103   0.120   7.670  11.977  0.7194  0.2208 -0.2163
 8636TIP3    H250104   0.181   7.622  12.107 -0.3290  0.9128  0.5369
 8637TIP3   OH250105   6.134   4.929  12.539  0.3532 -0.0899  0.6062
 8637TIP3    H150106   6.201   4.860  12.531  0.0817 -0.7833  3.3664
 8637TIP3    H250107   6.176   4.996  12.593 -0.5050  0.3644  0.7189
 8638TIP3   OH250108   7.442   7.261  13.189  0.0011  0.3276 -0.1203
 8638TIP3    H150109   7.424   7.316  13.266  0.7123  1.5581 -0.7921
 8638TIP3    H250110   7.445   7.323  13.116 -1.1165 -0.8782 -1.2356
 8639TIP3   OH250111   7.053   0.592  10.451 -0.0493 -0.0915 -0.7332
 8639TIP3    H150112   7.025   0.516  10.503  0.7955  0.2970  0.3317
 8639TIP3    H250113   7.128   0.560  10.401  0.4757  0.0832 -0.0841
 8640TIP3   OH250114   6.361   4.535  11.567 -0.1167 -0.0242 -0.8002
 8640TIP3    H150115   6.376   4.564  11.477  1.1877  2.8948  0.2311
 8640TIP3    H250116   6.447   4.506  11.597  0.6540  3.3702  0.7873
 8641TIP3   OH250117   5.077   6.651  11.591  0.2926  0.3328  0.3744
 8641TIP3    H150118   5.110   6.738  11.617  0.3682  0.1402  0.9381
 8641TIP3    H250119   5.124   6.590  11.648 -0.4166 -0.0080  0.6038
 8642TIP3   OH250120   2.527   5.683  11.352  0.5308  0.5151 -1.3662
 8642TIP3    H150121   2.542   5.626  11.276  0.5303  0.3234 -1.2226
 8642TIP3    H250122   2.612   5.688  11.395  0.8459  1.6274 -2.0627
 8643TIP3   OH250123   3.616   1.692  10.622 -0.1875 -0.4968 -0.0178
 8643TIP3    H150124   3.550   1.696  10.553  0.2009 -1.6994 -0.4705
 8643TIP3    H250125   3.579   1.745  10.693 -0.5576  0.8340 -1.1562
 8644TIP3   OH250126   0.740   2.999  11.243  0.8188  0.5162  0.3640
 8644TIP3    H150127   0.799   2.925  11.231  1.2060  0.8569  0.1447
 8644TIP3    H250128   0.661   2.975  11.195  0.9098  0.2027  0.3734
 8645TIP3   OH250129   5.114   7.033  11.575 -1.0294  0.1742 -0.4566
 8645TIP3    H150130   5.162   6.952  11.558 -0.8250  0.3285 -0.6356
 8645TIP3    H250131   5.182   7.101  11.575 -1.3567  0.5263 -1.6545
 8646TIP3   OH250132   5.436   7.131  10.864  0.3222  0.0228 -0.8313
 8646TIP3    H150133   5.384   7.197  10.818 -1.3225 -0.1142  0.7286
 8646TIP3    H250134   5.414   7.142  10.956 -1.1240 -3.5194 -0.5709
 8647TIP3   OH250135   7.543   6.524  12.157  0.2083  0.0868  0.8048
 8647TIP3    H150136   7.557   6.447  12.103 -0.5062 -2.1371  3.5443
 8647TIP3    H250137   7.550   6.492  12.247 -2.6078  2.7054  2.1314
 8648TIP3   OH250138   3.183   1.433  12.679  0.0092  0.4087 -0.0866
 8648TIP3    H150139   3.214   1.375  12.609  1.5948  0.7337  0.3068
 8648TIP3    H250140   3.092   1.408  12.692  0.6466 -2.0925  0.1355
 8649TIP3   OH250141   3.486   2.077  11.897 -0.2147  0.4518  0.4489
 8649TIP3    H150142   3.546   2.119  11.958  0.4668  0.8547 -0.4588
 8649TIP3    H250143   3.469   1.991  11.934  0.8883  0.3510  0.7536
 8650TIP3   OH250144   4.796   0.904  10.448  0.1172 -0.5909  0.0148
 8650TIP3    H150145   4.859   0.975  10.453  0.4790 -0.7241 -1.9815
 8650TIP3    H250146   4.849   0.825  10.442 -0.2755 -0.9090  0.6004
 8651TIP3   OH250147   5.775   1.441  12.401  0.4442  0.0385 -0.2840
 8651TIP3    H150148   5.759   1.535  12.401  0.0938 -0.0211 -1.0861
 8651TIP3    H250149   5.859   1.432  12.448 -0.5011  0.5533  1.6219
 8652TIP3   OH250150   1.025   6.125  12.356  0.0022 -0.5002 -0.0184
 8652TIP3    H150151   0.959   6.192  12.371  0.7737  0.1251  0.6513
 8652TIP3    H250152   1.106   6.173  12.345  1.0812 -1.3400  3.1336
 8653TIP3   OH250153   5.373   4.795  11.354 -0.0082  0.4949 -0.1308
 8653TIP3    H150154   5.357   4.712  11.399 -0.3004  0.4854 -0.2511
 8653TIP3    H250155   5.297   4.850  11.376 -0.1524  0.4898 -0.6125
 8654TIP3   OH250156   3.356   1.248  11.241  0.6803 -0.0730  0.0184
 8654TIP3    H150157   3.367   1.200  11.159 -0.1412  0.9351 -0.7307
 8654TIP3    H250158   3.296   1.319  11.218  1.0031  0.6571  1.3319
 8655TIP3   OH250159   6.909   4.992  10.476  0.6107 -0.1911 -0.1713
 8655TIP3    H150160   6.874   4.904  10.477 -0.4686  0.2206 -0.5969
 8655TIP3    H250161   6.978   4.991  10.542 -1.2647 -0.5900  1.8791
 8656TIP3   OH250162   0.754   1.628  12.245 -0.3567 -0.0319  0.0777
 8656TIP3    H150163   0.760   1.543  12.202  1.8356 -0.2174  0.6309
 8656TIP3    H250164   0.774   1.610  12.337  0.0052  1.0568  0.2300
 8657TIP3   OH250165   0.516   1.601  11.991  0.4732  0.2136 -0.0294
 8657TIP3    H150166   0.563   1.521  11.964  1.7416  1.0262 -0.3473
 8657TIP3    H250167   0.584   1.654  12.033 -0.7437  0.3911  1.8154
 8658TIP3   OH250168   0.640   5.867  10.710  0.0613  0.0326 -0.0372
 8658TIP3    H150169   0.557   5.904  10.682 -0.0526  0.3094  0.6380
 8658TIP3    H250170   0.675   5.931  10.772  1.0782  0.2174 -0.7728
 8659TIP3   OH250171   6.599   6.999  12.265  0.4223 -0.7153  0.1753
 8659TIP3    H150172   6.531   7.062  12.289  0.2795 -0.4748 -0.7952
 8659TIP3    H250173   6.675   7.053  12.242  0.5608 -0.9273  0.1297
 8660TIP3   OH250174   6.424   4.993  10.482 -0.4049 -0.2093 -0.0368
 8660TIP3    H150175   6.331   5.013  10.490 -0.4273  0.3850 -1.5209
 8660TIP3    H250176   6.446   5.013  10.391  0.7670 -2.1105 -0.2329
 8661TIP3   OH250177   1.586   1.027  10.377 -0.0182  0.2326  0.6839
 8661TIP3    H150178   1.646   0.961  10.344  1.3833  2.0668 -0.6822
 8661TIP3    H250179   1.643   1.102  10.398 -1.4882  0.9166  2.4488
 8662TIP3   OH250180   5.145   2.443  10.956 -0.0799  0.4224  0.5145
 8662TIP3    H150181   5.127   2.504  10.885 -0.2201 -1.2692 -0.9913
 8662TIP3    H250182   5.209   2.381  10.919 -0.5835 -0.8391  1.6644
 8663TIP3   OH250183   4.686   6.008  11.511 -0.2225  0.0053 -0.5188
 8663TIP3    H150184   4.661   6.096  11.483 -0.9357  0.0150  0.1216
 8663TIP3    H250185   4.762   6.021  11.567  1.4763 -0.0449 -2.6754
 8664TIP3   OH250186   5.025   4.257  10.852 -0.2634 -0.2123  0.1930
 8664TIP3    H150187   5.088   4.327  10.838  1.0571 -0.9339  2.0746
 8664TIP3    H250188   4.947   4.284  10.804  0.7650  1.7281 -0.4753
 8665TIP3   OH250189   1.690   6.874  10.866 -0.7381 -0.2172  0.2354
 8665TIP3    H150190   1.729   6.818  10.933  0.5586  0.1787 -0.1521
 8665TIP3    H250191   1.714   6.963  10.892 -1.7233  0.0695  0.1844
 8666TIP3   OH250192   1.457   2.953  12.601 -0.1039  0.7429 -0.3025
 8666TIP3    H150193   1.493   3.035  12.636  1.1441 -0.2896  0.9207
 8666TIP3    H250194   1.482   2.954  12.508 -0.8860  2.1454 -0.5251
 8667TIP3   OH250195   4.656   6.873  11.185 -0.0360  0.0613  0.0935
 8667TIP3    H150196   4.678   6.784  11.214 -0.2659 -0.0248  0.0008
 8667TIP3    H250197   4.734   6.903  11.139  0.4760  0.3334  1.1061
 8668TIP3   OH250198   5.432   3.409  12.329  0.4261 -0.1696 -0.1482
 8668TIP3    H150199   5.473   3.481  12.377 -0.7875  1.6770 -1.7053
 8668TIP3    H250200   5.455   3.425  12.238 -0.5242 -1.3338 -0.6231
 8669TIP3   OH250201   6.750   4.683  10.756  0.3868  0.6846  0.1010
 8669TIP3    H150202   6.778   4.653  10.843  0.6413  1.6751  0.3786
 8669TIP3    H250203   6.662   4.718  10.770  0.1825  0.2816 -0.1694
 8670TIP3   OH250204   6.049   0.523   9.990  0.1269 -0.3812  0.0886
 8670TIP3    H150205   6.011   0.442   9.956  2.4483 -0.3990 -2.8483
 8670TIP3    H250206   5.994   0.593   9.954  0.1177 -0.5517 -0.2295
 8671TIP3   OH250207   3.531   3.886  11.388 -0.0004 -0.3132 -0.2167
 8671TIP3    H150208   3.464   3.861  11.324 -0.9579 -0.2165  0.7167
 8671TIP3    H250209   3.482   3.908  11.467  1.2808 -3.2752  1.5610
 8672TIP3   OH250210   2.089   3.627  12.399 -0.2146  0.2853 -0.5126
 8672TIP3    H150211   2.149   3.681  12.450  0.9731 -1.9151  0.5230
 8672TIP3    H250212   2.005   3.673  12.405  0.6497  1.8152  0.6034
 8673TIP3   OH250213   6.668   6.692  13.021  0.3398 -0.3535 -0.2023
 8673TIP3    H150214   6.705   6.606  13.000 -1.1570 -1.4175  1.2042
 8673TIP3    H250215   6.575   6.683  13.000  0.0041  0.6217  0.7827
 8674TIP3   OH250216   4.982   5.524  12.879  0.1794 -0.0076 -0.1492
 8674TIP3    H150217   4.922   5.558  12.945 -0.5736  0.4620 -1.0711
 8674TIP3    H250218   4.988   5.430  12.899 -0.8361 -0.0570 -0.0259
 8675TIP3   OH250219   3.161   2.640  11.281 -0.0092  0.4789 -0.2904
 8675TIP3    H150220   3.211   2.572  11.327  0.7384  0.2233 -1.4388
 8675TIP3    H250221   3.070   2.614  11.292  0.2151 -0.1305  0.1854
 8676TIP3   OH250222   6.147   6.125  11.280  0.9501 -0.0435  0.2387
 8676TIP3    H150223   6.100   6.078  11.349 -0.2515 -0.2268 -0.6539
 8676TIP3    H250224   6.190   6.198  11.325 -1.6074  1.1795  0.9457
 8677TIP3   OH250225   3.054   5.002  11.744 -1.1099  0.1862 -0.5674
 8677TIP3    H150226   3.121   5.067  11.723 -0.1464  0.1512  2.0023
 8677TIP3    H250227   3.094   4.918  11.721  1.2426 -0.1505  3.7499
 8678TIP3   OH250228   2.086   2.580  13.172  0.5340 -0.3487  0.0639
 8678TIP3    H150229   2.159   2.586  13.110  0.8222 -2.7478  0.0821
 8678TIP3    H250230   2.125   2.600  13.257  1.0096 -0.8748 -0.0256
 8679TIP3   OH250231   2.475   7.474  10.568 -0.0000 -0.2523 -0.0864
 8679TIP3    H150232   2.394   7.511  10.534  0.4972  0.2450 -0.7523
 8679TIP3    H250233   2.451   7.386  10.596 -1.3345  0.7031  2.0257
 8680TIP3   OH250234   2.204   4.186  10.885 -0.0140  0.4936  0.2392
 8680TIP3    H150235   2.220   4.190  10.790 -0.3635  1.1150  0.1974
 8680TIP3    H250236   2.121   4.232  10.896 -0.0405  0.2993  0.8366
 8681TIP3   OH250237   3.529   5.610  11.105  0.0285 -0.8842 -0.3974
 8681TIP3    H150238   3.505   5.691  11.060 -1.3424 -2.1215 -2.0719
 8681TIP3    H250239   3.624   5.605  11.098  0.2927  1.1828  0.9286
 8682TIP3   OH250240   6.116   0.066  10.214 -0.0887 -0.0642 -0.2441
 8682TIP3    H150241   6.081  -0.013  10.256  1.8587  0.7168  3.2845
 8682TIP3    H250242   6.159   0.033  10.135  2.5419 -3.0690  2.1356
 8683TIP3   OH250243   3.733   6.886  12.407  0.3250 -0.2344  0.4743
 8683TIP3    H150244   3.743   6.981  12.410 -0.4525 -0.1467  0.5772
 8683TIP3    H250245   3.744   6.864  12.314  0.0140  0.0238  0.3707
 8684TIP3   OH250246   3.995   5.673  12.602 -0.4560  0.1193 -0.1605
 8684TIP3    H150247   3.948   5.692  12.522 -0.3390 -2.5096 -0.9298
 8684TIP3    H250248   4.050   5.598  12.581  0.1107 -0.2116  2.1940
 8685TIP3   OH250249   2.026   7.660  11.988 -0.1273  0.0510 -0.4157
 8685TIP3    H150250   2.015   7.624  12.076 -0.8362 -0.2525 -0.6211
 8685TIP3    H250251   2.115   7.634  11.963 -0.2819 -0.7304 -0.1812
 8686TIP3   OH250252   3.752   7.220  13.028 -0.3669  0.0527  0.0754
 8686TIP3    H150253   3.773   7.213  12.935 -2.8233  1.8831 -0.6989
 8686TIP3    H250254   3.740   7.313  13.044 -5.4792 -0.4733  0.7994
 8687TIP3   OH250255   5.667   3.051  11.759  0.7431 -0.0393 -0.3335
 8687TIP3    H150256   5.611   3.021  11.831  0.8226  2.2207  0.7603
 8687TIP3    H250257   5.749   3.075  11.801  0.2619  2.8017 -0.8451
 8688TIP3   OH250258   5.956   6.943  11.313 -0.0476  0.5140 -0.0490
 8688TIP3    H150259   5.939   6.988  11.231 -0.9070  2.0308  0.9195
 8688TIP3    H250260   5.886   6.877  11.319 -1.0552  1.5870  0.2790
 8689TIP3   OH250261   5.553   0.928  11.944 -0.4451  0.1999 -0.2375
 8689TIP3    H150262   5.539   0.992  11.874  1.5260  1.5015  0.4826
 8689TIP3    H250263   5.645   0.939  11.970 -0.7576 -1.1227  1.7081
 8690TIP3   OH250264   1.986   3.367  11.508 -0.6729 -0.2746  0.0587
 8690TIP3    H150265   1.932   3.420  11.449 -1.1439 -0.2784  0.4773
 8690TIP3    H250266   2.057   3.426  11.534 -0.3052 -0.3568 -0.7116
 8691TIP3   OH250267   4.678   2.384  13.004 -0.4987  0.3566 -0.0737
 8691TIP3    H150268   4.764   2.364  13.040 -0.2200 -0.3648 -1.0848
 8691TIP3    H250269   4.647   2.300  12.968  0.0443  1.3329 -3.1129
 8692TIP3   OH250270   2.502   3.559  13.006 -0.2107 -0.1470  1.0049
 8692TIP3    H150271   2.414   3.544  12.973 -0.9093  3.9529  0.5086
 8692TIP3    H250272   2.556   3.567  12.927 -0.2356  1.3075  1.1105
 8693TIP3   OH250273   4.556   4.991  11.937 -0.2460  0.1289  0.7371
 8693TIP3    H150274   4.630   5.024  11.988  0.3326 -0.7439  0.4835
 8693TIP3    H250275   4.584   4.905  11.906 -0.9187  0.2721 -0.3339
 8694TIP3   OH250276   6.250   0.244  11.264 -0.2430  0.6857 -0.1765
 8694TIP3    H150277   6.260   0.339  11.260 -0.9938  0.8579  1.2397
 8694TIP3    H250278   6.239   0.217  11.173  0.5162  1.8876 -0.6428
 8695TIP3   OH250279   5.743   2.259  11.327 -0.2883  0.2789 -0.0270
 8695TIP3    H150280   5.774   2.346  11.301 -1.9455  0.5677 -1.1940
 8695TIP3    H250281   5.653   2.273  11.357 -0.3151 -0.9224  0.5108
 8696TIP3   OH250282   7.155   0.912  13.144  0.0055 -0.1921  0.3264
 8696TIP3    H150283   7.160   0.973  13.218 -0.8890  1.4681 -0.9034
 8696TIP3    H250284   7.093   0.845  13.173  0.0919  0.1209  1.2802
 8697TIP3   OH250285   1.753   5.602  11.598 -0.1067 -0.1147 -0.1275
 8697TIP3    H150286   1.816   5.614  11.528 -0.9821 -0.5945 -1.0240
 8697TIP3    H250287   1.715   5.689  11.612  0.6553  0.1505  0.3376
 8698TIP3   OH250288   0.513   0.108  12.135  0.8993  0.8002  0.0786
 8698TIP3    H150289   0.439   0.048  12.130 -0.3889  2.1704  1.6473
 8698TIP3    H250290   0.565   0.076  12.208  0.8386  0.9271  0.1770
 8699TIP3   OH250291   5.215   3.952  12.443  0.3539 -0.5513 -0.0445
 8699TIP3    H150292   5.180   3.979  12.358 -0.1821  1.0012  0.6252
 8699TIP3    H250293   5.140   3.959  12.503  0.6765 -1.7971  0.5342
 8700TIP3   OH250294   7.192   6.386  11.834  0.6960  0.0816  0.5069
 8700TIP3    H150295   7.179   6.332  11.912 -1.6659 -2.7973 -1.6580
 8700TIP3    H250296   7.261   6.341  11.785  0.1136  0.1500 -0.4071
 8701TIP3   OH250297   1.510   5.957  10.537  0.5780  0.7232  0.2945
 8701TIP3    H150298   1.572   5.885  10.523  0.3470  0.7537 -1.0889
 8701TIP3    H250299   1.531   6.019  10.467 -1.2149  0.5690 -0.4350
 8702TIP3   OH250300   1.848   7.120  10.477  0.0540 -0.1589 -0.0388
 8702TIP3    H150301   1.852   7.159  10.564 -1.2162  1.7758 -0.7665
 8702TIP3    H250302   1.935   7.083  10.463 -0.2270 -2.1429  2.7053
 8703TIP3   OH250303   0.155   5.352  10.587  0.3770 -0.3174 -0.2034
 8703TIP3    H150304   0.107   5.294  10.528  0.0824 -0.4541  0.1673
 8703TIP3    H250305   0.208   5.293  10.641  1.1386 -0.1550 -0.7602
 8704TIP3   OH250306   4.547   4.378  12.542  0.2440 -0.4053 -0.5771
 8704TIP3    H150307   4.531   4.284  12.553 -1.0722 -0.0082  1.5761
 8704TIP3    H250308   4.482   4.420  12.599  1.5285  1.7931 -0.6129
 8705TIP3   OH250309   6.896   7.118  12.654  0.0085  0.2976  0.0324
 8705TIP3    H150310   6.886   7.053  12.724 -1.4300  0.6956  0.2207
 8705TIP3    H250311   6.876   7.202  12.696  1.2049  0.8055 -0.3700
 8706TIP3   OH250312   0.490   6.626  10.925  0.6257 -0.0379 -0.6132
 8706TIP3    H150313   0.408   6.649  10.882  0.4090  0.7312  0.1713
 8706TIP3    H250314   0.557   6.640  10.857  0.3330  1.5055 -0.6334
 8707TIP3   OH250315   6.717   2.131  11.759 -0.3853 -0.2920  0.8035
 8707TIP3    H150316   6.732   2.064  11.692 -0.7906  0.3093  0.0933
 8707TIP3    H250317   6.634   2.105  11.800  0.0411 -0.8568  1.3270
 8708TIP3   OH250318   0.140   0.024  10.718 -0.0487  0.7091  0.7656
 8708TIP3    H150319   0.088  -0.027  10.655 -0.4862  0.7260  1.1083
 8708TIP3    H250320   0.077   0.082  10.760  0.2904  0.8996  1.0210
 8709TIP3   OH250321   3.528   7.047  13.039 -0.6283  0.0370  0.9087
 8709TIP3    H150322   3.595   7.112  13.061 -0.1670 -0.1975  0.2319
 8709TIP3    H250323   3.555   6.967  13.086 -0.8605  0.1544  1.2500
 8710TIP3   OH250324   2.561   6.318  12.789 -0.2885  0.1858 -0.5412
 8710TIP3    H150325   2.466   6.329  12.792 -0.1790  1.5554 -1.0906
 8710TIP3    H250326   2.576   6.227  12.812 -1.6884  0.1477  0.3173
 8711TIP3   OH250327   6.392   3.688  10.560 -0.3294 -0.1667 -0.1101
 8711TIP3    H150328   6.462   3.738  10.602 -0.1885 -0.0545 -0.4780
 8711TIP3    H250329   6.339   3.754  10.514 -1.0828 -0.1640  0.7272
 8712TIP3   OH250330   5.907   1.496  13.111 -0.2724  0.2774 -0.6973
 8712TIP3    H150331   5.905   1.516  13.205 -1.7850  1.1527 -0.8862
 8712TIP3    H250332   5.961   1.566  13.073  2.2846 -1.3381 -0.2610
 8713TIP3   OH250333   5.285   0.298  11.719 -0.2113 -0.7439  0.2870
 8713TIP3    H150334   5.358   0.302  11.658 -0.8165 -0.7158 -0.4548
 8713TIP3    H250335   5.241   0.215  11.699 -1.2619 -0.0717 -0.3462
 8714TIP3   OH250336   1.614   3.301  12.078  0.0884  0.0766  0.1618
 8714TIP3    H150337   1.676   3.312  12.150  0.4718 -1.0915  0.0352
 8714TIP3    H250338   1.666   3.316  11.999 -0.0372  0.1504  0.0924
 8715TIP3   OH250339   0.106   6.173  11.215  0.3985  0.0506  0.0791
 8715TIP3    H150340   0.144   6.125  11.141  1.4461  0.3111  0.4190
 8715TIP3    H250341   0.175   6.171  11.282  0.0424  1.0918  0.4967
 8716TIP3   OH250342   5.446   7.629  12.074 -0.7777  0.5527  0.2795
 8716TIP3    H150343   5.413   7.547  12.037 -0.1216 -0.0183  0.9074
 8716TIP3    H250344   5.493   7.671  12.002 -0.0863 -0.2228  0.2550
 8717TIP3   OH250345   7.258   5.842  11.723  0.3109  0.1832  0.3306
 8717TIP3    H150346   7.216   5.870  11.804 -0.7602  1.8373 -0.7224
 8717TIP3    H250347   7.303   5.921  11.691 -1.4415  0.3749 -1.9426
 8718TIP3   OH250348   6.095   7.504  11.483  0.6435  0.1032 -0.4174
 8718TIP3    H150349   6.073   7.593  11.454 -2.0170  0.0488  1.0457
 8718TIP3    H250350   6.085   7.508  11.578  3.7572 -1.0237  0.0572
 8719TIP3   OH250351   0.600   1.780  12.818  0.2681  0.2523 -0.4077
 8719TIP3    H150352   0.695   1.786  12.814  0.4166  0.7389  2.0810
 8719TIP3    H250353   0.572   1.863  12.858 -1.0213 -0.6014  0.5409
 8720TIP3   OH250354   2.704   4.727  12.650  0.0871  0.2201  0.3109
 8720TIP3    H150355   2.709   4.750  12.558  0.6127  1.9221  0.7314
 8720TIP3    H250356   2.795   4.708  12.675 -0.1445 -0.9513  0.3308
 8721TIP3   OH250357   6.427   7.148  13.230  0.6527  0.2198 -0.1739
 8721TIP3    H150358   6.408   7.153  13.323  2.2569  0.2423  0.1749
 8721TIP3    H250359   6.358   7.199  13.188  0.0818  0.4390  1.0113
 8722TIP3   OH250360   3.995   0.794  12.860 -0.0633 -0.4030  0.2244
 8722TIP3    H150361   4.089   0.795  12.881 -0.0590 -0.0980  0.2037
 8722TIP3    H250362   3.954   0.844  12.931  0.1929  2.5194 -1.5218
 8723TIP3   OH250363   4.762   0.872  12.194  0.1608  0.4785  0.3686
 8723TIP3    H150364   4.717   0.856  12.277  0.3997 -0.7956  0.2720
 8723TIP3    H250365   4.702   0.839  12.127 -0.1193  1.6880 -0.0021
 8724TIP3   OH250366   7.292   4.955  12.204 -0.2529 -0.2867 -0.5465
 8724TIP3    H150367   7.330   5.030  12.251 -0.0942 -0.4811 -0.3613
 8724TIP3    H250368   7.199   4.959  12.224 -0.3725  0.3347 -1.1943
 8725TIP3   OH250369   3.533   1.675  11.034  0.3777 -0.7001 -0.1004
 8725TIP3    H150370   3.610   1.724  11.064  1.0264 -0.8513 -1.4704
 8725TIP3    H250371   3.518   1.610  11.103  0.2004  0.6543  1.1853
 8726TIP3   OH250372   4.485   4.141  12.175  0.6430 -0.0859 -0.4129
 8726TIP3    H150373   4.523   4.103  12.254  0.2737 -0.8385 -0.5861
 8726TIP3    H250374   4.391   4.125  12.184  0.3470  1.6741 -0.0275
 8727TIP3   OH250375   2.303   2.751  12.804  0.6758 -0.2227  0.0718
 8727TIP3    H150376   2.328   2.700  12.881  0.6798 -0.6415 -0.2074
 8727TIP3    H250377   2.227   2.801  12.832  0.9450 -0.0354  0.4851
 8728TIP3   OH250378   6.082   0.900  11.501  0.4979 -0.1632 -0.2519
 8728TIP3    H150379   6.171   0.900  11.465  0.1753 -0.5157 -1.0778
 8728TIP3    H250380   6.044   0.983  11.471  1.3182  1.1765  2.1454
 8729TIP3   OH250381   3.134   0.545  11.611  0.0831 -0.3634  0.0942
 8729TIP3    H150382   3.217   0.506  11.582 -0.4383 -0.8502 -0.8065
 8729TIP3    H250383   3.114   0.500  11.694  0.8036 -0.1075  0.4128
 8730TIP3   OH250384   0.854   7.491  11.067  0.2456  0.1016  0.3761
 8730TIP3    H150385   0.873   7.498  10.973  0.2740  0.6949  0.4222
 8730TIP3    H250386   0.925   7.436  11.102 -0.4276 -1.1316 -0.1445
 8731TIP3   OH250387   4.196   3.427  12.298 -0.1083  0.0068 -0.7100
 8731TIP3    H150388   4.233   3.342  12.323 -2.4963 -1.0476 -0.5186
 8731TIP3    H250389   4.144   3.408  12.220  1.1110  1.7844 -2.0297
 8732TIP3   OH250390   5.453   6.092  12.344  0.0769  0.0107 -0.0613
 8732TIP3    H150391   5.418   6.014  12.387 -1.5253 -0.2935 -1.7626
 8732TIP3    H250392   5.469   6.065  12.254 -1.5657  1.8492 -1.0001
 8733TIP3   OH250393   0.596   5.964  10.319 -0.0544 -0.3898  0.2643
 8733TIP3    H150394   0.504   5.988  10.331 -0.0780 -0.1552 -0.3565
 8733TIP3    H250395   0.596   5.868  10.316 -0.3155 -0.3814 -0.0313
 8734TIP3   OH250396   4.525   6.747  11.764  0.1020  0.2576 -0.3231
 8734TIP3    H150397   4.532   6.687  11.838  0.2299  1.4329  0.6632
 8734TIP3    H250398   4.615   6.765  11.739  0.2389  2.1584  1.2346
 8735TIP3   OH250399   0.681   5.582  11.263 -0.4217  0.5393 -0.4951
 8735TIP3    H150400   0.725   5.498  11.272 -0.2606  0.7298  0.6345
 8735TIP3    H250401   0.608   5.578  11.325  0.5561  1.8341  0.8069
 8736TIP3   OH250402   5.847   4.053  12.581  0.3836  0.2288  0.2691
 8736TIP3    H150403   5.905   4.003  12.524 -0.5382 -1.9991  1.1706
 8736TIP3    H250404   5.844   4.003  12.663 -1.6498  1.0429  0.7612
 8737TIP3   OH250405   6.644   4.512  11.129  0.4558 -0.2305 -0.0007
 8737TIP3    H150406   6.739   4.503  11.136  0.7053 -0.5809 -2.7938
 8737TIP3    H250407   6.611   4.422  11.134  0.2895 -0.1469  0.5066
 8738TIP3   OH250408   5.820   5.941  11.094 -0.1217 -0.1169  0.2695
 8738TIP3    H150409   5.876   5.902  11.161  0.1654 -1.3241 -0.6437
 8738TIP3    H250410   5.873   5.940  11.014 -1.1708 -0.6442 -0.4535
 8739TIP3   OH250411   0.469   0.745  11.794 -0.1331 -0.1575 -0.0757
 8739TIP3    H150412   0.389   0.774  11.751 -0.3530  0.2051  0.5653
 8739TIP3    H250413   0.440   0.712  11.879  0.1928 -1.6509 -0.5217
 8740TIP3   OH250414   4.441   6.226  10.952 -0.0802 -0.5610 -0.3179
 8740TIP3    H150415   4.519   6.202  10.902 -0.0529 -0.4475 -0.3304
 8740TIP3    H250416   4.373   6.238  10.886 -0.2907 -1.3472 -0.2547
 8741TIP3   OH250417   3.740   3.121  11.288 -0.1616  0.6025 -0.1280
 8741TIP3    H150418   3.704   3.065  11.219  0.4401 -0.1045  0.1226
 8741TIP3    H250419   3.741   3.209  11.249 -2.0936  0.6598 -0.1638
 8742TIP3   OH250420   2.139   2.993  10.726  0.5015 -0.0329 -0.2362
 8742TIP3    H150421   2.123   2.900  10.740 -1.3007  0.2153 -0.4108
 8742TIP3    H250422   2.083   3.037  10.790  1.4098  0.9373 -0.0814
 8743TIP3   OH250423   7.276   1.403  10.758 -0.4427  0.0025  0.4688
 8743TIP3    H150424   7.211   1.452  10.709  0.4941  0.2796 -0.5378
 8743TIP3    H250425   7.237   1.317  10.771 -1.3623  0.4429  0.6629
 8744TIP3   OH250426   1.104   6.632  11.202 -0.5610  0.6111  0.0149
 8744TIP3    H150427   1.123   6.581  11.281 -3.0195 -0.0033  0.2949
 8744TIP3    H250428   1.183   6.625  11.149 -0.1720 -2.0680  0.8039
 8745TIP3   OH250429   1.826   3.320  13.179  0.0317  0.1192  0.2173
 8745TIP3    H150430   1.746   3.296  13.225 -0.6062  3.0588  0.7901
 8745TIP3    H250431   1.808   3.406  13.141  2.6144  0.4790 -0.3937
 8746TIP3   OH250432   2.381   4.212  11.548  0.0137 -0.5486 -0.0606
 8746TIP3    H150433   2.442   4.138  11.550  0.3180 -0.2823  0.8940
 8746TIP3    H250434   2.426   4.282  11.596  0.0351  0.5093 -1.5502
 8747TIP3   OH250435   0.142   7.345  11.091 -0.0650  0.4637  0.3741
 8747TIP3    H150436   0.195   7.300  11.025  0.8362  0.0051  1.3685
 8747TIP3    H250437   0.163   7.438  11.080  0.9004  0.2992  0.6809
 8748TIP3   OH250438   1.596   2.284  11.577  0.2188 -0.2478 -0.1191
 8748TIP3    H150439   1.658   2.356  11.590  0.7298 -0.8990  1.2222
 8748TIP3    H250440   1.629   2.214  11.633 -0.2624 -1.5431 -1.4071
 8749TIP3   OH250441   5.384   6.472  12.001  0.3431 -0.0093 -0.5426
 8749TIP3    H150442   5.444   6.476  12.075 -0.3159  1.8449 -0.0714
 8749TIP3    H250443   5.299   6.455  12.040 -0.0652  1.3101 -0.8150
 8750TIP3   OH250444   4.068   3.080  10.595 -0.3898  0.4289 -0.1931
 8750TIP3    H150445   4.111   3.045  10.673 -0.5619  0.7878  0.0650
 8750TIP3    H250446   3.986   3.031  10.589  0.2906 -0.6855 -1.0264
 8751TIP3   OH250447   6.464   0.866  11.972 -0.3252  0.1922  0.7507
 8751TIP3    H150448   6.457   0.959  11.995  1.3066  1.4245 -2.9863
 8751TIP3    H250449   6.387   0.849  11.918  0.8472  0.3021 -1.0320
 8752TIP3   OH250450   0.443   1.510  11.376 -0.4616 -0.7204 -0.1010
 8752TIP3    H150451   0.395   1.463  11.308  2.5108 -2.4088 -1.2688
 8752TIP3    H250452   0.434   1.455  11.454  0.4753 -1.6965 -0.6471
 8753TIP3   OH250453   6.682   2.859  12.653 -0.2032 -0.1682  0.2748
 8753TIP3    H150454   6.704   2.931  12.593  0.8209  0.3341  1.1990
 8753TIP3    H250455   6.699   2.780  12.602  3.3717  0.1655  0.6462
 8754TIP3   OH250456   0.908   5.329  11.292 -0.3101 -0.0756  0.4169
 8754TIP3    H150457   0.896   5.308  11.385 -2.1393 -1.2275 -0.0136
 8754TIP3    H250458   0.900   5.245  11.247 -1.9312  0.7464 -0.9576
 8755TIP3   OH250459   0.426   2.081  11.736  0.1518  0.3127  0.9618
 8755TIP3    H150460   0.503   2.078  11.794  1.1089  1.4468 -0.1834
 8755TIP3    H250461   0.441   2.158  11.681 -0.9993 -0.3992 -0.4001
 8756TIP3   OH250462   6.961   4.298  11.387 -0.4286 -0.6745  0.6243
 8756TIP3    H150463   6.986   4.291  11.294  1.7851  0.9498  1.0258
 8756TIP3    H250464   6.886   4.359  11.386 -1.0721 -1.4446 -0.1566
 8757TIP3   OH250465   3.413   2.642  12.089 -0.2772 -0.3108  0.4802
 8757TIP3    H150466   3.357   2.716  12.113 -0.1675  0.1690 -0.7026
 8757TIP3    H250467   3.389   2.621  11.999  1.0576 -0.4374  0.1294
 8758TIP3   OH250468   5.657   0.872  10.183  0.3145  0.0380 -0.0774
 8758TIP3    H150469   5.633   0.957  10.146 -0.1453 -0.5587 -1.2184
 8758TIP3    H250470   5.753   0.876  10.190  0.2891  0.6913  0.0051
 8759TIP3   OH250471   5.817   2.842  10.613 -0.0800 -0.5239  0.4721
 8759TIP3    H150472   5.860   2.922  10.644  1.3849 -0.7111 -0.9794
 8759TIP3    H250473   5.749   2.873  10.553  0.0271 -0.3482  0.4406
 8760TIP3   OH250474   1.562   7.602  11.420 -0.3742  0.2209 -0.0079
 8760TIP3    H150475   1.501   7.626  11.489 -1.1650  1.2046 -1.0102
 8760TIP3    H250476   1.648   7.602  11.463 -0.9993 -0.6809  1.2951
 8761TIP3   OH250477   2.557   4.929  12.414 -0.2511 -0.8986 -0.8681
 8761TIP3    H150478   2.652   4.941  12.414 -0.3483  0.0244 -1.8419
 8761TIP3    H250479   2.527   4.971  12.333 -1.6418  0.1055  0.1179
 8762TIP3   OH250480   0.641   7.515  12.600 -0.3846  0.0504  0.4338
 8762TIP3    H150481   0.611   7.473  12.519 -0.0990  2.0604 -0.7616
 8762TIP3    H250482   0.699   7.450  12.641  0.0501 -0.7236 -1.3360
 8763TIP3   OH250483   7.192   5.422  12.760  0.3790 -0.1775  0.3613
 8763TIP3    H150484   7.119   5.406  12.700  0.7020  1.0949 -0.3990
 8763TIP3    H250485   7.153   5.413  12.847 -0.5924  0.0970 -0.0306
 8764TIP3   OH250486   0.894   1.620  18.336 -0.2350  0.0950  0.1911
 8764TIP3    H150487   0.951   1.666  18.398 -0.6191 -0.1858  0.7735
 8764TIP3    H250488   0.873   1.685  18.269  0.2814  0.3740  0.2930
 8765TIP3   OH250489   0.442   1.007  11.285 -0.3887  0.2862  0.3426
 8765TIP3    H150490   0.346   1.007  11.295 -0.3387  0.4250  0.8509
 8765TIP3    H250491   0.458   0.950  11.210 -0.8682  0.2034  0.2982
 8766TIP3   OH250492   4.274   4.727  12.690  0.2248  0.5800 -0.0035
 8766TIP3    H150493   4.268   4.750  12.597  0.2091  0.5878 -0.0003
 8766TIP3    H250494   4.284   4.811  12.735  1.2118  0.5198 -0.0803
 8767TIP3   OH250495   4.270   2.896  11.771 -0.0418  0.0912 -0.5395
 8767TIP3    H150496   4.360   2.867  11.787  0.9615  2.3436 -1.5828
 8767TIP3    H250497   4.262   2.899  11.676 -1.5826 -0.9620 -0.4813
 8768TIP3   OH250498   5.957   1.564  12.082 -0.2453  0.2840 -0.4859
 8768TIP3    H150499   6.049   1.545  12.065 -0.5632 -0.1889 -1.7703
 8768TIP3    H250500   5.939   1.643  12.031 -0.9647 -0.5862 -1.6190
 8769TIP3   OH250501   7.236   2.056  10.835 -0.7094 -0.1283  0.2254
 8769TIP3    H150502   7.254   2.105  10.754  2.0150 -1.1245  0.1146
 8769TIP3    H250503   7.246   2.121  10.905  1.2697 -0.0909 -0.0261
 8770TIP3   OH250504   4.891   0.051  11.747 -0.2732  0.1902 -0.0845
 8770TIP3    H150505   4.891  -0.035  11.705  0.3838  0.8369 -1.4525
 8770TIP3    H250506   4.968   0.049  11.804 -1.3840 -0.8297  1.4881
 8771TIP3   OH250507   2.827   1.145  10.402  0.2686  0.0329  0.1104
 8771TIP3    H150508   2.889   1.085  10.444 -1.3017 -0.8170  1.3150
 8771TIP3    H250509   2.751   1.091  10.384 -0.0234  0.9776 -1.6712
 8772TIP3   OH250510   4.536   1.707  12.894 -0.2098 -0.0520 -0.2196
 8772TIP3    H150511   4.605   1.722  12.830 -1.4088 -0.0955 -1.5942
 8772TIP3    H250512   4.580   1.706  12.978  1.3763  0.4178 -1.0107
 8773TIP3   OH250513   6.179   4.555  11.183 -0.4068 -0.7788  0.2569
 8773TIP3    H150514   6.235   4.481  11.160  3.4557  1.8211  0.3986
 8773TIP3    H250515   6.234   4.611  11.238 -2.9839  2.3632 -0.0444
 8774TIP3   OH250516   7.447   3.306  10.228 -0.2168 -0.4243  1.0541
 8774TIP3    H150517   7.463   3.291  10.321 -0.7569 -0.3857  1.1579
 8774TIP3    H250518   7.463   3.221  10.187  2.4595  0.1130  0.8191
 8775TIP3   OH250519   6.530   7.249  13.600 -0.5314  0.0897 -0.1642
 8775TIP3    H150520   6.491   7.172  13.559 -0.4379 -0.7320  1.2267
 8775TIP3    H250521   6.464   7.281  13.661 -0.0152  0.2287  0.3371
 8776TIP3   OH250522   0.182   3.459  17.350  0.0959 -0.4303 -0.2076
 8776TIP3    H150523   0.274   3.466  17.323 -0.6331  0.6543 -2.7224
 8776TIP3    H250524   0.157   3.369  17.328  0.1190 -0.2157 -1.1602
 8777TIP3   OH250525   4.957   1.658  10.807 -0.5102 -0.7310  0.3253
 8777TIP3    H150526   4.944   1.750  10.784 -0.1082 -0.8201 -0.2842
 8777TIP3    H250527   4.868   1.622  10.809 -0.6342 -0.4548  0.0122
 8778TIP3   OH250528   0.898   2.760  11.176 -0.3970 -0.1638  0.2735
 8778TIP3    H150529   0.894   2.667  11.156  2.0748 -0.2640 -0.0230
 8778TIP3    H250530   0.977   2.771  11.229 -0.0352  1.8815 -0.5679
 8779TIP3   OH250531   2.242   5.920  12.549 -0.2165 -0.6708 -0.0881
 8779TIP3    H150532   2.280   5.927  12.637  0.4901  0.0208 -0.4292
 8779TIP3    H250533   2.229   6.011  12.522  0.3707 -0.8493 -1.0214
 8780TIP3   OH250534   1.942   5.335  12.403 -0.6429  0.2085  0.4359
 8780TIP3    H150535   1.892   5.358  12.325  0.5705  0.7146 -0.2073
 8780TIP3    H250536   2.020   5.290  12.369 -0.5859 -0.4674  1.4153
 8781TIP3   OH250537   2.112   6.768  12.472  0.0245 -0.3491  0.4397
 8781TIP3    H150538   2.117   6.862  12.456  0.1281 -0.3562  0.4317
 8781TIP3    H250539   2.126   6.759  12.566 -1.4882 -0.2319  0.7086
 8782TIP3   OH250540   1.188   2.346  11.847 -0.8237 -0.5078  0.7077
 8782TIP3    H150541   1.199   2.428  11.800 -2.2445  0.0383  1.2813
 8782TIP3    H250542   1.110   2.306  11.809 -0.2519 -1.5295  0.5565
 8783TIP3   OH250543   7.035   1.877  10.748 -0.3171  0.1312 -0.3361
 8783TIP3    H150544   7.099   1.921  10.804  0.6427 -0.1542 -1.1779
 8783TIP3    H250545   6.998   1.947  10.694 -1.1951  0.3958  0.5738
 8784TIP3   OH250546   2.408   4.690  12.748 -0.1881 -0.9459 -0.2736
 8784TIP3    H150547   2.361   4.721  12.825 -1.8160 -2.6271 -0.5114
 8784TIP3    H250548   2.486   4.648  12.784 -1.5178 -2.7807  0.6534
 8785TIP3   OH250549   1.510   5.054  13.164  0.1934  0.1362  0.7666
 8785TIP3    H150550   1.441   5.085  13.223  0.7225  1.3990  0.7528
 8785TIP3    H250551   1.576   5.015  13.221  0.8379  1.6162  1.0559
 8786TIP3   OH250552   2.049   1.675  11.535 -0.1688  0.3651 -0.1595
 8786TIP3    H150553   2.105   1.743  11.571  1.2288 -0.1997 -1.1686
 8786TIP3    H250554   2.105   1.626  11.475 -0.8794 -2.1876  1.0943
 8787TIP3   OH250555   3.558   1.104  10.899 -0.4474  0.0883  0.2745
 8787TIP3    H150556   3.631   1.048  10.926 -0.4324  0.5514  1.2358
 8787TIP3    H250557   3.590   1.150  10.821 -0.5619 -1.4376 -0.7084
 8788TIP3   OH250558   2.760   0.673  11.782  0.4906 -0.0281  0.2684
 8788TIP3    H150559   2.826   0.742  11.774 -0.5543  1.0609  0.8584
 8788TIP3    H250560   2.735   0.673  11.874 -0.4588 -0.3052  0.0257
 8789TIP3   OH250561   3.858   6.156  12.368  0.3127  0.2395 -0.6091
 8789TIP3    H150562   3.904   6.236  12.342  0.4865 -0.5821 -3.1132
 8789TIP3    H250563   3.907   6.086  12.326 -0.3683 -1.1346  0.8066
 8790TIP3   OH250564   4.273   2.579  11.669  0.4564 -0.3485 -0.0904
 8790TIP3    H150565   4.357   2.562  11.627  0.4419  0.6412 -0.5489
 8790TIP3    H250566   4.293   2.591  11.761  0.8512  0.0945 -0.2329
 8791TIP3   OH250567   1.824   7.340  12.115 -0.0445 -0.5132  0.1322
 8791TIP3    H150568   1.817   7.342  12.020 -0.1255 -0.7965  0.1290
 8791TIP3    H250569   1.743   7.381  12.146  0.4338  0.4792  0.0779
 8792TIP3   OH250570   4.907   0.585  10.878 -0.1335  0.2937 -0.1291
 8792TIP3    H150571   4.853   0.660  10.904  0.9195  1.4181 -1.0407
 8792TIP3    H250572   4.855   0.508  10.903 -1.0564  1.3033  1.2449
 8793TIP3   OH250573   3.939   2.640  11.284  0.3009  0.0215 -0.1270
 8793TIP3    H150574   3.880   2.576  11.244 -0.1315  0.5035 -0.2683
 8793TIP3    H250575   4.027   2.610  11.260  0.1770 -1.3434  1.0471
 8794TIP3   OH250576   1.492   3.552  11.468 -0.8617  0.5042  0.1049
 8794TIP3    H150577   1.411   3.569  11.516 -0.8195  1.2217 -0.0571
 8794TIP3    H250578   1.463   3.528  11.380 -0.9432 -0.9377  0.4979
 8795TIP3   OH250579   0.528   3.730  11.899 -0.1407 -0.2110 -0.2410
 8795TIP3    H150580   0.444   3.739  11.854  0.1227  1.4071 -0.5019
 8795TIP3    H250581   0.509   3.681  11.978 -1.3783  0.3054 -0.1971
 8796TIP3   OH250582   7.031   0.136  12.239  0.6701 -0.1525 -0.6433
 8796TIP3    H150583   6.959   0.079  12.212 -0.2238 -0.2835  1.7979
 8796TIP3    H250584   7.082   0.082  12.300  1.9442  0.4767 -1.1239
 8797TIP3   OH250585   1.552   3.317  12.975  0.3848  0.1540  0.6574
 8797TIP3    H150586   1.624   3.373  12.946  1.2119 -0.7694  0.8983
 8797TIP3    H250587   1.492   3.377  13.020 -0.0652  1.3041 -1.3457
 8798TIP3   OH250588   1.962   3.188  10.867 -0.0380  0.2606  0.0080
 8798TIP3    H150589   1.914   3.224  10.942  1.0057  2.3918 -0.2909
 8798TIP3    H250590   2.048   3.229  10.872  0.1973  0.1195 -2.1366
 8799TIP3   OH250591   5.251   7.543  12.509 -0.2114  0.1709  0.5877
 8799TIP3    H150592   5.159   7.518  12.498 -0.3754  1.3120 -1.1791
 8799TIP3    H250593   5.251   7.601  12.586 -0.8889 -0.2027  0.8751
 8800TIP3   OH250594   4.260   3.691  11.596  0.5892 -0.3105  0.1583
 8800TIP3    H150595   4.221   3.623  11.651  0.0178 -0.3698 -0.3121
 8800TIP3    H250596   4.262   3.769  11.652 -1.1219 -0.0412 -0.1037
 8801TIP3   OH250597   6.597   5.330  13.027 -0.1916 -0.2902 -0.2655
 8801TIP3    H150598   6.566   5.241  13.008  0.1345 -0.6996  1.0145
 8801TIP3    H250599   6.521   5.374  13.065  0.0466 -0.4828  0.4472
 8802TIP3   OH250600   3.251   1.895  11.036 -0.0375  0.6026 -0.0965
 8802TIP3    H150601   3.187   1.825  11.025 -1.8254  1.9210  1.2404
 8802TIP3    H250602   3.322   1.855  11.086  0.5347 -1.0501 -2.0992
 8803TIP3   OH250603   4.289   0.475  10.520  0.5025  0.7849  0.1643
 8803TIP3    H150604   4.294   0.549  10.459 -1.0028 -1.3036 -2.7692
 8803TIP3    H250605   4.362   0.418  10.495  1.1734  0.8463  1.8462
 8804TIP3   OH250606   0.700   5.114  12.024 -0.2831 -0.1955  0.4662
 8804TIP3    H150607   0.685   5.179  11.955  0.8270 -1.8771 -1.4721
 8804TIP3    H250608   0.734   5.164  12.098 -1.3129  1.6498 -0.2358
 8805TIP3   OH250609   0.916   6.616  13.009 -0.6734  0.2076  0.2501
 8805TIP3    H150610   0.971   6.695  13.010 -2.1718  1.3147 -0.0591
 8805TIP3    H250611   0.928   6.577  13.095 -0.6201  1.3247  0.7758
 8806TIP3   OH250612   5.374   3.447  11.040  0.1533 -0.3301 -0.4844
 8806TIP3    H150613   5.361   3.353  11.048 -1.3946 -0.0084  1.6053
 8806TIP3    H250614   5.287   3.481  11.016 -0.3306  0.8519  2.5207
 8807TIP3   OH250615   2.592   2.300  11.443  0.0174 -0.0703  0.5478
 8807TIP3    H150616   2.631   2.316  11.357 -0.6750 -0.4538  0.1460
 8807TIP3    H250617   2.498   2.297  11.426 -0.1683  0.4624  1.4300
 8808TIP3   OH250618   3.712   2.525  12.013 -0.2137 -0.5179 -0.0908
 8808TIP3    H150619   3.766   2.599  11.985  0.1764 -0.2820  1.2435
 8808TIP3    H250620   3.646   2.563  12.071  0.3783 -1.2710  1.1258
 8809TIP3   OH250621   1.103   6.216  11.318 -0.2427  0.2831 -0.2681
 8809TIP3    H150622   1.044   6.213  11.242 -1.2940  0.7394  0.5005
 8809TIP3    H250623   1.180   6.263  11.287  0.0852 -1.0264 -1.5257
 8810TIP3   OH250624   1.870   5.755  12.343  0.3406  0.5641  0.1306
 8810TIP3    H150625   1.782   5.782  12.371 -0.8440 -2.3819 -0.3898
 8810TIP3    H250626   1.894   5.686  12.404  0.8227 -0.9772 -1.7256
 8811TIP3   OH250627   3.449   6.016  12.180  0.0766 -0.1518 -1.0399
 8811TIP3    H150628   3.487   6.029  12.267 -0.6238  0.8956 -0.8721
 8811TIP3    H250629   3.467   6.098  12.133  0.0645 -0.5400 -1.7366
 8812TIP3   OH250630   6.731   4.017  11.962  0.1864 -0.0539  0.0015
 8812TIP3    H150631   6.707   3.946  11.903 -1.8446  1.0161 -0.5676
 8812TIP3    H250632   6.779   4.079  11.907  0.6252 -0.2848  0.1247
 8813TIP3   OH250633   6.488   5.004  11.657 -0.0483 -0.5729  0.2985
 8813TIP3    H150634   6.503   5.086  11.705 -0.3690 -1.0318  1.2040
 8813TIP3    H250635   6.467   4.940  11.725 -0.4862 -1.2519 -0.4609
 8814TIP3   OH250636   1.162   1.563  11.730 -0.3871  0.5624 -0.1687
 8814TIP3    H150637   1.170   1.480  11.684 -2.6886  0.5061 -0.6102
 8814TIP3    H250638   1.108   1.543  11.806  1.0160  1.2216  1.0522
 8815TIP3   OH250639   2.091   2.087  12.057  0.0130 -0.0240  0.0588
 8815TIP3    H150640   2.122   1.997  12.053  1.5745  0.4934 -0.4241
 8815TIP3    H250641   2.065   2.100  12.149 -1.9843 -1.4689 -0.2442
 8816TIP3   OH250642   3.813   7.503  13.032  0.1115  0.6279  0.1869
 8816TIP3    H150643   3.726   7.540  13.041 -1.3907 -0.9214 -4.7696
 8816TIP3    H250644   3.862   7.567  12.980  0.0721 -0.6930 -1.5908
 8817TIP3   OH250645   1.425   7.172  11.134 -0.7540  0.1730 -0.1126
 8817TIP3    H150646   1.454   7.099  11.189  1.0822  0.9109 -0.0378
 8817TIP3    H250647   1.449   7.250  11.183 -1.2547  0.8524 -0.9112
 8818TIP3   OH250648   2.191   4.247  11.909  0.5066 -0.1995  0.1350
 8818TIP3    H150649   2.286   4.242  11.900  0.4594 -0.8588 -0.0605
 8818TIP3    H250650   2.176   4.320  11.969  1.1059  0.3096 -0.3207
 8819TIP3   OH250651   7.568   6.637  10.371  0.5723 -0.1781  0.3112
 8819TIP3    H150652   7.577   6.689  10.451 -0.3676  0.6171 -0.0654
 8819TIP3    H250653   7.612   6.555  10.390 -1.5282 -0.9149  2.4871
 8820TIP3   OH250654   2.044   4.783  12.622 -0.0350 -0.0311 -0.2858
 8820TIP3    H150655   2.128   4.750  12.590 -0.4478 -0.3674 -1.0434
 8820TIP3    H250656   1.991   4.705  12.635 -0.6223  0.2432 -0.9494
 8821TIP3   OH250657   4.013   4.790  12.204 -0.0280  0.2295 -0.2167
 8821TIP3    H150658   4.067   4.826  12.134 -2.9810  1.1046 -2.2617
 8821TIP3    H250659   3.980   4.708  12.169 -1.4948  0.6444  0.1163
 8822TIP3   OH250660   1.743   2.102  11.724 -0.2817 -0.3447  0.0235
 8822TIP3    H150661   1.839   2.103  11.724 -0.2873  0.3459 -0.1289
 8822TIP3    H250662   1.721   2.011  11.744  0.4050 -0.0096  2.6838
 8823TIP3   OH250663   1.456   2.812  11.445  0.1558  0.0335 -0.3128
 8823TIP3    H150664   1.422   2.788  11.531  0.3233  0.3449 -0.1577
 8823TIP3    H250665   1.434   2.904  11.435  1.9052  0.5466  0.2604
 8824TIP3   OH250666   5.412   2.392  11.910 -0.2515  0.1358 -0.3245
 8824TIP3    H150667   5.413   2.297  11.898 -0.1923 -0.1573  1.6279
 8824TIP3    H250668   5.325   2.419  11.881  0.5884 -0.0663 -3.3994
 8825TIP3   OH250669   5.574   2.512  12.635  0.2394  0.7164 -0.6924
 8825TIP3    H150670   5.540   2.479  12.718 -4.5521 -1.8442 -3.2602
 8825TIP3    H250671   5.658   2.467  12.625 -0.0142 -0.5279  1.7909
 8826TIP3   OH250672   5.971   5.929  10.871  0.8299  0.2849 -0.3793
 8826TIP3    H150673   5.960   5.846  10.825 -0.7485 -0.1803  0.7391
 8826TIP3    H250674   6.056   5.962  10.842  0.7050 -0.8616 -2.1698
 8827TIP3   OH250675   2.975   1.790  11.036  0.4142 -0.0976  0.2944
 8827TIP3    H150676   2.922   1.727  11.084 -0.0587  1.5097  2.0046
 8827TIP3    H250677   2.972   1.759  10.945 -0.2245 -2.1948  0.9631
 8828TIP3   OH250678   3.507   2.263  12.575  0.4868  0.0009 -0.0504
 8828TIP3    H150679   3.492   2.279  12.668  1.0842 -0.6218  0.1595
 8828TIP3    H250680   3.420   2.244  12.540  0.5107 -1.9442  0.8348
 8829TIP3   OH250681   7.385   0.860  10.892  0.2495 -0.4571 -0.1967
 8829TIP3    H150682   7.441   0.809  10.951 -0.8823 -0.4256  0.9205
 8829TIP3    H250683   7.303   0.810  10.887 -1.4308  1.8537  2.0377
 8830TIP3   OH250684   2.934   5.925  10.697 -0.6265 -0.5129  0.2434
 8830TIP3    H150685   2.851   5.961  10.664 -0.2704 -0.3767 -0.4988
 8830TIP3    H250686   2.913   5.897  10.786 -1.0901  0.9417  0.6219
 8831TIP3   OH250687   4.978   1.036  11.141  0.6671  0.2874 -0.4614
 8831TIP3    H150688   4.991   1.002  11.053 -1.0183  1.1761 -1.0972
 8831TIP3    H250689   4.906   0.985  11.177  1.1798  0.0982  0.3268
 8832TIP3   OH250690   1.339   3.272  10.803 -0.3800 -0.2408  0.1152
 8832TIP3    H150691   1.303   3.200  10.855  0.9145 -0.8724  0.1749
 8832TIP3    H250692   1.353   3.343  10.865 -0.3795 -0.4152  0.3127
 8833TIP3   OH250693   3.290   5.675  12.786 -0.0853  0.0067 -0.8154
 8833TIP3    H150694   3.288   5.720  12.871  0.4252 -0.8488 -0.3315
 8833TIP3    H250695   3.202   5.639  12.776 -0.5542  1.2419 -1.2950
 8834TIP3   OH250696   1.545   4.862  12.632 -0.4329 -0.4769 -0.8110
 8834TIP3    H150697   1.474   4.917  12.599 -0.1136  0.5269  0.0759
 8834TIP3    H250698   1.514   4.833  12.718  0.6324  0.8556  0.0584
 8835TIP3   OH250699   0.943   6.676  10.481  0.2802 -0.0259  0.2959
 8835TIP3    H150700   1.018   6.718  10.523 -1.7900  0.2412  4.2771
 8835TIP3    H250701   0.981   6.609  10.425  3.4749  1.4620  0.4498
 8836TIP3   OH250702   2.799   6.934  11.575 -0.6966  0.5552 -0.1309
 8836TIP3    H150703   2.825   6.940  11.482  0.2550  1.3719  0.1669
 8836TIP3    H250704   2.811   7.022  11.609  0.1561  0.0041  1.0674
 8837TIP3   OH250705   5.779   2.945  11.027  0.1391 -0.3670  0.1383
 8837TIP3    H150706   5.811   2.864  10.988 -1.5712 -0.7303 -0.6137
 8837TIP3    H250707   5.691   2.923  11.058 -0.1418  1.0617  0.4185
 8838TIP3   OH250708   3.295   3.758  11.259  0.6701 -0.0266  0.1047
 8838TIP3    H150709   3.299   3.667  11.288  0.1905  0.6999  2.8111
 8838TIP3    H250710   3.295   3.754  11.164 -3.1928 -3.0979 -0.0177
 8839TIP3   OH250711   2.012   0.652  13.011 -0.3222  0.7714  0.1563
 8839TIP3    H150712   1.917   0.653  12.999 -0.1568 -0.1903 -1.4815
 8839TIP3    H250713   2.044   0.592  12.944  1.4083  0.6494  1.0389
 8840TIP3   OH250714   6.984   4.170  12.074 -0.3680  0.1884  0.0415
 8840TIP3    H150715   6.913   4.223  12.110 -0.1831  0.4811 -0.0280
 8840TIP3    H250716   6.971   4.173  11.979 -0.0843  0.4864  0.0140
 8841TIP3   OH250717   3.767   6.194  10.565 -0.1585 -0.0917  0.3357
 8841TIP3    H150718   3.707   6.252  10.518 -1.6323 -2.1644 -0.5416
 8841TIP3    H250719   3.854   6.215  10.530 -0.7960  0.7522 -0.7953
 8842TIP3   OH250720   6.528   0.911  11.212  0.5460 -0.3606  0.2878
 8842TIP3    H150721   6.544   1.005  11.217  2.6558 -0.7144  1.2890
 8842TIP3    H250722   6.585   0.880  11.142  0.1383 -0.9523  0.2048
 8843TIP3   OH250723   4.607   0.696  11.357  0.2922  0.2372  0.2298
 8843TIP3    H150724   4.603   0.770  11.418 -1.4079 -0.4243  0.9603
 8843TIP3    H250725   4.669   0.636  11.397  0.5190  0.5782  0.4010
 8844TIP3   OH250726   5.695   5.068  10.737 -0.2570 -0.4446 -0.5606
 8844TIP3    H150727   5.619   5.125  10.750  0.4812  0.2132  1.2105
 8844TIP3    H250728   5.665   4.981  10.766 -0.0182  0.0693  1.3866
 8845TIP3   OH250729   2.077   2.878  12.859  0.2756 -0.6274  0.1011
 8845TIP3    H150730   2.034   2.963  12.847  0.5847 -0.5476 -0.4634
 8845TIP3    H250731   2.006   2.815  12.860  0.0351 -0.3533  0.6204
 8846TIP3   OH250732   0.318   6.094  11.935  0.0271 -0.4238  0.4859
 8846TIP3    H150733   0.375   6.045  11.876 -0.2112  0.4156 -0.4722
 8846TIP3    H250734   0.229   6.072  11.906 -0.0845  0.7101 -0.1101
 8847TIP3   OH250735   1.396   4.781  13.158 -0.2588 -0.0087  0.2334
 8847TIP3    H150736   1.444   4.732  13.224 -1.8442 -0.5218  1.0786
 8847TIP3    H250737   1.405   4.873  13.183  0.7262 -0.0405  0.0362
 8848TIP3   OH250738   2.615   4.515  12.867  0.2154  0.0675 -0.2844
 8848TIP3    H150739   2.665   4.480  12.793 -0.0540  1.8284 -1.3442
 8848TIP3    H250740   2.667   4.589  12.897 -0.4332  0.2654  0.3497
 8849TIP3   OH250741   2.974   3.803  12.557  0.4529  0.5177 -0.6139
 8849TIP3    H150742   2.923   3.872  12.599 -0.1677 -0.8411  0.9899
 8849TIP3    H250743   2.992   3.836  12.469 -0.1583  2.5258 -0.0338
 8850TIP3   OH250744   3.629   4.192  10.980 -0.2607  0.1376 -0.5379
 8850TIP3    H150745   3.702   4.143  11.018  0.3532  1.6030  0.2284
 8850TIP3    H250746   3.617   4.152  10.894  0.3638 -1.2022 -0.0346
 8851TIP3   OH250747   2.217   5.248  11.524 -0.1821  0.5615  0.4293
 8851TIP3    H150748   2.276   5.321  11.542 -1.2745  1.2852  1.2062
 8851TIP3    H250749   2.149   5.284  11.467  0.1148 -0.2610 -0.4614
 8852TIP3   OH250750   6.611   2.376  11.011  0.0429 -0.0554  0.1402
 8852TIP3    H150751   6.621   2.470  10.996 -0.4338  0.0335  0.3625
 8852TIP3    H250752   6.517   2.362  11.013  0.1112 -0.5225  0.2187
 8853TIP3   OH250753   0.410   4.169  10.662  0.3825 -0.0249 -0.2829
 8853TIP3    H150754   0.353   4.152  10.737 -0.3072 -0.7871 -0.9513
 8853TIP3    H250755   0.388   4.100  10.599  1.3064  0.2933 -0.9865
 8854TIP3   OH250756   5.266   3.881  11.364  0.9446  0.4216 -0.1395
 8854TIP3    H150757   5.310   3.873  11.279  0.2641 -0.1947 -0.4467
 8854TIP3    H250758   5.338   3.882  11.427  1.4184 -0.9575 -0.6097
 8855TIP3   OH250759   6.362   7.387  10.465  0.1438  0.1174 -0.5696
 8855TIP3    H150760   6.378   7.429  10.549  0.1554 -2.8342  1.0278
 8855TIP3    H250761   6.282   7.427  10.432  0.1362  1.3138  0.8315
 8856TIP3   OH250762   4.093   1.719  11.116 -0.4720 -0.1150  0.0638
 8856TIP3    H150763   4.116   1.720  11.209 -0.6167  1.0526  0.1122
 8856TIP3    H250764   4.046   1.637  11.103 -0.4681 -0.2810  1.0263
 8857TIP3   OH250765   1.237   0.516  13.126 -0.5766  0.0328 -0.1420
 8857TIP3    H150766   1.327   0.520  13.092 -0.5414 -1.4201 -0.2860
 8857TIP3    H250767   1.241   0.449  13.195 -1.1514  1.3134  1.2020
 8858TIP3   OH250768   0.841   4.904  13.284  0.0211  0.0824 -0.8327
 8858TIP3    H150769   0.908   4.898  13.353 -0.5247 -0.3446 -0.3260
 8858TIP3    H250770   0.845   4.995  13.255  0.2364  0.2805 -0.2060
 8859TIP3   OH250771   2.352   7.272  11.370  0.2145  0.1889  0.2544
 8859TIP3    H150772   2.411   7.338  11.335  1.3640 -1.6418 -1.4431
 8859TIP3    H250773   2.404   7.227  11.437 -0.5523  0.9115  1.3770
 8860TIP3   OH250774   0.856   6.782  11.834  0.5770 -0.1238 -0.6912
 8860TIP3    H150775   0.905   6.714  11.788  0.3595 -0.2732 -0.7053
 8860TIP3    H250776   0.841   6.850  11.768 -0.1294 -0.5393 -0.9790
 8861TIP3   OH250777   7.640   4.811  11.907 -0.2919 -0.1456 -0.4753
 8861TIP3    H150778   7.730   4.841  11.917 -0.7937  2.0340 -1.7269
 8861TIP3    H250779   7.639   4.766  11.823 -0.4503  0.1722 -0.6443
 8862TIP3   OH250780   5.362   0.167  11.267  0.3555 -0.3054 -0.7327
 8862TIP3    H150781   5.333   0.081  11.236 -0.9160  0.1280 -0.8090
 8862TIP3    H250782   5.300   0.190  11.335  0.2728  0.8461 -1.1704
 8863TIP3   OH250783   3.935   2.054  12.882 -0.1620 -0.1912  0.3395
 8863TIP3    H150784   3.848   2.091  12.898  0.1275  1.1557 -1.0103
 8863TIP3    H250785   3.949   1.993  12.955 -2.4958 -0.9458  0.2246
 8864TIP3   OH250786   7.029   7.534  11.804  0.1261 -0.3710  0.1116
 8864TIP3    H150787   6.962   7.471  11.831  1.3306 -1.2333  1.1947
 8864TIP3    H250788   7.106   7.511  11.856  0.2069  2.9818  1.7083
 8865TIP3   OH250789   3.952   5.632  13.223  0.7260 -0.1487 -0.7593
 8865TIP3    H150790   4.008   5.699  13.184  1.6067 -0.3340  0.1520
 8865TIP3    H250791   4.012   5.563  13.252  0.0243 -0.4216  0.1156
 8866TIP3   OH250792   7.236   0.531  13.074 -0.0706  0.2179  0.0062
 8866TIP3    H150793   7.158   0.584  13.093 -0.3132 -0.0557 -0.2029
 8866TIP3    H250794   7.236   0.464  13.142  0.0041  0.2438  0.0313
 8867TIP3   OH250795   4.688   0.808  10.927  0.3281 -0.1743  0.0694
 8867TIP3    H150796   4.605   0.775  10.892  0.5416  0.6834 -1.3357
 8867TIP3    H250797   4.664   0.886  10.977  0.3009  0.2839 -0.6383
 8868TIP3   OH250798   4.710   0.553  12.091 -0.2642 -0.1182 -0.4113
 8868TIP3    H150799   4.689   0.461  12.073 -0.8539 -0.1351  0.3326
 8868TIP3    H250800   4.787   0.550  12.147  0.7585 -0.1004 -1.7735
 8869TIP3   OH250801   3.654   7.420  10.539  0.4279 -0.2715  0.0960
 8869TIP3    H150802   3.578   7.478  10.542 -0.1469 -1.0377  1.8691
 8869TIP3    H250803   3.729   7.479  10.537 -0.1800  0.4973 -2.0371
 8870TIP3   OH250804   1.010   0.688  10.731  0.4253 -0.1325  0.2017
 8870TIP3    H150805   1.058   0.622  10.681  1.5804  1.9859 -1.6742
 8870TIP3    H250806   0.952   0.729  10.667  2.6869  3.3787  0.1442
 8871TIP3   OH250807   0.639   5.117  11.424 -0.9721  0.5204  0.4520
 8871TIP3    H150808   0.720   5.141  11.468 -1.2945  0.0439  1.3254
 8871TIP3    H250809   0.572   5.173  11.464 -1.1661  0.5167  0.1350
 8872TIP3   OH250810   7.299   4.096  12.372 -0.1319  0.2425  0.8688
 8872TIP3    H150811   7.245   4.156  12.422 -1.0381 -0.0941  0.3235
 8872TIP3    H250812   7.318   4.025  12.432 -1.4123 -0.2783  0.6906
 8873TIP3   OH250813   3.685   7.022  11.005  0.1622 -0.6550 -0.0822
 8873TIP3    H150814   3.627   6.949  10.984  0.3978 -1.4974  1.9538
 8873TIP3    H250815   3.761   6.981  11.046  1.7199  0.5118 -1.6502
 8874TIP3   OH250816   1.770   7.365  11.161 -0.1824  0.3483 -0.1850
 8874TIP3    H150817   1.777   7.460  11.167  0.5022  0.2841  0.1308
 8874TIP3    H250818   1.847   7.339  11.110  0.7256 -0.1974  1.3948
 8875TIP3   OH250819   7.277   6.616  12.495  0.3783 -0.0857  0.2681
 8875TIP3    H150820   7.350   6.630  12.555  1.2276  0.3227 -0.8255
 8875TIP3    H250821   7.297   6.671  12.419 -0.4039 -0.9584 -0.6012
 8876TIP3   OH250822   0.876   5.717  10.648  0.1952 -0.2729  0.6917
 8876TIP3    H150823   0.810   5.783  10.668  0.5254  0.0376  0.7597
 8876TIP3    H250824   0.949   5.766  10.610  0.1734 -0.6779  0.1077
 8877TIP3   OH250825   0.605   6.658  12.453 -0.2525 -0.3913 -0.2494
 8877TIP3    H150826   0.626   6.714  12.379 -0.7439  0.0458 -0.0634
 8877TIP3    H250827   0.689   6.622  12.481 -0.2763 -2.4404 -2.4784
 8878TIP3   OH250828   0.850   1.623  10.671  0.2025 -0.2177  0.6848
 8878TIP3    H150829   0.928   1.577  10.642 -0.9839 -2.1879  0.4385
 8878TIP3    H250830   0.857   1.624  10.767  1.1343  0.8213  0.6307
 8879TIP3   OH250831   5.301   6.399  10.460 -0.6651  1.0508 -0.7407
 8879TIP3    H150832   5.366   6.449  10.511 -0.1144  1.8016 -2.1229
 8879TIP3    H250833   5.353   6.342  10.404 -1.2731 -0.0599 -0.1984
 8880TIP3   OH250834   0.848   4.899  10.743 -0.8801  0.0152 -0.3440
 8880TIP3    H150835   0.896   4.964  10.795 -1.3508  0.2293 -0.1759
 8880TIP3    H250836   0.816   4.836  10.808  2.4586 -2.3696 -0.7338
 8881TIP3   OH250837   4.818   1.618  11.576 -0.1026 -0.3116 -0.0348
 8881TIP3    H150838   4.849   1.653  11.493  1.4204 -1.5348 -0.0238
 8881TIP3    H250839   4.801   1.695  11.630  0.3304  0.4635 -0.9807
 8882TIP3   OH250840   5.041   7.064  12.123  0.2186  0.0369 -0.9355
 8882TIP3    H150841   5.073   6.975  12.114  1.5839  0.0645  2.2005
 8882TIP3    H250842   5.090   7.114  12.057  0.0490 -1.3499 -2.1518
 8883TIP3   OH250843   2.964   0.077  11.545  0.3822  0.4118  0.4148
 8883TIP3    H150844   3.028   0.147  11.552 -0.2841  0.9833  1.0205
 8883TIP3    H250845   2.962   0.054  11.452  2.5679 -0.6998  0.5937
 8884TIP3   OH250846   0.678   3.871  11.621  0.2953 -0.0724 -0.2741
 8884TIP3    H150847   0.588   3.903  11.609  0.8198  0.6817 -3.0331
 8884TIP3    H250848   0.703   3.901  11.708 -1.3232  1.8019 -0.3793
 8885TIP3   OH250849   5.007   0.195  10.742  0.2064  0.6559 -0.0414
 8885TIP3    H150850   5.068   0.160  10.677 -0.1740  0.3740 -0.2466
 8885TIP3    H250851   5.032   0.153  10.824  0.2094  0.4472 -0.1490
 8886TIP3   OH250852   4.360   3.378  11.690  0.5450  0.3656 -0.4643
 8886TIP3    H150853   4.414   3.319  11.742 -0.2561 -1.2564 -1.3772
 8886TIP3    H250854   4.339   3.450  11.749  0.7501 -0.7417  1.0210
 8887TIP3   OH250855   5.871   1.705  12.646  0.3356  0.0782  0.1502
 8887TIP3    H150856   5.928   1.781  12.639  1.3585 -0.7217 -0.4965
 8887TIP3    H250857   5.817   1.708  12.566  0.2102  0.2475  0.2402
 8888TIP3   OH250858   0.010   2.875  11.797  0.0019  0.2894  0.8091
 8888TIP3    H150859  -0.028   2.940  11.738 -0.3104 -0.1099  0.5612
 8888TIP3    H250860   0.066   2.925  11.856  0.6339  0.6455 -0.0818
 8889TIP3   OH250861   3.267   1.138  12.909  0.0942  0.3720  0.0383
 8889TIP3    H150862   3.212   1.138  12.987  0.6394 -1.1159  0.4614
 8889TIP3    H250863   3.317   1.219  12.915 -0.8509  0.9335  0.5106
 8890TIP3   OH250864   2.032   1.503  11.200 -0.2641  0.1542  0.1318
 8890TIP3    H150865   1.993   1.416  11.197  1.4044 -0.6677 -3.9774
 8890TIP3    H250866   2.107   1.494  11.259  0.0646 -1.3006 -0.4712
 8891TIP3   OH250867   2.602   2.259  12.955  0.4885  0.5188  0.3693
 8891TIP3    H150868   2.542   2.331  12.973  1.4220  1.7436 -1.1615
 8891TIP3    H250869   2.557   2.206  12.889  0.5975  0.7592  0.1040
 8892TIP3   OH250870   5.840   3.068  11.302 -0.6460 -0.1683  0.1005
 8892TIP3    H150871   5.922   3.115  11.287  2.4088 -5.2331 -1.1554
 8892TIP3    H250872   5.835   3.058  11.397 -0.5750  1.1838  0.2765
 8893TIP3   OH250873   0.143   4.454  11.895 -0.7540 -0.1874 -0.4944
 8893TIP3    H150874   0.074   4.470  11.831 -0.7314 -0.5437 -0.6106
 8893TIP3    H250875   0.222   4.490  11.855 -0.4017 -1.8885 -1.4192
 8894TIP3   OH250876   1.659   4.121  10.640 -0.7312  0.7430 -0.3933
 8894TIP3    H150877   1.593   4.053  10.655 -1.1697  1.4602  1.1368
 8894TIP3    H250878   1.610   4.192  10.598 -0.3826  0.3360 -1.5204
 8895TIP3   OH250879   0.575   1.897  10.904 -0.5620 -0.5281  0.2426
 8895TIP3    H150880   0.528   1.814  10.910 -0.0819 -0.8793 -0.7584
 8895TIP3    H250881   0.627   1.890  10.824  1.1835 -0.1287  1.2935
 8896TIP3   OH250882   6.712   6.357  11.739  0.4197  0.1991  1.1676
 8896TIP3    H150883   6.714   6.261  11.744 -0.3055  0.0199 -0.9912
 8896TIP3    H250884   6.794   6.381  11.697 -0.0117  0.3860  0.4054
 8897TIP3   OH250885   1.663   4.494  12.934  0.6206 -0.1153 -0.2776
 8897TIP3    H150886   1.683   4.420  12.876  0.6584 -0.4033  0.0960
 8897TIP3    H250887   1.624   4.453  13.011  1.2903  0.2016  0.2340
 8898TIP3   OH250888   1.892   5.948  11.911  0.4122 -0.0834  0.6600
 8898TIP3    H150889   1.856   5.953  11.823  1.3067  1.4697  0.3438
 8898TIP3    H250890   1.863   5.863  11.944 -0.2060 -0.5559 -0.9986
 8899TIP3   OH250891   7.277   2.474  11.622  0.6072 -0.0274 -0.1017
 8899TIP3    H150892   7.220   2.420  11.566  0.7907  0.7952 -1.1290
 8899TIP3    H250893   7.361   2.428  11.622  0.2261 -0.7331  0.6083
 8900TIP3   OH250894   0.158   1.125  11.562  0.6011  0.7249 -0.3209
 8900TIP3    H150895   0.234   1.183  11.566 -0.5355  2.4106 -1.9813
 8900TIP3    H250896   0.189   1.043  11.601  2.8226  1.8141  0.3653
 8901TIP3   OH250897   6.776   2.969  12.886 -0.1260  0.4962  0.5214
 8901TIP3    H150898   6.693   3.016  12.885  0.0970  0.9767 -1.8977
 8901TIP3    H250899   6.773   2.914  12.807  1.9189  0.6668  0.2827
 8902TIP3   OH250900   5.442   4.852  11.087 -0.1816 -0.2130  0.6312
 8902TIP3    H150901   5.442   4.829  11.180  0.9734 -2.1442  0.2180
 8902TIP3    H250902   5.350   4.854  11.062 -0.5387  0.9706  1.9336
 8903TIP3   OH250903   2.937   6.435  12.264 -0.3071 -0.0257 -0.0891
 8903TIP3    H150904   2.960   6.343  12.277  3.1946  0.3089 -2.5797
 8903TIP3    H250905   2.980   6.481  12.336  1.0577 -0.0759 -0.8384
 8904TIP3   OH250906   2.353   3.917  12.281  0.5443 -0.4835 -0.4429
 8904TIP3    H150907   2.422   3.922  12.215  1.0302 -1.1045  0.0115
 8904TIP3    H250908   2.391   3.866  12.353 -0.1637 -0.2813  0.0878
 8905TIP3   OH250909   5.002   2.964  10.498 -0.0606 -0.2724 -0.2057
 8905TIP3    H150910   4.933   3.029  10.484  0.8931  0.8274  0.0514
 8905TIP3    H250911   4.984   2.896  10.433 -1.4014 -0.0404 -0.1154
 8906TIP3   OH250912   4.736   0.377  12.386  0.6039 -0.4552  0.6780
 8906TIP3    H150913   4.674   0.342  12.451  0.4369 -0.6002  0.4436
 8906TIP3    H250914   4.716   0.470  12.383 -1.1910 -0.8247 -1.0488
 8907TIP3   OH250915   7.344   1.560  10.973  0.0217 -0.7252  0.6166
 8907TIP3    H150916   7.311   1.522  10.892 -2.2833 -0.6201  1.4402
 8907TIP3    H250917   7.362   1.652  10.952  0.2372 -0.8974  0.0400
 8908TIP3   OH250918   5.570   5.449  13.348 -0.4957  0.1859 -0.1247
 8908TIP3    H150919   5.585   5.486  13.261  1.6022 -1.0372 -0.3388
 8908TIP3    H250920   5.498   5.387  13.336  0.5303 -0.8361 -1.2962
 8909TIP3   OH250921   0.069   1.951  13.002  0.0945  0.1287  0.2106
 8909TIP3    H150922   0.039   1.874  13.049 -0.4414  0.5106  0.4981
 8909TIP3    H250923  -0.007   1.980  12.951  0.2788  0.4887  0.1340
 8910TIP3   OH250924   6.384   7.182  12.444 -1.1603  0.4893 -0.3031
 8910TIP3    H150925   6.450   7.250  12.454  0.7505 -0.9726 -2.1776
 8910TIP3    H250926   6.404   7.119  12.512 -0.7603  0.1711 -0.7093
 8911TIP3   OH250927   2.302   2.765  11.248 -0.0416 -0.6402  0.0046
 8911TIP3    H150928   2.347   2.758  11.164 -0.5405 -0.2681 -0.3001
 8911TIP3    H250929   2.231   2.827  11.233  1.3323  1.3575  1.3370
 8912TIP3   OH250930   4.473   5.164  12.535  0.3713  0.3755 -0.2297
 8912TIP3    H150931   4.434   5.103  12.598 -1.0954 -0.6551 -2.0103
 8912TIP3    H250932   4.456   5.251  12.572 -0.1705 -0.2009  0.9333
 8913TIP3   OH250933   3.448   1.539  12.137 -0.2085 -0.2078 -0.6283
 8913TIP3    H150934   3.412   1.497  12.058  0.9529 -0.8000 -0.8716
 8913TIP3    H250935   3.451   1.632  12.115 -1.8864 -0.0818 -0.4613
 8914TIP3   OH250936   2.994   0.839  11.756  0.0433 -0.0730 -0.2692
 8914TIP3    H150937   3.034   0.872  11.836  0.4321 -2.4482  0.6026
 8914TIP3    H250938   3.067   0.832  11.694 -0.1455  1.1728 -0.6542
 8915TIP3   OH250939   5.626   2.528  11.708 -0.2557 -0.1356  0.0904
 8915TIP3    H150940   5.684   2.463  11.748  1.3486 -0.0413 -1.9015
 8915TIP3    H250941   5.559   2.476  11.664 -1.3453 -0.2642  1.7977
 8916TIP3   OH250942   2.096   4.479  12.514  0.0596  0.6384 -0.0143
 8916TIP3    H150943   2.170   4.470  12.574 -0.0642 -0.0415  0.0458
 8916TIP3    H250944   2.119   4.424  12.440  0.0134  1.1321 -0.4015
 8917TIP3   OH250945   5.011   6.269  11.902 -0.2220  0.0516  0.0624
 8917TIP3    H150946   4.922   6.284  11.872 -1.1137 -3.6440  0.3605
 8917TIP3    H250947   5.003   6.198  11.966  3.0279 -1.5382 -1.0455
 8918TIP3   OH250948   4.164   6.673  10.872  0.1409 -0.5252  0.0350
 8918TIP3    H150949   4.140   6.727  10.948 -1.7443 -1.3985  0.1265
 8918TIP3    H250950   4.206   6.596  10.910  0.9460 -0.0973  0.0384
 8919TIP3   OH250951   7.120   3.800  12.970  0.4968 -0.2199 -0.2573
 8919TIP3    H150952   7.157   3.718  13.003 -0.1482 -0.7702 -0.8618
 8919TIP3    H250953   7.163   3.813  12.886 -0.3895 -0.6844 -0.8059
 8920TIP3   OH250954   2.971   3.622  11.933  0.1709  0.0488  0.7502
 8920TIP3    H150955   3.066   3.610  11.934 -0.0567 -2.5140  2.3759
 8920TIP3    H250956   2.940   3.568  12.006 -2.5854  0.4087 -0.0477
 8921TIP3   OH250957   1.508   1.825  12.191  0.0789 -0.1401  0.0826
 8921TIP3    H150958   1.449   1.889  12.231  0.1148  0.7778 -1.2317
 8921TIP3    H250959   1.500   1.842  12.097  3.1078  0.6871 -0.1311
 8922TIP3   OH250960   0.741   1.038  10.379 -0.2739  0.0598 -0.2833
 8922TIP3    H150961   0.775   0.972  10.319  2.0832  0.6859  0.2422
 8922TIP3    H250962   0.770   1.009  10.465  0.2080  1.3938  0.0272
 8923TIP3   OH250963   6.425   3.948  10.414  0.8314 -0.1184  0.0346
 8923TIP3    H150964   6.442   4.034  10.377  2.6278 -0.9491 -1.2164
 8923TIP3    H250965   6.511   3.907  10.420  0.6415 -0.3479  4.5837
 8924TIP3   OH250966   2.035   2.240  10.652 -0.1452 -0.3345  0.3100
 8924TIP3    H150967   1.961   2.292  10.621 -0.0657 -0.1769  0.3863
 8924TIP3    H250968   2.090   2.302  10.699  1.5828  0.2630 -2.2582
 8925TIP3   OH250969   7.559   0.812  12.572 -0.1309  0.0938  0.0621
 8925TIP3    H150970   7.577   0.789  12.663  1.2067 -0.3457 -0.2864
 8925TIP3    H250971   7.476   0.769  12.553  0.2473 -0.9597  0.6885
 8926TIP3   OH250972   2.394   0.956  12.939 -0.0086 -0.0309  0.4866
 8926TIP3    H150973   2.465   0.895  12.919 -0.5182 -0.3252 -0.4681
 8926TIP3    H250974   2.415   0.988  13.027  2.0201  0.9146 -0.2751
 8927TIP3   OH250975   7.302   1.196  11.902  0.1030 -0.4666 -0.1361
 8927TIP3    H150976   7.332   1.227  11.816 -0.0581 -0.9396 -0.3670
 8927TIP3    H250977   7.380   1.158  11.942  0.0900 -0.6008 -0.2369
 8928TIP3   OH250978   4.725   3.330  11.750  0.3291 -0.0307 -0.5274
 8928TIP3    H150979   4.712   3.425  11.740  1.9604  0.4652  1.2115
 8928TIP3    H250980   4.648   3.301  11.799  0.1069  0.5241 -0.5321
 8929TIP3   OH250981   6.204   6.534  11.024  0.2759  0.2658 -0.3793
 8929TIP3    H150982   6.162   6.558  10.941  0.5891  2.1232 -0.0464
 8929TIP3    H250983   6.173   6.445  11.041 -1.6742  0.6965 -1.3161
 8930TIP3   OH250984   0.656   4.209  10.546  0.1964 -0.4146  0.3012
 8930TIP3    H150985   0.575   4.184  10.590 -0.0865  0.0440  0.0422
 8930TIP3    H250986   0.634   4.287  10.496 -0.4452 -2.6959 -3.4321
 8931TIP3   OH250987   2.891   4.617  11.087 -0.0672  0.1718  0.4789
 8931TIP3    H150988   2.981   4.649  11.091 -0.2719  0.7285  0.8352
 8931TIP3    H250989   2.898   4.522  11.097  0.3963  0.3229  1.8242
 8932TIP3   OH250990   5.094   5.653  12.655 -0.3320  0.1939 -0.1233
 8932TIP3    H150991   5.181   5.618  12.677 -0.7699  1.1381  4.0458
 8932TIP3    H250992   5.035   5.608  12.716 -2.4889  0.9555 -1.5608
 8933TIP3   OH250993   0.714   4.742  13.112 -0.1931  0.1664 -0.1769
 8933TIP3    H150994   0.753   4.798  13.179  0.2378  0.9661 -1.0786
 8933TIP3    H250995   0.785   4.686  13.082  0.0230  0.8841 -1.0559
 8934TIP3   OH250996   0.728   3.402  12.619  0.1398 -0.0635 -0.1569
 8934TIP3    H150997   0.665   3.375  12.685  0.2807 -0.6022 -0.2395
 8934TIP3    H250998   0.724   3.498  12.620  0.9157 -0.0088  1.3875
 8935TIP3   OH250999   0.059   3.151  10.343 -0.3148 -0.2956  0.7902
 8935TIP3    H151000   0.071   3.173  10.436 -0.8414  2.2666  0.3315
 8935TIP3    H251001   0.127   3.201  10.298  1.5322 -3.3659 -0.1202
 8936TIP3   OH251002   3.277   3.646  11.970 -0.4414  0.1071  0.2764
 8936TIP3    H151003   3.290   3.740  11.954  1.6936 -0.1043  0.5999
 8936TIP3    H251004   3.345   3.603  11.919 -0.1440 -1.1634  1.7003
 8937TIP3   OH251005   7.480   5.008  12.007  0.1564 -0.0927  0.4375
 8937TIP3    H151006   7.433   4.989  12.088  1.6621 -0.1344  1.3430
 8937TIP3    H251007   7.488   4.923  11.963 -2.3982  0.2111 -0.8047
 8938TIP3   OH251008   0.250   6.727  12.725 -0.2176 -0.3637  0.0808
 8938TIP3    H151009   0.310   6.781  12.674  0.1647 -1.0545 -0.2001
 8938TIP3    H251010   0.297   6.646  12.741 -0.4816 -0.3175  1.1981
 8939TIP3   OH251011   7.573   6.778  10.630  0.0031 -0.3675 -0.0018
 8939TIP3    H151012   7.502   6.772  10.694 -0.0747  1.1441  0.0919
 8939TIP3    H251013   7.632   6.844  10.665  1.7130 -1.9038  0.1253
 8940TIP3   OH251014   4.476   1.039  10.864 -0.0765  0.1483  0.1666
 8940TIP3    H151015   4.520   1.012  10.783 -1.0942  1.0866 -0.7243
 8940TIP3    H251016   4.465   1.133  10.856 -0.7020  0.1785  1.1517
 8941TIP3   OH251017   4.027   3.649  12.684  0.1474  0.5387 -0.1159
 8941TIP3    H151018   4.084   3.589  12.731 -0.8858  0.5637  1.2089
 8941TIP3    H251019   4.077   3.672  12.605  1.6324 -0.0148  0.6282
 8942TIP3   OH251020   3.921   3.744  13.183 -0.6431  1.0251 -0.3128
 8942TIP3    H151021   3.987   3.682  13.153 -1.4345 -0.3535  0.6258
 8942TIP3    H251022   3.968   3.826  13.198  0.4840  0.5880 -1.3706
 8943TIP3   OH251023   5.808   6.406  13.024  0.2290  0.1191  0.4771
 8943TIP3    H151024   5.842   6.460  13.096  0.1928 -0.7693  1.1871
 8943TIP3    H251025   5.746   6.346  13.066 -0.5108  0.2120 -0.4567
 8944TIP3   OH251026   6.277   3.422  10.797 -0.2285 -0.2895  0.2432
 8944TIP3    H151027   6.313   3.508  10.818  0.2723 -0.4508  0.0653
 8944TIP3    H251028   6.183   3.432  10.807 -0.2530  0.5282 -0.6574
 8945TIP3   OH251029   4.029   7.026  13.107  0.0671 -0.0138 -0.0739
 8945TIP3    H151030   3.956   7.085  13.126  1.1104  1.9149 -1.6478
 8945TIP3    H251031   3.989   6.951  13.062 -1.3510 -0.8516  2.4044
 8946TIP3   OH251032   0.848   0.402  11.098  0.5074  0.5808  0.1774
 8946TIP3    H151033   0.943   0.412  11.094  0.3911  1.3924 -0.7369
 8946TIP3    H251034   0.835   0.309  11.115  1.4703  0.5732  0.9940
 8947TIP3   OH251035   5.203   5.888  12.572 -0.4912 -0.0893  0.5541
 8947TIP3    H151036   5.123   5.932  12.541 -0.1956  0.3054  0.3363
 8947TIP3    H251037   5.171   5.810  12.618 -1.0618  0.6214  1.4037
 8948TIP3   OH251038   1.056   5.084  11.710  1.1569 -0.3177 -0.0898
 8948TIP3    H151039   1.098   5.078  11.796  0.1031 -0.4858  0.4362
 8948TIP3    H251040   1.083   5.004  11.665  1.0931 -0.6140  0.3863
 8949TIP3   OH251041   3.095   1.476  11.825  0.3830 -0.0520  0.3350
 8949TIP3    H151042   3.001   1.459  11.830 -0.0723  1.6522 -1.2323
 8949TIP3    H251043   3.102   1.558  11.776  2.6202  0.9003  2.0511
 8950TIP3   OH251044   3.901   6.721  11.142  1.0704  0.0697 -0.5139
 8950TIP3    H151045   3.861   6.789  11.195 -0.1370 -0.9148 -0.1140
 8950TIP3    H251046   3.994   6.744  11.139  0.8158  1.2679  0.2842
 8951TIP3   OH251047   4.419   1.971  10.960  0.7280 -0.3803 -0.4849
 8951TIP3    H151048   4.494   1.935  11.008 -0.1935 -1.3262  0.2872
 8951TIP3    H251049   4.398   2.052  11.006  0.4496 -0.7983  0.1420
 8952TIP3   OH251050   4.485   5.545  10.426 -0.1180 -0.3276  0.5720
 8952TIP3    H151051   4.569   5.552  10.471 -0.7862 -0.8941  1.9608
 8952TIP3    H251052   4.449   5.634  10.429  0.1294 -0.2244  0.5615
 8953TIP3   OH251053   6.637   2.653  10.889  0.3486  0.6895 -0.2045
 8953TIP3    H151054   6.684   2.730  10.921  2.1089 -1.2273  2.2564
 8953TIP3    H251055   6.552   2.657  10.932  0.6962  0.9236  0.4738
 8954TIP3   OH251056   5.169   0.090  10.569  0.0953  0.1839  0.0992
 8954TIP3    H151057   5.252   0.043  10.560 -0.2783 -0.2421 -1.5330
 8954TIP3    H251058   5.127   0.081  10.483 -1.7382  0.1968  0.9380
 8955TIP3   OH251059   5.800   6.148  11.447 -0.2193  0.3467  0.1417
 8955TIP3    H151060   5.725   6.206  11.460 -0.2187  0.6088 -0.9237
 8955TIP3    H251061   5.822   6.158  11.355 -0.3807 -1.5545 -0.1313
 8956TIP3   OH251062   6.451   1.651  13.249 -0.3562 -0.3201 -0.1577
 8956TIP3    H151063   6.461   1.556  13.239  1.4065 -0.2807  0.7958
 8956TIP3    H251064   6.540   1.685  13.241 -0.9654  1.2530 -0.4115
 8957TIP3   OH251065   4.938   6.327  11.112  0.0180 -0.0736 -0.3433
 8957TIP3    H151066   4.959   6.318  11.019  2.6958 -0.2629  0.2139
 8957TIP3    H251067   4.978   6.409  11.138 -1.4799  0.4223  0.4922
 8958TIP3   OH251068   5.797   6.191  11.187 -0.2229 -0.3945 -0.0022
 8958TIP3    H151069   5.717   6.207  11.137  0.1623  1.5292 -0.0703
 8958TIP3    H251070   5.823   6.102  11.163 -1.4755 -0.4713 -1.1916
 8959TIP3   OH251071   5.636   3.472  11.088 -0.3826 -0.2168  0.0742
 8959TIP3    H151072   5.636   3.411  11.162 -0.0170  0.5251  0.6890
 8959TIP3    H251073   5.543   3.486  11.068 -0.4724 -0.9946 -0.1038
 8960TIP3   OH251074   4.877   6.671  12.252 -0.2692 -0.5023  0.2986
 8960TIP3    H151075   4.863   6.736  12.322  0.3781  0.0274 -0.0509
 8960TIP3    H251076   4.971   6.672  12.237 -0.2805 -1.3874  0.1438
 8961TIP3   OH251077   5.788   6.927  12.109 -0.0199  0.0064 -0.0607
 8961TIP3    H151078   5.829   6.842  12.093 -2.3243 -1.7164  2.2424
 8961TIP3    H251079   5.724   6.938  12.038  0.5606  0.0499 -0.5845
 8962TIP3   OH251080   0.684   5.147  11.151 -0.4365 -0.0390 -0.2053
 8962TIP3    H151081   0.609   5.206  11.159  1.0183  1.6434  4.1511
 8962TIP3    H251082   0.689   5.104  11.237  3.7016  0.2147 -0.1419
 8963TIP3   OH251083   0.011   1.757  11.800 -0.1425 -0.0142 -0.4528
 8963TIP3    H151084   0.032   1.767  11.893  0.5649  0.5223 -0.6660
 8963TIP3    H251085   0.093   1.776  11.754 -0.3885 -0.6626 -1.1711
 8964TIP3   OH251086   2.038   0.519  12.418  0.1495 -0.3207 -0.2650
 8964TIP3    H151087   2.010   0.445  12.471 -1.6903 -0.4607 -1.3232
 8964TIP3    H251088   2.034   0.594  12.477 -0.7475 -0.6421  0.1050
 8965TIP3   OH251089   5.858   3.890  11.511 -0.2050  0.2059  0.0155
 8965TIP3    H151090   5.896   3.881  11.599  1.1112 -1.6127 -0.6674
 8965TIP3    H251091   5.771   3.850  11.518  0.1134 -0.4354  0.3756
 8966TIP3   OH251092   6.485   4.778  10.644 -0.0826 -0.0406 -0.4010
 8966TIP3    H151093   6.510   4.710  10.582 -0.4700 -0.1188 -0.4742
 8966TIP3    H251094   6.453   4.850  10.589  1.6233  0.7624 -0.4000
 8967TIP3   OH251095   1.581   7.168  10.684 -0.3367  0.4628 -0.4679
 8967TIP3    H151096   1.663   7.216  10.683  0.0658 -0.1920  0.1068
 8967TIP3    H251097   1.587   7.108  10.610  0.3460 -0.5968  0.4075
 8968TIP3   OH251098   4.522   5.867  12.600  0.3559  0.6276 -0.0403
 8968TIP3    H151099   4.441   5.863  12.651  0.3842 -0.8519 -0.0775
 8968TIP3    H251100   4.591   5.845  12.663  0.4875 -0.2827 -0.4884
 8969TIP3   OH251101   0.718   5.225  12.680 -0.2637 -0.5798  0.0955
 8969TIP3    H151102   0.626   5.218  12.653 -0.2326  0.8047 -0.4585
 8969TIP3    H251103   0.759   5.145  12.648 -0.9419 -0.4819 -1.0664
 8970TIP3   OH251104   1.345   0.233  10.688 -0.4103 -0.7586 -0.3146
 8970TIP3    H151105   1.363   0.158  10.632 -1.0027 -0.0611 -1.4705
 8970TIP3    H251106   1.431   0.261  10.719 -0.2771 -2.7341  1.2681
 8971TIP3   OH251107   6.555   1.158  10.897  0.1608  0.2036 -0.2427
 8971TIP3    H151108   6.481   1.098  10.899  0.6292 -0.3695  0.1165
 8971TIP3    H251109   6.607   1.132  10.821 -0.2570  0.9196 -0.7826
 8972TIP3   OH251110   2.638   2.006  13.341  0.1890 -0.4598  0.4790
 8972TIP3    H151111   2.556   2.054  13.352  0.9723  0.7780  1.0308
 8972TIP3    H251112   2.706   2.065  13.373  2.0739  0.9516 -4.9928
 8973TIP3   OH251113   5.461   7.136  12.085 -0.4015 -0.0865 -0.1671
 8973TIP3    H151114   5.413   7.129  12.003 -0.6043 -0.9623  0.0207
 8973TIP3    H251115   5.504   7.222  12.080 -1.4941  0.4580 -0.5910
 8974TIP3   OH251116   1.012   3.682  11.148  0.2343 -0.0318  0.4709
 8974TIP3    H151117   0.932   3.698  11.199  0.2042 -0.9808  0.7465
 8974TIP3    H251118   1.072   3.752  11.175 -0.6081  0.8961  0.0051
 8975TIP3   OH251119   3.144   4.753  11.657  0.9141  0.1830 -0.5224
 8975TIP3    H151120   3.209   4.699  11.614  0.3651 -0.5143 -0.4977
 8975TIP3    H251121   3.075   4.692  11.684  0.2051  0.9094 -0.6332
 8976TIP3   OH251122   2.772   6.572  11.215 -0.0345  0.1970 -0.7784
 8976TIP3    H151123   2.743   6.638  11.278 -2.8469  0.7819 -2.5348
 8976TIP3    H251124   2.860   6.602  11.188 -0.1314  1.6954  0.4577
 8977TIP3   OH251125   5.999   6.233  12.900  0.1604  0.2088 -0.0679
 8977TIP3    H151126   6.066   6.281  12.851  0.7483 -0.1039  0.4340
 8977TIP3    H251127   5.932   6.299  12.918  0.1743  0.4505 -0.8467
 8978TIP3   OH251128   6.082   5.094  12.327 -0.1727  0.2989 -0.1280
 8978TIP3    H151129   5.991   5.109  12.351 -0.2391 -0.0885 -0.1329
 8978TIP3    H251130   6.119   5.046  12.401  0.2482  1.1799  0.2439
 8979TIP3   OH251131   5.668   7.243  11.347  0.0800 -1.0343  0.4171
 8979TIP3    H151132   5.637   7.333  11.333 -1.1738 -1.7632 -1.9257
 8979TIP3    H251133   5.762   7.247  11.329  0.3626  0.0910  1.9610
 8980TIP3   OH251134   3.470   4.857  12.332 -0.2910  0.4820 -0.0120
 8980TIP3    H151135   3.433   4.858  12.244  0.0520  0.5401 -0.1581
 8980TIP3    H251136   3.404   4.814  12.386 -0.4452  0.3291 -0.3232
 8981TIP3   OH251137   4.314   4.854  11.381 -0.4489  0.6159 -0.1761
 8981TIP3    H151138   4.401   4.886  11.405  0.6244 -1.0392 -1.5992
 8981TIP3    H251139   4.265   4.934  11.359  1.4851  1.4801 -1.6880
 8982TIP3   OH251140   6.179   2.419  10.612  0.2719  0.1829  0.0921
 8982TIP3    H151141   6.247   2.487  10.614  0.5170 -0.0440 -0.3420
 8982TIP3    H251142   6.099   2.467  10.592  0.8436  0.0893 -2.9991
 8983TIP3   OH251143   4.947   7.364  12.974 -0.2106  0.2684 -0.2087
 8983TIP3    H151144   4.952   7.319  12.890 -0.3451  1.2248 -0.7373
 8983TIP3    H251145   4.937   7.293  13.038 -1.6574 -0.4095 -1.1155
 8984TIP3   OH251146   0.248   5.519  11.130 -0.3412 -0.0665  0.4097
 8984TIP3    H151147   0.168   5.498  11.081 -0.4627 -1.8746  1.2789
 8984TIP3    H251148   0.227   5.496  11.221  0.5873  1.1421  0.9519
 8985TIP3   OH251149   1.173   0.217  10.906  0.1851  0.6776 -0.0359
 8985TIP3    H151150   1.099   0.164  10.877 -0.3479  1.5918 -0.3750
 8985TIP3    H251151   1.239   0.205  10.837  0.9004 -1.1771  0.8988
 8986TIP3   OH251152   2.893   5.893  10.957  0.1927  0.4017  0.9768
 8986TIP3    H151153   2.922   5.805  10.979  0.4721 -0.3286 -1.8829
 8986TIP3    H251154   2.801   5.895  10.981 -0.3692 -1.4464 -0.7318
 8987TIP3   OH251155   6.523   2.260  11.383 -0.1563 -0.2921  0.0284
 8987TIP3    H151156   6.453   2.255  11.448 -0.3092 -0.7068 -0.1677
 8987TIP3    H251157   6.584   2.326  11.419 -0.5355 -0.0861  0.3012
 8988TIP3   OH251158   0.275   7.318  10.809 -0.2928  0.5546  0.1675
 8988TIP3    H151159   0.287   7.411  10.788 -2.0183  0.4345 -1.6260
 8988TIP3    H251160   0.359   7.278  10.786 -0.2910  1.3266 -1.3280
 8989TIP3   OH251161   7.115   0.842  10.585 -0.2837 -0.0088 -0.2542
 8989TIP3    H151162   7.102   0.765  10.530  0.0223  0.5342 -1.1078
 8989TIP3    H251163   7.035   0.894  10.572 -0.5081 -0.1951  0.3523
 8990TIP3   OH251164   6.959   6.202  10.747  0.3936  0.2150 -0.2566
 8990TIP3    H151165   6.939   6.119  10.702  1.8192 -1.0141  1.2751
 8990TIP3    H251166   6.878   6.252  10.740 -1.1183 -1.9846  0.2170
 8991TIP3   OH251167   3.211   4.228  13.100 -0.8163 -0.1209  0.7525
 8991TIP3    H151168   3.147   4.169  13.137 -0.9093 -2.8110 -3.0692
 8991TIP3    H251169   3.295   4.198  13.134 -0.9871 -1.7812 -0.1922
 8992TIP3   OH251170   6.797   0.990  11.528  0.1136  0.3064  0.0821
 8992TIP3    H151171   6.774   0.907  11.486 -0.3420  0.9842 -1.0286
 8992TIP3    H251172   6.729   1.003  11.594  0.1488 -0.1545  0.2172
 8993TIP3   OH251173   0.984   0.940  11.310  0.2290  0.2110 -0.3486
 8993TIP3    H151174   1.003   0.856  11.269  1.1540  0.8998 -1.3700
 8993TIP3    H251175   1.050   0.949  11.379  0.5187  0.3735 -0.6455
 8994TIP3   OH251176   5.335   2.067  13.078  0.2922 -0.1587 -0.9922
 8994TIP3    H151177   5.357   2.136  13.141  0.8493 -0.1141 -1.2287
 8994TIP3    H251178   5.417   2.021  13.063 -0.0511 -0.8085 -0.9230
 8995TIP3   OH251179   4.315   0.010  12.654 -0.0394 -0.0920 -0.0209
 8995TIP3    H151180   4.240   0.065  12.630  1.0613  1.8256  0.7449
 8995TIP3    H251181   4.279  -0.079  12.656 -2.0146  0.6277 -0.7951
 8996TIP3   OH251182   5.180   3.457  12.041 -0.0003 -0.7728  0.3951
 8996TIP3    H151183   5.153   3.438  12.131  0.2195 -0.2258  0.5807
 8996TIP3    H251184   5.225   3.378  12.012 -0.0553 -0.9445  0.7740
 8997TIP3   OH251185   7.647   7.396  12.304  0.6298 -0.3492 -0.6216
 8997TIP3    H151186   7.718   7.334  12.320  0.9963 -0.3523 -2.1090
 8997TIP3    H251187   7.567   7.343  12.311  0.8743 -0.7150 -0.5790
 8998TIP3   OH251188   3.968   1.696  11.663 -0.4995  0.0314 -0.1555
 8998TIP3    H151189   3.959   1.647  11.745 -1.3732 -0.5828 -0.5965
 8998TIP3    H251190   3.907   1.769  11.672  1.7427  1.8802  1.0407
 8999TIP3   OH251191   3.159   3.825  13.182  0.1099  0.1299 -0.0702
 8999TIP3    H151192   3.210   3.744  13.189 -1.0188 -0.8610 -2.2499
 8999TIP3    H251193   3.140   3.833  13.088 -2.1178  1.4472  0.4288
 9000TIP3   OH251194   6.800   7.359  11.240  0.2496  0.1593 -0.2128
 9000TIP3    H151195   6.774   7.296  11.173 -0.0876  2.3659 -2.3101
 9000TIP3    H251196   6.719   7.380  11.287  0.5340 -1.5891  1.1306
 9001TIP3   OH251197   3.279   2.873  12.115 -0.4494  0.3475 -0.0858
 9001TIP3    H151198   3.210   2.884  12.180 -1.7525 -0.2803 -1.2964
 9001TIP3    H251199   3.256   2.932  12.043  1.6233  1.9539  0.4533
 9002TIP3   OH251200   5.074   4.636  12.116  0.4242  0.1076  0.1837
 9002TIP3    H151201   5.071   4.729  12.135  0.3715  0.3416 -0.9106
 9002TIP3    H251202   5.117   4.597  12.192 -0.4111  0.8945  1.0741
 9003TIP3   OH251203   4.540   3.142  12.330 -0.6392 -0.2674  0.1452
 9003TIP3    H151204   4.569   3.213  12.271  1.0185  1.8689  3.2351
 9003TIP3    H251205   4.621   3.097  12.353 -0.7132  0.8023  2.8799
 9004TIP3   OH251206   5.521   2.867  11.107 -0.3735  0.4072 -0.5709
 9004TIP3    H151207   5.522   2.880  11.202  1.5243  0.2275 -0.5319
 9004TIP3    H251208   5.439   2.820  11.090 -0.7719  0.5019  0.9577
 9005TIP3   OH251209   5.057   4.800  11.349  0.3790  0.2288  0.0804
 9005TIP3    H151210   5.051   4.708  11.323  0.2776  0.2878 -0.1146
 9005TIP3    H251211   4.994   4.809  11.420 -0.1330  0.3030 -0.3719
 9006TIP3   OH251212   0.660   4.474  11.853 -0.9182 -0.2002  0.1498
 9006TIP3    H151213   0.695   4.477  11.764 -1.4691 -0.0749 -0.0663
 9006TIP3    H251214   0.700   4.396  11.891  0.5702  0.6060  0.3292
 9007TIP3   OH251215   6.956   2.995  12.569 -0.6872  0.2234 -0.0522
 9007TIP3    H151216   7.039   2.990  12.522  0.0088 -0.0255  1.1633
 9007TIP3    H251217   6.895   2.943  12.517 -0.3965  1.3026 -1.5463
 9008TIP3   OH251218   5.169   3.153  13.026  0.1202  0.0784  0.2014
 9008TIP3    H151219   5.204   3.215  13.091 -2.8005  2.2683 -0.0831
 9008TIP3    H251220   5.185   3.196  12.942  0.4220 -0.8725 -0.2326
 9009TIP3   OH251221   6.610   2.495  11.665 -0.4642 -0.6060  0.5675
 9009TIP3    H151222   6.603   2.580  11.707  0.0555 -0.1997 -0.1466
 9009TIP3    H251223   6.530   2.449  11.690 -2.1795  1.1398 -1.3554
 9010TIP3   OH251224   5.218   6.022  11.047  0.2598 -0.2766 -0.2199
 9010TIP3    H151225   5.123   6.008  11.048 -0.2658  2.2257 -2.3413
 9010TIP3    H251226   5.239   6.034  10.954  3.0154 -2.4292 -0.0023
 9011TIP3   OH251227   1.856   4.617  12.694 -0.1281  0.3931 -0.0835
 9011TIP3    H151228   1.918   4.553  12.730  0.6436  0.9864 -0.3145
 9011TIP3    H251229   1.779   4.565  12.670  0.1946 -0.3356  0.3950
 9012TIP3   OH251230   5.696   0.966  10.680  0.2924 -0.2447  0.0325
 9012TIP3    H151231   5.747   0.972  10.761  1.1849  0.0321 -0.5435
 9012TIP3    H251232   5.758   0.936  10.614 -0.4483 -0.5468 -0.5419
 9013TIP3   OH251233   1.854   4.408  12.014 -0.0428  0.2806  0.2129
 9013TIP3    H151234   1.768   4.441  12.040 -0.8281 -1.2364 -0.3804
 9013TIP3    H251235   1.844   4.313  12.010  1.6798  0.0718  0.1781
 9014TIP3   OH251236   4.108   6.099  11.534 -0.3362  0.4804  0.0065
 9014TIP3    H151237   4.103   6.008  11.505 -0.4610  0.0831  1.2094
 9014TIP3    H251238   4.173   6.140  11.476  0.7377 -0.7262  0.3328
 9015TIP3   OH251239   0.625   0.162  12.642 -0.3496  0.6900 -0.5684
 9015TIP3    H151240   0.593   0.077  12.612  0.2308 -0.1120  0.9513
 9015TIP3    H251241   0.629   0.154  12.738 -0.4664  2.5037 -0.3683
 9016TIP3   OH251242   1.978   1.296  10.675  0.2995 -0.2899  0.4015
 9016TIP3    H151243   2.008   1.299  10.766  1.6047 -1.9456  0.0698
 9016TIP3    H251244   2.030   1.363  10.631 -0.3971  0.5769  0.8621
 9017TIP3   OH251245   3.891   0.930  12.057  0.3854  0.3396  0.2321
 9017TIP3    H151246   3.834   0.905  12.129 -0.0933  1.6191  0.3218
 9017TIP3    H251247   3.961   0.866  12.059  0.3389  0.2920  1.7902
 9018TIP3   OH251248   5.465   4.718  11.994  0.2890 -0.6433 -0.0173
 9018TIP3    H151249   5.460   4.631  12.033  0.3276 -1.0507 -0.9108
 9018TIP3    H251250   5.557   4.728  11.970  0.2852 -0.3488  0.0846
 9019TIP3   OH251251   5.890   7.450  12.594 -0.9674  0.1591  0.2222
 9019TIP3    H151252   5.823   7.430  12.660  0.5791  0.4483  1.9539
 9019TIP3    H251253   5.867   7.394  12.519 -3.3736  0.5648  0.5621
 9020TIP3   OH251254   3.817   7.208  12.746 -0.2938  0.0294  0.2082
 9020TIP3    H151255   3.858   7.121  12.749 -0.1228  0.1498  1.6171
 9020TIP3    H251256   3.891   7.269  12.751 -0.5480  0.2501  1.2922
 9021TIP3   OH251257   2.919   3.302  12.463 -0.0057 -0.1277  0.0504
 9021TIP3    H151258   2.919   3.398  12.456  1.5250 -0.1109 -0.0138
 9021TIP3    H251259   2.957   3.273  12.380 -0.7334 -0.8172 -0.0496
 9022TIP3   OH251260   3.481   5.883  11.857  0.7903 -0.0702  0.6661
 9022TIP3    H151261   3.527   5.848  11.933 -2.1484 -0.3253  2.4765
 9022TIP3    H251262   3.478   5.977  11.872 -0.8173 -0.2385  1.5342
 9023TIP3   OH251263   5.238   6.189  11.283  0.3098  0.2360  0.4053
 9023TIP3    H151264   5.260   6.157  11.196  0.8914  0.4173  0.4766
 9023TIP3    H251265   5.148   6.162  11.297  1.0321 -2.2112  0.8502
 9024TIP3   OH251266   1.099   5.655  11.304 -0.3994  0.0004  0.8280
 9024TIP3    H151267   1.159   5.594  11.346  0.9417  2.9820  3.7488
 9024TIP3    H251268   1.082   5.618  11.217  1.7475 -3.4255  1.7107
 9025TIP3   OH251269   3.323   5.806  11.630 -0.3459 -0.3503  0.2476
 9025TIP3    H151270   3.347   5.872  11.565  0.9723 -0.1913  0.8484
 9025TIP3    H251271   3.378   5.827  11.706 -1.2630 -1.0178  1.1182
 9026TIP3   OH251272   1.738   6.893  12.632 -0.3867 -0.1368 -0.2197
 9026TIP3    H151273   1.756   6.921  12.722 -3.0874  1.9990 -0.1878
 9026TIP3    H251274   1.753   6.799  12.632  0.7903 -0.0135  2.1543
 9027TIP3   OH251275   7.422   4.159  11.348  0.2006 -0.0939  0.7261
 9027TIP3    H151276   7.337   4.160  11.303  0.3027  1.3171  0.4986
 9027TIP3    H251277   7.407   4.109  11.428 -1.3845  1.7040  1.6364
 9028TIP3   OH251278   2.049   0.864  11.607 -0.0409  0.1565  0.4919
 9028TIP3    H151279   1.989   0.938  11.614  0.2057  0.4032  0.0785
 9028TIP3    H251280   2.038   0.832  11.517  1.0965  0.7923  0.1018
 9029TIP3   OH251281   2.658   4.514  12.441 -0.1782  0.4171  0.3839
 9029TIP3    H151282   2.718   4.502  12.515  0.8033 -0.2748 -0.4906
 9029TIP3    H251283   2.715   4.525  12.365 -1.1638  0.1906 -0.4140
 9030TIP3   OH251284   3.573   0.498  11.143 -0.0456 -0.6040 -0.0888
 9030TIP3    H151285   3.633   0.536  11.079 -0.2406 -0.2443 -0.0636
 9030TIP3    H251286   3.502   0.462  11.090  1.0666 -2.7034 -0.2535
 9031TIP3   OH251287   2.881   4.891  11.214  0.1924  0.2549 -0.2730
 9031TIP3    H151288   2.892   4.851  11.128  1.0889 -0.2748  0.0759
 9031TIP3    H251289   2.969   4.889  11.253 -0.3996 -0.5524  1.1010
 9032TIP3   OH251290   7.274   0.409  11.667 -0.3346  0.1817 -0.1030
 9032TIP3    H151291   7.313   0.430  11.751 -0.0710 -0.1838 -0.1329
 9032TIP3    H251292   7.331   0.342  11.629 -1.2227 -0.6756  0.0465
 9033TIP3   OH251293   3.460   5.630  12.345  0.0764  0.1901  0.5819
 9033TIP3    H151294   3.367   5.650  12.353  0.1444  0.6730  0.2298
 9033TIP3    H251295   3.463   5.548  12.296 -0.1584  0.3363  0.3136
 9034TIP3   OH251296   7.026   7.587  13.094 -0.4156 -0.1452 -0.4117
 9034TIP3    H151297   7.001   7.675  13.122  0.9443  0.2280 -0.3149
 9034TIP3    H251298   6.943   7.542  13.080 -1.1542  1.5038 -1.6082
 9035TIP3   OH251299   4.312   5.029  12.713  0.1571 -0.8565 -0.5383
 9035TIP3    H151300   4.237   5.052  12.659  1.2995  0.1954 -1.7435
 9035TIP3    H251301   4.291   5.064  12.800 -0.1037  0.8463 -1.2448
 9036TIP3   OH251302   5.250   2.565  12.586  0.3563  0.1206  0.1459
 9036TIP3    H151303   5.198   2.579  12.666 -0.7114  0.9320 -0.6660
 9036TIP3    H251304   5.312   2.496  12.610 -2.0978 -2.0368  0.6999
 9037TIP3   OH251305   7.542   0.666  11.022  0.1252  0.0505  0.0278
 9037TIP3    H151306   7.636   0.678  11.004  0.2063 -0.0494  0.3763
 9037TIP3    H251307   7.533   0.686  11.115 -0.6203  2.4568 -0.4784
 9038TIP3   OH251308   4.879   0.671  11.565 -0.1897  0.4741 -0.1546
 9038TIP3    H151309   4.973   0.655  11.569  0.1880  2.4293 -0.1742
 9038TIP3    H251310   4.858   0.712  11.650 -0.7715  1.1761 -0.6182
 9039TIP3   OH251311   4.772   2.420  11.448  0.3407  0.5014  0.0042
 9039TIP3    H151312   4.817   2.474  11.513  0.2895  0.5771 -0.0231
 9039TIP3    H251313   4.789   2.465  11.365 -0.3335  0.8976  0.0701
 9040TIP3   OH251314   0.413   2.430  12.778  0.1459  0.6475  0.1643
 9040TIP3    H151315   0.377   2.410  12.864  1.0564 -0.5933  0.2970
 9040TIP3    H251316   0.448   2.519  12.786 -1.3906  1.2417  0.5005
 9041TIP3   OH251317   5.496   6.258  11.010  0.2426 -0.5071 -0.5127
 9041TIP3    H151318   5.415   6.271  10.960 -2.5454  0.4143  3.6603
 9041TIP3    H251319   5.512   6.164  11.006 -1.1972 -0.7411 -1.2981
 9042TIP3   OH251320   7.371   6.952  11.002 -0.0962 -0.3826 -0.5762
 9042TIP3    H151321   7.281   6.935  10.972  0.6361 -1.9941 -2.0672
 9042TIP3    H251322   7.402   7.023  10.947 -0.4030  0.0963 -0.1392
 9043TIP3   OH251323   2.009   4.085  11.245 -0.0626  0.0520 -0.4387
 9043TIP3    H151324   1.970   4.143  11.311  0.2126 -1.0290  0.6988
 9043TIP3    H251325   2.099   4.117  11.236  1.0991 -2.0308  2.5118
 9044TIP3   OH251326   4.739   5.114  13.174 -0.4498 -0.2606  0.0079
 9044TIP3    H151327   4.774   5.084  13.258 -1.4069  0.0219  0.5270
 9044TIP3    H251328   4.647   5.086  13.175 -0.4515 -0.3395 -0.9965
 9045TIP3   OH251329   2.353   5.579  11.002  0.2734  0.0444  0.0531
 9045TIP3    H151330   2.446   5.569  11.018 -0.1087 -2.0624  1.4096
 9045TIP3    H251331   2.314   5.584  11.089 -0.8271  1.9634 -0.4972
 9046TIP3   OH251332   3.598   2.988  12.382 -0.4245  0.2186 -0.0892
 9046TIP3    H151333   3.523   2.942  12.418  0.8183 -1.8563  0.0386
 9046TIP3    H251334   3.567   3.077  12.364 -2.3234 -0.0262  1.7492
 9047TIP3   OH251335   1.437   5.282  11.087 -0.0884 -0.5803 -0.3586
 9047TIP3    H151336   1.480   5.285  11.002  0.3902 -1.9403 -0.1926
 9047TIP3    H251337   1.460   5.196  11.123 -0.9806 -0.3771  0.7779
 9048TIP3   OH251338   6.519   3.443  12.492 -0.0597 -0.2154  0.1721
 9048TIP3    H151339   6.510   3.372  12.555 -1.9821  0.4766  0.7564
 9048TIP3    H251340   6.496   3.404  12.408  0.9759 -0.7620  0.1221
 9049TIP3   OH251341   3.260   3.515  11.437 -0.0028 -0.3628 -0.4988
 9049TIP3    H151342   3.344   3.471  11.425  0.8198  0.9081  0.3111
 9049TIP3    H251343   3.274   3.574  11.511 -1.3355  0.5414 -0.9207
 9050TIP3   OH251344   3.521   7.100  10.779 -0.2191 -0.0690  0.2536
 9050TIP3    H151345   3.553   7.126  10.692  1.3464  2.0531  1.3570
 9050TIP3    H251346   3.601   7.084  10.829 -0.9422  1.5839  2.0687
 9051TIP3   OH251347   1.935   4.530  11.770 -0.1675 -0.0756 -0.3318
 9051TIP3    H151348   1.913   4.623  11.771 -0.9671 -0.2555  0.5928
 9051TIP3    H251349   1.910   4.498  11.857 -1.2278 -1.4303 -1.0841
 9052TIP3   OH251350   2.394   3.026  10.842 -0.0095  0.1935  0.0082
 9052TIP3    H151351   2.323   3.011  10.780 -0.7968  1.3964  0.5921
 9052TIP3    H251352   2.351   3.062  10.920  1.0795 -0.3273  0.8828
 9053TIP3   OH251353   0.500   2.858  12.207 -0.4033  0.3277  0.4908
 9053TIP3    H151354   0.437   2.809  12.260 -0.5402 -0.8650 -0.7439
 9053TIP3    H251355   0.463   2.946  12.201 -1.4010 -0.0674  0.6777
 9054TIP3   OH251356   2.669   0.944  11.160 -0.7175  0.0306  0.4545
 9054TIP3    H151357   2.711   1.024  11.190  0.3671 -1.4929  3.4605
 9054TIP3    H251358   2.733   0.903  11.101  0.2330 -0.2057  1.6072
 9055TIP3   OH251359   1.584   6.805  11.732  0.1471  0.4531  0.3259
 9055TIP3    H151360   1.614   6.803  11.823  0.6756  0.7048  0.1564
 9055TIP3    H251361   1.604   6.894  11.702 -0.3393  0.4783  0.0663
 9056TIP3   OH251362   7.657   4.698  12.178  0.0155 -0.5258  0.1184
 9056TIP3    H151363   7.716   4.773  12.172 -0.4851 -0.2114 -1.0059
 9056TIP3    H251364   7.628   4.682  12.089  0.4850 -2.3852  0.2410
 9057TIP3   OH251365   1.264   4.663  11.253 -0.2860  0.1893 -0.9064
 9057TIP3    H151366   1.188   4.645  11.309  0.6057 -0.5617  0.1153
 9057TIP3    H251367   1.227   4.678  11.167 -1.5416 -1.3316 -0.6884
 9058TIP3   OH251368   4.039   6.069  12.109  0.1987  0.0912  0.2388
 9058TIP3    H151369   4.013   6.001  12.171 -1.5304  1.4110  1.0442
 9058TIP3    H251370   3.959   6.088  12.060  0.5927  1.6948  0.1784
 9059TIP3   OH251371   4.119   0.555  11.833 -0.2041  0.0610 -0.4244
 9059TIP3    H151372   4.052   0.572  11.900 -0.3225  1.5767 -0.8823
 9059TIP3    H251373   4.190   0.512  11.880 -1.0246 -0.5295  0.3049
 9060TIP3   OH251374   0.939   5.141  10.494 -0.1662 -0.1102 -0.0199
 9060TIP3    H151375   0.866   5.179  10.445  0.0069 -0.5986 -0.6773
 9060TIP3    H251376   0.898   5.084  10.559 -0.3700 -1.1855 -1.0566
 9061TIP3   OH251377   0.471   4.474  12.962 -0.3824  0.3044 -0.4538
 9061TIP3    H151378   0.472   4.439  13.051 -0.0845 -0.5342 -0.7718
 9061TIP3    H251379   0.408   4.418  12.916 -2.2877  2.1446 -0.2422
 9062TIP3   OH251380   3.429   7.259  11.633 -0.3830 -1.0106  0.0729
 9062TIP3    H151381   3.386   7.320  11.573 -2.2080 -3.5201 -1.3416
 9062TIP3    H251382   3.516   7.246  11.596  0.7432  1.8933  1.3523
 9063TIP3   OH251383   4.934   1.399  11.020 -0.5036 -0.4941  0.2286
 9063TIP3    H151384   4.967   1.392  10.930  0.2598 -0.0973  0.4686
 9063TIP3    H251385   4.849   1.441  11.012 -1.0897 -1.7627 -0.4327
 9064TIP3   OH251386   1.288   1.806  10.797  0.0077 -0.1095 -0.2218
 9064TIP3    H151387   1.347   1.845  10.732  0.8802 -1.2233 -0.1303
 9064TIP3    H251388   1.208   1.859  10.792  0.2604  0.1650 -1.7950
 9065TIP3   OH251389   6.081   3.994  12.443 -0.3107  0.0815  0.4691
 9065TIP3    H151390   6.165   4.026  12.408 -0.6690  0.0918 -0.4223
 9065TIP3    H251391   6.090   3.899  12.443 -0.2976  0.0826  0.3758
 9066TIP3   OH251392   1.546   3.682  12.160 -0.1758 -0.6399  0.2760
 9066TIP3    H151393   1.630   3.708  12.198 -0.0417 -0.8789  0.1444
 9066TIP3    H251394   1.518   3.606  12.212 -1.7478  1.1641  2.2734
 9067TIP3   OH251395   4.486   4.370  13.072  0.4911  0.0478 -0.0270
 9067TIP3    H151396   4.522   4.305  13.011  0.2571  0.9006 -1.1011
 9067TIP3    H251397   4.439   4.317  13.138 -2.7281 -0.8855 -2.7574
 9068TIP3   OH251398   2.790   5.632  11.482  0.0471  0.0331 -0.0151
 9068TIP3    H151399   2.869   5.636  11.536  0.4827 -1.7245 -0.4682
 9068TIP3    H251400   2.811   5.570  11.412 -1.1516  0.8329 -1.1410
 9069TIP3   OH251401   1.187   5.047  11.954 -0.2979 -0.5757 -0.3748
 9069TIP3    H151402   1.240   5.057  12.033 -0.1747 -0.6407 -0.4496
 9069TIP3    H251403   1.097   5.051  11.985 -0.2578  0.3476 -0.3438
 9070TIP3   OH251404   2.108   3.767  11.290  0.5524 -0.0458 -0.2103
 9070TIP3    H151405   2.071   3.807  11.212 -0.7441 -2.5055 -0.9673
 9070TIP3    H251406   2.189   3.727  11.261 -0.6969 -2.3257 -0.7848
 9071TIP3   OH251407   5.964   2.443  11.451 -0.3646  0.1323  0.5870
 9071TIP3    H151408   5.972   2.379  11.521  2.6409 -0.4864 -0.1729
 9071TIP3    H251409   5.931   2.522  11.494 -0.8891 -0.9110  2.1867
 9072TIP3   OH251410   1.420   1.696  11.288  0.0405  0.0059 -0.1146
 9072TIP3    H151411   1.494   1.644  11.259  0.2723 -0.3088  0.9743
 9072TIP3    H251412   1.354   1.631  11.314  0.7275  0.1422  2.2778
 9073TIP3   OH251413   6.393   1.801  11.698  0.0728 -0.3135 -0.2573
 9073TIP3    H151414   6.324   1.754  11.651  0.2691 -2.2986  1.3046
 9073TIP3    H251415   6.470   1.795  11.641 -0.3114 -0.5379 -0.7559
 9074TIP3   OH251416   1.006   5.329  12.116 -0.5355  0.2200 -0.4863
 9074TIP3    H151417   1.093   5.346  12.081 -0.0569 -1.8809 -0.4299
 9074TIP3    H251418   1.021   5.275  12.194 -1.8464  0.6899  0.1267
 9075TIP3   OH251419   4.977   0.517  12.188  0.4522 -0.0723 -0.3982
 9075TIP3    H151420   4.957   0.536  12.279  0.4244 -1.6814 -0.0410
 9075TIP3    H251421   4.994   0.603  12.148 -3.8161  1.1792  0.0160
 9076TIP3   OH251422   1.778   2.315  10.935  0.8775 -0.3717 -0.1838
 9076TIP3    H151423   1.850   2.258  10.962 -0.3248 -1.4324  0.8995
 9076TIP3    H251424   1.718   2.257  10.888  0.2009  0.2700 -0.1232
 9077TIP3   OH251425   4.363   1.927  11.278 -0.7450 -0.7225 -0.8191
 9077TIP3    H151426   4.440   1.972  11.313 -0.5886 -0.4833 -1.4652
 9077TIP3    H251427   4.310   1.997  11.240 -3.0737 -0.2837  2.7426
 9078TIP3   OH251428   6.423   3.265  12.282 -0.2325  0.1703 -0.1514
 9078TIP3    H151429   6.367   3.195  12.315 -1.5361  0.7864 -0.9460
 9078TIP3    H251430   6.363   3.321  12.232  1.1050  0.8716 -1.0195
 9079TIP3   OH251431   4.271   6.914  12.184 -0.2619 -0.3512  0.0679
 9079TIP3    H151432   4.197   6.915  12.245 -0.9336 -1.0565 -0.7129
 9079TIP3    H251433   4.232   6.925  12.098  0.5618 -0.5179 -0.3409
 9080TIP3   OH251434   0.839   0.451  10.470  0.8634 -0.4214 -0.4317
 9080TIP3    H151435   0.875   0.423  10.554 -0.5709  0.3623  0.4833
 9080TIP3    H251436   0.911   0.498  10.428  1.6320 -0.9086  0.3081
 9081TIP3   OH251437   1.328   2.662  10.713  0.1940  0.2810 -0.9899
 9081TIP3    H151438   1.393   2.730  10.699  1.3023 -0.7763 -1.2147
 9081TIP3    H251439   1.246   2.709  10.730  0.7672  1.6388 -1.8417
 9082TIP3   OH251440   4.948   5.098  12.697 -0.3163 -0.3167  0.4760
 9082TIP3    H151441   4.960   5.192  12.687 -1.1100 -0.2853 -0.3166
 9082TIP3    H251442   4.971   5.080  12.788  1.4914  0.3665  0.1931
 9083TIP3   OH251443   0.995   6.606  11.694  0.2067  0.0350  0.5091
 9083TIP3    H151444   0.980   6.535  11.632 -0.0936  0.1868  0.4045
 9083TIP3    H251445   1.071   6.653  11.658 -1.0158  1.1869 -0.7484
 9084TIP3   OH251446   6.987   7.551  11.536 -0.3544 -0.6314  0.0651
 9084TIP3    H151447   7.013   7.571  11.625 -1.2240  0.6046  0.0578
 9084TIP3    H251448   6.904   7.504  11.545  0.2129 -1.6866 -0.0515
 9085TIP3   OH251449   3.666   3.675  11.269  0.3411  0.0420  0.2926
 9085TIP3    H151450   3.642   3.677  11.176  0.0694 -2.8667  0.1865
 9085TIP3    H251451   3.618   3.748  11.308 -2.2807 -0.6755 -1.3054
 9086TIP3   OH251452   5.703   3.850  10.927  0.2123  0.6024 -0.6966
 9086TIP3    H151453   5.796   3.852  10.953  0.2085 -1.3103 -0.4151
 9086TIP3    H251454   5.692   3.766  10.884 -1.8011 -0.0204  0.8897
 9087TIP3   OH251455   2.316   4.572  13.072  0.4662  0.1966 -0.4269
 9087TIP3    H151456   2.362   4.623  13.139 -0.0978 -0.1953  0.2683
 9087TIP3    H251457   2.284   4.638  13.010  0.2062  0.6498  0.1786
 9088TIP3   OH251458   2.530   6.204  12.367  0.2878 -0.1521  0.1479
 9088TIP3    H151459   2.570   6.223  12.452 -0.5082 -0.3820  0.5813
 9088TIP3    H251460   2.521   6.290  12.325  1.7271 -0.1433 -0.1954
 9089TIP3   OH251461   3.608   5.293  11.492  0.3720 -0.0775  0.0504
 9089TIP3    H151462   3.695   5.270  11.526  0.7781  0.5585 -0.5317
 9089TIP3    H251463   3.596   5.385  11.516  0.2332  0.0867 -0.6430
 9090TIP3   OH251464   6.607   4.708  11.463  0.1931 -0.5825 -0.0158
 9090TIP3    H151465   6.694   4.745  11.479 -0.5205  1.8879 -1.3262
 9090TIP3    H251466   6.558   4.729  11.543  0.0915  0.4007 -0.3267
 9091TIP3   OH251467   5.531   5.447  11.262  0.3444 -0.5783  0.3451
 9091TIP3    H151468   5.451   5.418  11.305  0.2330 -1.3849 -0.3626
 9091TIP3    H251469   5.599   5.388  11.296  0.6385  0.0873  0.9255
 9092TIP3   OH251470   2.253   1.448  10.668 -0.6501  0.1960  0.2262
 9092TIP3    H151471   2.302   1.529  10.654  1.2447 -1.1964 -1.6441
 9092TIP3    H251472   2.194   1.443  10.592 -0.1025 -0.6184 -0.1508
 9093TIP3   OH251473   5.840   3.643  11.386 -0.1364  0.3874 -0.0507
 9093TIP3    H151474   5.875   3.721  11.429 -1.2916  2.0809 -1.9941
 9093TIP3    H251475   5.755   3.628  11.428 -0.3241  0.7513 -0.2969
 9094TIP3   OH251476   3.556   1.004  11.999  0.3440  0.2574  0.0795
 9094TIP3    H151477   3.510   0.944  11.941 -0.9650  0.6637  0.6500
 9094TIP3    H251478   3.503   1.083  11.999  1.4820  1.0448  0.1557
 9095TIP3   OH251479   4.397   1.544  12.392 -0.2548 -0.0016  0.6197
 9095TIP3    H151480   4.304   1.550  12.370  0.2497 -1.4239 -2.4957
 9095TIP3    H251481   4.440   1.600  12.328  1.1482 -1.1058  0.5461
 9096TIP3   OH251482   1.874   0.917  10.733  0.0573  0.3502 -0.1962
 9096TIP3    H151483   1.932   0.842  10.746  0.6636  1.0269  1.1877
 9096TIP3    H251484   1.786   0.879  10.737  0.2852 -0.0792  2.4260
 9097TIP3   OH251485   4.071   6.446  11.766  0.0042  0.1811  0.3427
 9097TIP3    H151486   4.047   6.452  11.673 -1.8359  1.1739  0.8199
 9097TIP3    H251487   4.041   6.360  11.793  2.4704 -1.0080 -0.4132
 9098TIP3   OH251488   1.872   6.408  11.973 -0.1112 -0.2308  0.0532
 9098TIP3    H151489   1.944   6.465  12.001  0.4614 -0.3540 -1.1360
 9098TIP3    H251490   1.915   6.336  11.926 -1.0294 -0.2142 -0.8211
 9099TIP3   OH251491   7.280   5.050  10.923 -0.1688 -0.5581 -0.4673
 9099TIP3    H151492   7.373   5.051  10.943 -0.0143 -1.6030 -1.0984
 9099TIP3    H251493   7.274   5.084  10.834 -0.4349 -0.2232 -0.3281
 9100TIP3   OH251494   0.050   3.671  11.408  0.1461  0.2206  0.2434
 9100TIP3    H151495   0.113   3.743  11.404  0.7795 -0.3683 -0.4369
 9100TIP3    H251496   0.102   3.593  11.424 -0.6671  0.0588  2.4021
 9101TIP3   OH251497   6.273   2.528  12.734 -0.9904 -0.1896 -0.2395
 9101TIP3    H151498   6.269   2.526  12.830 -1.7720 -1.1858 -0.2785
 9101TIP3    H251499   6.367   2.524  12.714 -0.8314 -0.1804  0.4785
 9102TIP3   OH251500   4.601   5.099  11.655 -0.2258 -0.5390  0.6177
 9102TIP3    H151501   4.579   5.052  11.736  1.3032 -1.8742  0.3079
 9102TIP3    H251502   4.553   5.181  11.661 -3.1381 -2.1512  1.1499
 9103TIP3   OH251503   0.174   6.388  13.521 -0.4552  0.7454  0.1030
 9103TIP3    H151504   0.173   6.326  13.447 -0.4101  0.4816  0.3203
 9103TIP3    H251505   0.251   6.362  13.573  0.2681  1.7455 -0.4373
 9104TIP3   OH251506   3.290   2.923  10.861 -0.1574  0.3687 -0.0033
 9104TIP3    H151507   3.267   2.847  10.915 -0.2296  0.9145  0.7532
 9104TIP3    H251508   3.232   2.992  10.893  0.5767  0.9975 -0.0271
 9105TIP3   OH251509   4.325   5.763  10.422 -0.0494 -0.0597 -0.1664
 9105TIP3    H151510   4.267   5.839  10.410  0.1118  0.0118 -0.4981
 9105TIP3    H251511   4.300   5.702  10.353 -0.7503 -0.6758  0.6129
 9106TIP3   OH251512   0.796   7.374  12.825  0.5495  0.1970  0.2962
 9106TIP3    H151513   0.837   7.344  12.905  1.0683  0.5109  0.1529
 9106TIP3    H251514   0.740   7.447  12.853  0.2745 -0.0692  0.4523
 9107TIP3   OH251515   7.641   5.518  10.550 -1.0949 -0.2481  0.1773
 9107TIP3    H151516   7.671   5.596  10.598  0.3239 -0.3141 -0.5520
 9107TIP3    H251517   7.705   5.451  10.572 -1.1551 -0.6327 -0.8033
 9108TIP3   OH251518   4.138   4.886  11.960  0.5067 -0.4642  0.3846
 9108TIP3    H151519   4.086   4.916  11.886  2.2807  1.6241 -0.1244
 9108TIP3    H251520   4.189   4.813  11.924 -0.6811 -1.3245  0.3848
 9109TIP3   OH251521   2.394   6.983  10.926 -0.1065  0.2094  0.7706
 9109TIP3    H151522   2.416   6.901  10.883 -0.7544  0.1123  0.6062
 9109TIP3    H251523   2.343   6.957  11.003 -0.8974  0.4761  0.3484
 9110TIP3   OH251524   2.180   1.894  10.707  0.5142 -0.0900 -0.2274
 9110TIP3    H151525   2.207   1.973  10.755  0.7944 -0.5119  0.3222
 9110TIP3    H251526   2.192   1.823  10.770 -0.7290 -0.4509 -0.3707
 9111TIP3   OH251527   5.871   5.274  10.633  0.0619  0.0847 -0.5045
 9111TIP3    H151528   5.827   5.191  10.652  1.3909 -0.5933 -0.2323
 9111TIP3    H251529   5.803   5.330  10.596 -0.8258 -1.1851 -0.8546
 9112TIP3   OH251530   5.702   5.061  12.039 -0.3563 -0.2962 -0.2533
 9112TIP3    H151531   5.709   4.970  12.010  0.2035 -0.1252 -0.6702
 9112TIP3    H251532   5.713   5.057  12.134 -0.0991 -0.6360 -0.2977
 9113TIP3   OH251533   1.918   3.617  10.961 -0.2880  0.9586 -0.3266
 9113TIP3    H151534   1.926   3.707  10.994  0.7392  1.5276 -2.0160
 9113TIP3    H251535   1.967   3.564  11.024  0.8672  1.8883 -0.4024
 9114TIP3   OH251536   3.824   3.299  11.749  0.4553  0.5483  0.1588
 9114TIP3    H151537   3.759   3.333  11.689  0.0619 -0.4794 -0.0131
 9114TIP3    H251538   3.872   3.234  11.699  0.5297  0.1219  0.7720
 9115TIP3   OH251539   1.962   0.252  11.191 -0.4766 -0.2408 -0.3296
 9115TIP3    H151540   2.009   0.269  11.272 -1.1778 -0.8490  0.2165
 9115TIP3    H251541   1.873   0.285  11.207 -0.4539  0.2108 -1.0759
 9116TIP3   OH251542   7.276   6.787  12.266  0.1867  0.3396 -0.1985
 9116TIP3    H151543   7.207   6.848  12.240  0.1382  1.2720  1.9265
 9116TIP3    H251544   7.296   6.738  12.186 -2.3257  0.6198 -1.0851
 9117TIP3   OH251545   6.329   2.374  11.077  0.1036  0.0142  0.4255
 9117TIP3    H151546   6.265   2.384  11.007  0.3622 -1.8233 -0.1256
 9117TIP3    H251547   6.277   2.356  11.155 -0.1526 -3.6077 -0.3991
 9118TIP3   OH251548   6.759   0.054  11.685  0.3013 -0.1467 -0.0040
 9118TIP3    H151549   6.741   0.028  11.595  1.1349 -1.3895  0.1621
 9118TIP3    H251550   6.818   0.130  11.677  1.8914 -1.3785 -0.5411
 9119TIP3   OH251551   6.378   6.067  11.486 -0.2370  0.2270 -0.4738
 9119TIP3    H151552   6.346   5.995  11.540 -0.1366  0.3786 -0.2108
 9119TIP3    H251553   6.346   6.146  11.529 -1.1585  0.3123 -1.2913
 9120TIP3   OH251554   2.258   2.369  11.070  0.1683  0.4492 -0.1050
 9120TIP3    H151555   2.297   2.281  11.071 -1.7933 -0.5024 -1.2844
 9120TIP3    H251556   2.271   2.402  11.159  1.2268 -0.9109  0.2710
 9121TIP3   OH251557   6.570   4.236  11.159  0.3206  0.1136 -0.0383
 9121TIP3    H151558   6.568   4.211  11.251  0.8542  0.0108 -0.0470
 9121TIP3    H251559   6.639   4.182  11.121  0.8163  0.8895 -0.2731
 9122TIP3   OH251560   3.574   3.314  12.236 -0.3676 -0.1485  0.1718
 9122TIP3    H151561   3.563   3.285  12.327  0.5683  0.6768  0.5683
 9122TIP3    H251562   3.487   3.306  12.197 -0.4620 -2.0544  0.6665
 9123TIP3   OH251563   4.320   6.164  12.183  0.0366 -0.2284  0.0020
 9123TIP3    H151564   4.313   6.156  12.279  0.3410 -1.7157 -0.0862
 9123TIP3    H251565   4.230   6.152  12.152  0.0342 -0.3587  0.0592
 9124TIP3   OH251566   7.137   2.529  10.966 -0.1326 -0.6147  0.0547
 9124TIP3    H151567   7.198   2.592  11.005 -0.4173  0.4571 -1.1470
 9124TIP3    H251568   7.053   2.547  11.008  0.1057 -1.2683  0.8330
 9125TIP3   OH251569   3.820   0.879  10.704 -0.0870  0.1519 -0.0520
 9125TIP3    H151570   3.823   0.898  10.797  1.4384 -1.3689  0.2639
 9125TIP3    H251571   3.810   0.965  10.662 -1.5742  0.7830  1.5007
 9126TIP3   OH251572   6.062   1.775  12.335 -0.0252 -0.2730  0.8167
 9126TIP3    H151573   6.146   1.814  12.360  0.4460  0.1696 -1.2591
 9126TIP3    H251574   6.084   1.687  12.306 -0.1709  0.0347 -0.2645
 9127TIP3   OH251575   5.258   2.998  10.587  0.2171  0.5213  0.0689
 9127TIP3    H151576   5.180   2.984  10.534 -1.5894  0.2788  2.6203
 9127TIP3    H251577   5.245   3.084  10.627  0.1927 -0.3679  2.1072
 9128TIP3   OH251578   2.522   0.308  10.717  0.1153 -0.6944 -0.0486
 9128TIP3    H151579   2.584   0.280  10.784  0.0531 -1.3031 -0.2428
 9128TIP3    H251580   2.577   0.352  10.651  0.0464  0.8900  0.9114
 9129TIP3   OH251581   6.848   4.834  11.486 -0.0297 -0.2978  0.6526
 9129TIP3    H151582   6.815   4.917  11.453 -0.1328 -0.7948 -0.5558
 9129TIP3    H251583   6.943   4.844  11.489  0.0431 -0.4418 -0.4596
 9130TIP3   OH251584   5.387   0.097  12.637  0.4142 -0.3695 -0.1218
 9130TIP3    H151585   5.391   0.181  12.591 -2.5594 -0.7060 -1.2098
 9130TIP3    H251586   5.421   0.116  12.724  0.5037  1.7937 -0.5597
 9131TIP3   OH251587   0.451   0.318  11.252 -0.0465 -0.1808  0.5215
 9131TIP3    H151588   0.431   0.406  11.219 -0.9834 -0.3007  0.7532
 9131TIP3    H251589   0.446   0.327  11.347 -1.3699 -0.7549  0.5234
 9132TIP3   OH251590   3.082   7.463  11.940 -0.4823  0.4487 -0.4286
 9132TIP3    H151591   3.062   7.517  12.016  0.5289 -0.5667  0.5827
 9132TIP3    H251592   3.177   7.462  11.935 -0.4463 -1.6341 -0.1104
 9133TIP3   OH251593   0.617   6.393  11.540 -0.2143 -0.0752  0.1238
 9133TIP3    H151594   0.529   6.430  11.545 -0.1280  0.0736  0.6541
 9133TIP3    H251595   0.659   6.441  11.469 -0.2496  0.5503  0.5153
 9134TIP3   OH251596   2.321   3.542  11.229  0.5563  0.4617 -0.0302
 9134TIP3    H151597   2.320   3.449  11.252 -1.8253  0.1462 -1.0179
 9134TIP3    H251598   2.391   3.580  11.281  2.4063 -2.0893 -0.5059
 9135TIP3   OH251599   1.880   5.710  10.865  0.2706  0.5786  0.1678
 9135TIP3    H151600   1.891   5.615  10.862 -2.4190  0.1850 -2.1705
 9135TIP3    H251601   1.790   5.722  10.895 -0.3065  2.1931 -1.9759
 9136TIP3   OH251602   0.635   3.992  11.878  0.4034  0.2766 -0.0513
 9136TIP3    H151603   0.722   3.958  11.901  0.2127 -0.4724 -0.4282
 9136TIP3    H251604   0.578   3.916  11.880 -0.0725  0.6040 -0.7088
 9137TIP3   OH251605   4.569   0.398  11.263 -0.4069 -0.2472 -0.1979
 9137TIP3    H151606   4.596   0.459  11.194 -0.6833 -1.3760 -1.3457
 9137TIP3    H251607   4.629   0.415  11.336 -0.5840  1.4869 -0.4216
 9138TIP3   OH251608   4.272   4.131  11.340  0.0038 -0.3837  0.2090
 9138TIP3    H151609   4.367   4.136  11.328  0.3306  0.5492  2.5595
 9138TIP3    H251610   4.236   4.138  11.252  2.0723  1.0673 -0.5981
 9139TIP3   OH251611   2.411   3.005  11.477  0.3848  0.6246 -0.3780
 9139TIP3    H151612   2.336   2.987  11.421  0.2218  1.0502 -0.3036
 9139TIP3    H251613   2.375   3.053  11.552  0.3120 -1.4387  0.9920
 9140TIP3   OH251614   2.004   2.554  11.414  0.1055  0.7042  0.2263
 9140TIP3    H151615   1.996   2.459  11.405  0.9395  0.6114  0.3951
 9140TIP3    H251616   2.024   2.585  11.325 -0.3366  0.7455  0.1390
 9141TIP3   OH251617   4.815   7.573  10.192 -0.2815 -0.1159 -0.3295
 9141TIP3    H151618   4.769   7.656  10.180  1.3226  0.8171 -0.3599
 9141TIP3    H251619   4.761   7.525  10.255 -0.7414  1.3677  0.4665
 9142TIP3   OH251620   3.376   0.630  11.284  0.1624  0.1238  0.0010
 9142TIP3    H151621   3.381   0.585  11.368  0.7688  1.4255  0.6966
 9142TIP3    H251622   3.439   0.583  11.228 -0.0895 -0.6159  0.3210
 9143TIP3   OH251623   0.674   5.791  11.787 -0.5139  0.0504  0.0740
 9143TIP3    H151624   0.723   5.808  11.867 -0.3613  1.6655 -0.3390
 9143TIP3    H251625   0.742   5.781  11.720 -0.6656 -0.7095  0.0193
 9144TIP3   OH251626   1.703   4.693  11.449 -0.0829  0.1007 -0.0545
 9144TIP3    H151627   1.690   4.606  11.412  0.1429 -0.8132  1.8928
 9144TIP3    H251628   1.748   4.742  11.380  0.6990 -1.6340 -0.8334
 9145TIP3   OH251629   5.927   2.564  10.588  0.6113  0.3008  0.4196
 9145TIP3    H151630   5.892   2.644  10.626  0.2526  0.0910  0.5394
 9145TIP3    H251631   5.922   2.499  10.659  0.5049  0.0636  0.1970
 9146TIP3   OH251632   3.222   1.681  10.632 -0.1766  0.1482 -0.0330
 9146TIP3    H151633   3.148   1.723  10.589  0.5136  1.6904  0.2249
 9146TIP3    H251634   3.290   1.678  10.565 -0.6524 -1.9091 -0.4887
 9147TIP3   OH251635   0.642   0.853  13.197 -0.2139  0.0544 -0.2849
 9147TIP3    H151636   0.683   0.784  13.250  0.2660 -1.1165 -2.0985
 9147TIP3    H251637   0.590   0.903  13.260 -0.8610 -2.1681  1.0616
 9148TIP3   OH251638   2.215   3.928  10.959  0.2355 -0.3271 -0.2163
 9148TIP3    H151639   2.201   4.007  10.908  0.8651 -0.3878 -0.4949
 9148TIP3    H251640   2.128   3.903  10.989 -0.2287 -0.5535 -1.6646
 9149TIP3   OH251641   0.504   6.065  11.210  0.5023  0.5867  0.1205
 9149TIP3    H151642   0.553   6.016  11.276  1.7479  0.9183 -0.5162
 9149TIP3    H251643   0.532   6.028  11.126 -1.5848 -0.3009 -0.2291
 9150TIP3   OH251644   3.126   4.056  12.726 -0.1790  0.3064  0.2492
 9150TIP3    H151645   3.218   4.051  12.752  0.0649  1.5171 -0.3097
 9150TIP3    H251646   3.096   4.141  12.757 -0.1920  1.3172 -2.2499
 9151TIP3   OH251647   3.786   3.594  13.394 -0.8648  0.2634  0.1433
 9151TIP3    H151648   3.843   3.587  13.317  0.2072  1.6401  0.7699
 9151TIP3    H251649   3.730   3.669  13.374 -1.0436  0.2026  0.4181
 9152TIP3   OH251650   3.815   5.624  12.385  0.4079  0.0195 -0.3199
 9152TIP3    H151651   3.837   5.569  12.310 -4.1479 -0.6075 -1.5388
 9152TIP3    H251652   3.777   5.563  12.449 -1.6082  1.1959 -0.2905
 9153TIP3   OH251653   2.375   3.823  11.758 -0.0195  0.2877  0.2892
 9153TIP3    H151654   2.302   3.871  11.796  1.8056  2.1911  1.6198
 9153TIP3    H251655   2.363   3.833  11.664 -0.7835  1.6575  0.5048
 9154TIP3   OH251656   2.217   2.088  12.553  0.3950  0.5874 -0.1509
 9154TIP3    H151657   2.153   2.020  12.572  0.7554 -0.2246 -1.6468
 9154TIP3    H251658   2.172   2.146  12.492  0.8400  0.3876 -0.6781
 9155TIP3   OH251659   6.164   5.486  11.017 -0.7485  0.0095 -0.6461
 9155TIP3    H151660   6.177   5.457  10.927 -1.4657 -0.5562 -0.5713
 9155TIP3    H251661   6.194   5.412  11.071 -0.6662  0.2009 -0.4278
 9156TIP3   OH251662   5.689   0.120  11.613 -0.0177 -0.0655  0.2275
 9156TIP3    H151663   5.721   0.030  11.606 -0.8897 -0.3182 -0.6276
 9156TIP3    H251664   5.764   0.169  11.649  0.6860 -0.9994  0.0682
 9157TIP3   OH251665   5.647   5.410  10.571 -0.0525 -0.1197  0.1596
 9157TIP3    H151666   5.586   5.372  10.634 -0.0685 -0.9058 -0.3087
 9157TIP3    H251667   5.593   5.431  10.495 -0.2564  1.9858  0.8387
 9158TIP3   OH251668   1.511   1.262  11.860  0.1126  0.2061  0.4506
 9158TIP3    H151669   1.564   1.262  11.940  0.8325  0.7811 -0.0161
 9158TIP3    H251670   1.573   1.287  11.791 -0.8445  1.1739 -0.0664
 9159TIP3   OH251671   3.263   7.560  10.747 -0.4066 -0.1860  0.0166
 9159TIP3    H151672   3.257   7.603  10.832  1.1266 -0.6325  0.3818
 9159TIP3    H251673   3.282   7.469  10.767  1.6522  0.0128 -0.7737
 9160TIP3   OH251674   6.159   4.018  11.304  0.3993 -0.4693 -0.4685
 9160TIP3    H151675   6.066   3.996  11.295  0.0539  1.1623 -1.1708
 9160TIP3    H251676   6.188   4.036  11.214  1.7071 -2.0654 -0.4017
 9161TIP3   OH251677   6.831   5.790  12.384  0.4952 -0.5174 -0.3981
 9161TIP3    H151678   6.804   5.860  12.444 -0.9957  0.0585 -1.6569
 9161TIP3    H251679   6.778   5.715  12.410  0.8351 -0.6598 -0.1274
 9162TIP3   OH251680   2.444   6.864  11.635  0.3681  0.3207  0.3974
 9162TIP3    H151681   2.381   6.800  11.604  0.6322 -0.1554  0.8229
 9162TIP3    H251682   2.494   6.889  11.557  0.8147 -0.6180  0.3707
 9163TIP3   OH251683   1.744   4.599  10.796  0.4844 -0.0831  0.0515
 9163TIP3    H151684   1.778   4.536  10.859 -1.2403 -1.5281 -0.3465
 9163TIP3    H251685   1.651   4.607  10.818  0.7827  3.0175  0.5928
 9164TIP3   OH251686   0.699   6.127  10.833  0.1358  0.0728 -0.8389
 9164TIP3    H151687   0.727   6.193  10.770  1.4572  0.0087 -0.3682
 9164TIP3    H251688   0.757   6.140  10.909  0.4123 -1.5747 -0.7139
 9165TIP3   OH251689   4.154   2.725  12.236  0.3814 -0.1868 -0.1150
 9165TIP3    H151690   4.149   2.705  12.142  0.5761 -0.0627 -0.1525
 9165TIP3    H251691   4.069   2.699  12.271  0.3813 -0.4298 -0.2905
 9166TIP3   OH251692   6.380   1.409  11.189  0.0902  0.4438 -0.4163
 9166TIP3    H151693   6.312   1.472  11.213 -1.2551 -1.3220  0.6342
 9166TIP3    H251694   6.361   1.386  11.098 -0.6077  0.1151 -0.1942
 9167TIP3   OH251695   7.175   3.198  10.622 -0.0415 -0.0870 -0.0398
 9167TIP3    H151696   7.264   3.177  10.593  0.4442  0.5252  0.9595
 9167TIP3    H251697   7.182   3.287  10.657 -0.7304 -0.5499  1.3309
 9168TIP3   OH251698   0.290   6.223  12.676 -0.2297  0.0302 -0.2933
 9168TIP3    H151699   0.377   6.214  12.638 -0.9486 -0.1781 -1.9601
 9168TIP3    H251700   0.304   6.268  12.759  1.3690  0.7489 -0.9348
 9169TIP3   OH251701   5.232   5.735  10.593 -0.9063  0.0381 -0.0040
 9169TIP3    H151702   5.247   5.769  10.682  0.2623  1.2769 -0.6394
 9169TIP3    H251703   5.211   5.812  10.541 -1.5826 -0.6825 -0.8167
 9170TIP3   OH251704   0.335   0.373  12.437 -0.4893 -0.1978  0.5449
 9170TIP3    H151705   0.431   0.383  12.439 -0.6777  2.0261  0.5740
 9170TIP3    H251706   0.310   0.396  12.348 -1.1037  0.6173  0.9127
 9171TIP3   OH251707   5.929   2.018  12.225  0.6662  0.7185  0.3483
 9171TIP3    H151708   6.021   2.045  12.218  0.6709  0.3440 -1.5117
 9171TIP3    H251709   5.890   2.082  12.284  1.5232  2.5973 -1.0087
 9172TIP3   OH251710   2.162   7.397  12.909  0.3101  0.2821  0.5241
 9172TIP3    H151711   2.240   7.410  12.856 -1.4547  0.1091 -2.2969
 9172TIP3    H251712   2.150   7.302  12.909 -0.7919  0.4038 -0.5106
 9173TIP3   OH251713   1.940   0.614  11.823  0.8126 -0.0357 -0.7182
 9173TIP3    H151714   1.982   0.699  11.834  0.8642  0.0243 -1.3559
 9173TIP3    H251715   1.992   0.554  11.878  0.1846  0.5204  0.5186
 9174TIP3   OH251716   0.176   5.686  11.501  0.1753 -0.4663  0.8658
 9174TIP3    H151717   0.154   5.597  11.473 -0.8202 -0.0480  0.3023
 9174TIP3    H251718   0.117   5.704  11.574  0.4219 -0.2945  1.0247
 9175TIP3   OH251719   0.333   0.347  12.158  0.1786 -0.5258 -0.0946
 9175TIP3    H151720   0.375   0.399  12.090 -0.1230  0.0199  0.1356
 9175TIP3    H251721   0.381   0.264  12.157  2.4331  0.6524  1.3023
 9176TIP3   OH251722   2.828   3.841  10.841  0.3182 -0.4299  0.4382
 9176TIP3    H151723   2.875   3.820  10.760  0.7992 -1.2718  0.9258
 9176TIP3    H251724   2.847   3.933  10.857  1.4014 -0.6336  0.3575
 9177TIP3   OH251725   7.495   4.349  12.192  0.1214 -0.2733 -0.2593
 9177TIP3    H151726   7.562   4.321  12.254  0.2033  0.6140  0.0620
 9177TIP3    H251727   7.417   4.301  12.219  0.2738 -0.2457  0.2426
 9178TIP3   OH251728   1.965   1.615  11.813  0.4214 -0.2517  0.4551
 9178TIP3    H151729   1.977   1.591  11.721  0.7276 -1.1836  0.7203
 9178TIP3    H251730   1.870   1.616  11.826  0.3414 -3.2252  0.8491
 9179TIP3   OH251731   6.573   1.366  12.466 -0.3510  0.7683  0.0040
 9179TIP3    H151732   6.536   1.444  12.506 -0.3909  1.2823 -1.0056
 9179TIP3    H251733   6.616   1.320  12.538 -0.1494  1.8234  0.5702
 9180TIP3   OH251734   4.785   4.816  11.871  0.1125  0.1895  0.2102
 9180TIP3    H151735   4.743   4.768  11.800 -0.1769 -0.9911  1.1462
 9180TIP3    H251736   4.801   4.750  11.938  0.7511  1.1997  1.0795
 9181TIP3   OH251737   3.805   2.853  12.702  0.7513 -0.2062 -0.3511
 9181TIP3    H151738   3.832   2.867  12.793  0.2684  1.6661 -0.4515
 9181TIP3    H251739   3.710   2.866  12.704  0.8446  0.7607 -1.2488
 9182TIP3   OH251740   3.164   0.236  12.663 -0.3611 -0.0670 -0.5624
 9182TIP3    H151741   3.147   0.320  12.706  0.4271 -0.3023  0.2386
 9182TIP3    H251742   3.119   0.172  12.719 -1.3417 -0.1509 -1.4159
 9183TIP3   OH251743   5.665   7.060  12.517  0.6052 -0.1381  0.5261
 9183TIP3    H151744   5.651   7.042  12.424  0.2359  1.1967  0.3082
 9183TIP3    H251745   5.690   6.975  12.554  1.1328 -0.6094 -0.8550
 9184TIP3   OH251746   5.845   3.684  11.750  0.1169 -0.3190 -0.5883
 9184TIP3    H151747   5.795   3.760  11.780  1.3581  0.1532  0.3394
 9184TIP3    H251748   5.936   3.714  11.748  0.4266 -1.2691 -1.9017
 9185TIP3   OH251749   6.177   4.944  11.159  0.1532 -0.4313  0.0736
 9185TIP3    H151750   6.269   4.933  11.138  0.1797 -0.8656  0.4040
 9185TIP3    H251751   6.133   4.872  11.114  0.0229 -0.4441  0.2193
 9186TIP3   OH251752   4.130   4.726  13.066  0.2081 -0.0859 -0.8863
 9186TIP3    H151753   4.186   4.800  13.085  0.6233 -0.5933 -0.0695
 9186TIP3    H251754   4.041   4.761  13.071  0.1692 -0.2792  2.9866
 9187TIP3   OH251755   4.398   2.871  12.422 -0.0351  0.2928 -0.5517
 9187TIP3    H151756   4.342   2.800  12.452  1.6202 -0.9870 -0.2877
 9187TIP3    H251757   4.448   2.897  12.500  1.1326  0.0138 -1.1827
 9188TIP3   OH251758   2.888   4.212  11.396  0.4018 -0.3534  0.3768
 9188TIP3    H151759   2.855   4.170  11.316  0.5507 -1.9237  1.1067
 9188TIP3    H251760   2.968   4.256  11.369 -0.2000  0.1767 -0.5943
 9189TIP3   OH251761   0.805   6.852  13.644  0.4072  0.2102 -0.1799
 9189TIP3    H151762   0.863   6.793  13.690  0.0552 -1.5620 -1.8752
 9189TIP3    H251763   0.859   6.929  13.625  1.2173 -0.0231  1.0737
 9190TIP3   OH251764   2.919   2.408  12.580 -0.1122 -0.5316 -0.2268
 9190TIP3    H151765   2.940   2.315  12.573 -0.3851 -0.8559  2.5010
 9190TIP3    H251766   2.834   2.417  12.538 -1.8053 -2.2764  2.5684
 9191TIP3   OH251767   2.183   6.993  12.885 -0.4195 -0.0838  0.0513
 9191TIP3    H151768   2.100   7.041  12.883 -1.4507 -1.7070  0.9747
 9191TIP3    H251769   2.246   7.055  12.921 -1.8751  0.3964  1.9786
 9192TIP3   OH251770   1.580   0.023  12.509  0.1230  0.5464  0.0183
 9192TIP3    H151771   1.502   0.018  12.453 -1.2322 -0.9610  1.8890
 9192TIP3    H251772   1.653   0.003  12.450 -1.2144 -0.8934 -1.2432
 9193TIP3   OH251773   0.041   0.370  11.387  0.0660 -0.1847  0.5310
 9193TIP3    H151774   0.119   0.317  11.368  0.2043 -0.3154  1.4415
 9193TIP3    H251775   0.046   0.388  11.481 -0.4084  0.7628  0.3925
 9194TIP3   OH251776   5.037   4.852  11.687 -0.3996  0.7050  0.0786
 9194TIP3    H151777   5.130   4.847  11.709 -0.2086  2.9725  0.0224
 9194TIP3    H251778   4.993   4.867  11.770 -0.7098 -0.0816  0.0676
 9195TIP3   OH251779   0.261   0.119  11.432  0.5591 -0.1286  0.2336
 9195TIP3    H151780   0.312   0.174  11.491  2.1202 -0.9882 -0.2570
 9195TIP3    H251781   0.322   0.096  11.362 -1.5847  2.0259 -2.5714
 9196TIP3   OH251782   4.743   2.270  11.164  0.1541  0.1686 -0.3649
 9196TIP3    H151783   4.783   2.283  11.250 -1.5481  0.2913  0.4421
 9196TIP3    H251784   4.694   2.350  11.147 -0.3702 -0.2672 -0.9674
 9197TIP3   OH251785   7.660   0.691  12.777 -0.1926 -0.0611 -0.1778
 9197TIP3    H151786   7.728   0.698  12.709 -1.4212 -1.9750 -1.7183
 9197TIP3    H251787   7.696   0.629  12.840 -0.2412 -0.5735 -0.6497
 9198TIP3   OH251788   5.664   4.595  11.316 -0.0472 -0.1998  0.2309
 9198TIP3    H151789   5.663   4.530  11.246 -2.6152 -1.9941  1.7385
 9198TIP3    H251790   5.756   4.615  11.329  0.5383  0.5487 -3.8358
 9199TIP3   OH251791   3.207   4.698  11.103  0.7545 -0.6601  0.3219
 9199TIP3    H151792   3.272   4.709  11.172  1.7332 -0.0286 -0.6778
 9199TIP3    H251793   3.203   4.784  11.061 -0.1333 -0.9243 -0.1518
 9200TIP3   OH251794   2.497   6.764  10.814 -0.8030  0.3005  0.3756
 9200TIP3    H151795   2.465   6.686  10.769  1.1166 -1.2580  1.5262
 9200TIP3    H251796   2.554   6.730  10.883 -0.0070  2.7323  1.0199
 9201TIP3   OH251797   6.502   0.178  10.345  0.1045  0.1809  0.3314
 9201TIP3    H151798   6.521   0.088  10.320  1.1880  0.5608 -0.2714
 9201TIP3    H251799   6.453   0.214  10.271  2.0805  0.8815 -0.7097
 9202TIP3   OH251800   7.223   7.312  10.234  0.0385 -0.3914  0.3897
 9202TIP3    H151801   7.245   7.320  10.141 -0.5429  0.9126  0.3516
 9202TIP3    H251802   7.307   7.315  10.279  0.2554 -0.0821 -0.0368
 9203TIP3   OH251803   5.739   2.684  11.978 -0.0264 -0.1713  0.5440
 9203TIP3    H151804   5.688   2.632  11.916 -1.0031  0.2308  0.9896
 9203TIP3    H251805   5.725   2.642  12.062  1.2135 -0.6543  0.5361
 9204TIP3   OH251806   4.651   1.632  12.555  0.1906 -0.3902 -0.3068
 9204TIP3    H151807   4.678   1.712  12.599  0.9555 -1.0165  0.4096
 9204TIP3    H251808   4.670   1.647  12.462 -1.9722  1.1671 -0.5696
 9205TIP3   OH251809   3.910   2.340  10.516  0.4413  0.2991 -0.0047
 9205TIP3    H151810   3.860   2.277  10.568 -0.2360  1.2176  0.4822
 9205TIP3    H251811   3.955   2.286  10.450 -0.8219 -0.6136 -0.1667
 9206TIP3   OH251812   5.219   5.380  10.563  0.2768 -0.3238  0.0659
 9206TIP3    H151813   5.217   5.411  10.653  1.1221 -0.3902  0.1143
 9206TIP3    H251814   5.129   5.391  10.532  0.2140  0.7244  0.5699
 9207TIP3   OH251815   0.405   5.423  10.454 -0.2708  0.1793 -0.6794
 9207TIP3    H151816   0.424   5.515  10.471  0.9287 -0.3617  1.2627
 9207TIP3    H251817   0.328   5.404  10.508 -0.0674 -0.1250 -0.4913
 9208TIP3   OH251818   7.636   5.473  11.514 -0.4996  0.1738 -0.6054
 9208TIP3    H151819   7.604   5.529  11.443 -0.5696  0.7231 -0.1418
 9208TIP3    H251820   7.569   5.478  11.581 -0.2149  0.0168 -0.3073
 9209TIP3   OH251821   6.670   6.286  12.979  0.2490  0.2809  0.3430
 9209TIP3    H151822   6.599   6.247  13.030 -0.2817  1.0005  0.1691
 9209TIP3    H251823   6.713   6.211  12.936 -1.1107 -0.0754 -0.4538
 9210TIP3   OH251824   3.003   6.216  10.734 -0.3039 -0.2243 -0.4951
 9210TIP3    H151825   3.012   6.121  10.735 -2.4197 -0.4633 -0.4259
 9210TIP3    H251826   2.950   6.237  10.811 -1.2953  0.8125 -1.4108
 9211TIP3   OH251827   6.180   1.513  12.375  0.3387 -0.3592 -0.7210
 9211TIP3    H151828   6.205   1.460  12.299  0.3158 -1.9689  0.3547
 9211TIP3    H251829   6.134   1.452  12.433  0.4805  0.8021  0.6569
 9212TIP3   OH251830   2.684   1.968  12.470 -0.4889 -0.4824 -0.6118
 9212TIP3    H151831   2.746   1.899  12.449  0.9312  0.6703 -0.3632
 9212TIP3    H251832   2.598   1.929  12.454  0.3105 -1.2280 -3.8714
 9213TIP3   OH251833   5.170   0.514  10.994  0.3418  0.8267 -0.4994
 9213TIP3    H151834   5.079   0.522  10.966 -0.2217 -1.4532  0.4832
 9213TIP3    H251835   5.211   0.459  10.927 -0.0673 -1.4516  0.9946
 9214TIP3   OH251836   1.966   3.879  11.072 -0.2844 -0.0729  0.5501
 9214TIP3    H151837   1.907   3.919  11.008  2.1408  2.6645 -0.2006
 9214TIP3    H251838   1.968   3.940  11.145 -0.1150 -1.2720  1.5783
 9215TIP3   OH251839   4.861   5.831  12.817 -0.0906 -0.0722 -0.3004
 9215TIP3    H151840   4.942   5.784  12.798  0.6514  1.3369 -0.7772
 9215TIP3    H251841   4.875   5.919  12.781 -0.8734  0.9592  1.7306
 9216TIP3   OH251842   2.760   3.427  11.082  0.5241 -0.1280  0.3988
 9216TIP3    H151843   2.706   3.361  11.038  0.3642  0.8695 -0.9462
 9216TIP3    H251844   2.704   3.461  11.152  0.5896 -1.3630  1.0694
 9217TIP3   OH251845   0.748   2.153  10.565 -0.5498 -0.0457  0.4138
 9217TIP3    H151846   0.653   2.141  10.562 -0.3574 -1.4536 -1.5718
 9217TIP3    H251847   0.781   2.076  10.610 -0.2922  0.0274  0.3521
 9218TIP3   OH251848   3.939   2.365  11.429  0.1183 -0.0658  0.2495
 9218TIP3    H151849   3.873   2.358  11.498 -1.2131  0.8708 -0.8742
 9218TIP3    H251850   3.986   2.445  11.449 -0.3510  0.2731  0.0141
 9219TIP3   OH251851   4.116   7.673  12.307  0.6450  0.6987  0.2358
 9219TIP3    H151852   4.043   7.612  12.320  0.6181  0.5096 -0.7391
 9219TIP3    H251853   4.175   7.627  12.248  0.6191  1.6103 -0.5197
 9220TIP3   OH251854   2.566   1.605  11.244 -0.2869 -0.2052 -0.3255
 9220TIP3    H151855   2.614   1.581  11.323 -0.2076 -0.7052 -0.5190
 9220TIP3    H251856   2.550   1.521  11.200 -0.6317  0.0363 -0.6645
 9221TIP3   OH251857   6.682   6.965  13.097 -0.2794  0.4581 -0.0778
 9221TIP3    H151858   6.665   6.875  13.069  0.7610  0.6922 -1.6071
 9221TIP3    H251859   6.641   6.971  13.183 -1.2585 -1.1629 -0.3721
 9222TIP3   OH251860   6.367   3.840  11.370  0.6457 -0.1244 -0.4092
 9222TIP3    H151861   6.411   3.864  11.451  1.0705  1.0201 -0.9638
 9222TIP3    H251862   6.294   3.902  11.363 -0.6950 -1.5641  0.1543
 9223TIP3   OH251863   6.528   3.371  11.800  0.2212  0.3694 -0.7151
 9223TIP3    H151864   6.594   3.429  11.761  0.5557 -0.8082 -1.9904
 9223TIP3    H251865   6.504   3.414  11.882  0.6440  2.1644 -1.4730
 9224TIP3   OH251866   7.346   0.135  11.565 -0.3950 -0.6616 -0.1937
 9224TIP3    H151867   7.292   0.129  11.643  0.7320  0.4694  0.7179
 9224TIP3    H251868   7.433   0.104  11.593 -0.0752 -0.6136 -1.0948
 9225TIP3   OH251869   3.334   4.647  11.507  0.3076 -0.0091 -0.6081
 9225TIP3    H151870   3.349   4.710  11.436 -0.6383  0.6192 -0.2641
 9225TIP3    H251871   3.403   4.666  11.571 -0.9941  1.8976  0.3057
 9226TIP3   OH251872   5.432   3.762  12.050 -0.1944 -0.2083 -0.0937
 9226TIP3    H151873   5.522   3.792  12.047 -0.3470  0.1974 -0.9869
 9226TIP3    H251874   5.411   3.757  12.143  0.5373  0.3237  0.1080
 9227TIP3   OH251875   6.575   1.839  11.050 -0.0175 -0.3672 -0.3387
 9227TIP3    H151876   6.589   1.893  10.972  2.1329 -1.8733 -1.1021
 9227TIP3    H251877   6.503   1.781  11.028 -0.3857  0.1990 -0.6361
 9228TIP3   OH251878   5.042   3.220  11.406  0.0236 -0.3038 -0.0727
 9228TIP3    H151879   5.046   3.134  11.365  2.2060 -0.7344  0.8687
 9228TIP3    H251880   5.015   3.280  11.337 -0.2209 -1.5583 -1.0827
 9229TIP3   OH251881   1.783   6.902  11.409 -0.3156 -0.2241  0.8070
 9229TIP3    H151882   1.706   6.932  11.361  0.3582  1.4559  0.7340
 9229TIP3    H251883   1.761   6.917  11.501 -0.7440 -1.4007  0.9151
 9230TIP3   OH251884   3.761   2.854  11.321  0.8372 -0.6707 -0.2329
 9230TIP3    H151885   3.740   2.840  11.229  2.5249  0.7183 -0.9004
 9230TIP3    H251886   3.764   2.949  11.331  2.5102 -0.7761  0.7696
 9231TIP3   OH251887   0.591   0.130  11.116 -0.1805 -0.0928  0.4878
 9231TIP3    H151888   0.672   0.150  11.163 -0.0467  0.6600 -0.0497
 9231TIP3    H251889   0.533   0.203  11.137 -0.0097  0.4233 -0.7635
 9232TIP3   OH251890   0.673   4.424  12.784  0.2511 -0.8218  0.2100
 9232TIP3    H151891   0.630   4.480  12.849  0.7019 -1.8187  1.4178
 9232TIP3    H251892   0.604   4.402  12.722  0.3937  2.2493 -1.2086
 9233TIP3   OH251893   3.056   0.746  11.107  0.5491  0.0022  0.0726
 9233TIP3    H151894   2.993   0.674  11.112  1.9309 -1.2913 -0.0620
 9233TIP3    H251895   3.007   0.820  11.072 -0.5070 -1.4385 -1.6357
 9234TIP3   OH251896   5.459   0.831  10.395  0.5779  0.0320 -0.2027
 9234TIP3    H151897   5.381   0.873  10.359  0.7181  0.0901 -0.4383
 9234TIP3    H251898   5.530   0.858  10.338  0.8933  0.5402  0.4162
 9235TIP3   OH251899   6.874   4.928  11.987  0.1636 -0.5848 -0.2443
 9235TIP3    H151900   6.879   4.879  11.905 -1.6024 -0.5822 -0.3937
 9235TIP3    H251901   6.784   4.916  12.017  0.5115  0.1763  1.2309
 9236TIP3   OH251902   1.675   5.541  10.629  0.6975  0.1012  0.6078
 9236TIP3    H151903   1.729   5.477  10.675 -0.0762 -1.1368 -0.1489
 9236TIP3    H251904   1.597   5.492  10.604  0.4963  1.1050 -0.8057
 9237TIP3   OH251905   0.541   7.440  13.192 -0.4975 -0.0737  0.2115
 9237TIP3    H151906   0.488   7.510  13.229  0.2250  0.0718  0.9960
 9237TIP3    H251907   0.603   7.484  13.135 -0.6063 -0.1624  0.0215
 9238TIP3   OH251908   6.619   1.001  12.214 -0.1697  0.1415  0.4018
 9238TIP3    H151909   6.590   0.925  12.265 -0.0961 -0.5873 -0.6120
 9238TIP3    H251910   6.648   0.964  12.131 -0.6935  1.3544 -0.3407
 9239TIP3   OH251911   4.554   5.812  11.380 -0.4509 -0.0061  0.6786
 9239TIP3    H151912   4.583   5.891  11.426  0.2161  0.9928 -1.3773
 9239TIP3    H251913   4.459   5.813  11.388 -0.5353  1.5914 -0.2076
 9240TIP3   OH251914   2.334   7.573  11.942  0.2760 -0.1692 -0.4572
 9240TIP3    H151915   2.379   7.620  11.872  0.0121  0.2881 -0.3185
 9240TIP3    H251916   2.401   7.562  12.010  0.4805 -0.4515 -0.6991
 9241TIP3   OH251917   3.624   3.074  11.568  0.0032 -0.0270  0.1926
 9241TIP3    H151918   3.661   3.142  11.512 -0.6002  0.1133 -0.0416
 9241TIP3    H251919   3.689   3.004  11.566  0.3714  0.3142 -0.0124
 9242TIP3   OH251920   4.783   6.588  11.502  0.5946 -0.4210  0.4988
 9242TIP3    H151921   4.818   6.567  11.589  0.3882  0.8682  0.9127
 9242TIP3    H251922   4.846   6.649  11.464  0.3196 -0.4212  0.0315
 9243TIP3   OH251923   0.229   2.027  12.245 -0.7816  0.1524  0.0510
 9243TIP3    H151924   0.154   2.054  12.298 -0.6601  0.0613  0.2673
 9243TIP3    H251925   0.274   1.961  12.298 -0.4200  0.3699  0.0197
 9244TIP3   OH251926   3.450   5.186  10.969  0.1479  0.1953 -0.0082
 9244TIP3    H151927   3.534   5.228  10.951  0.8581 -1.7089 -1.5475
 9244TIP3    H251928   3.392   5.218  10.899  0.6363 -1.1006 -1.0658
 9245TIP3   OH251929   4.633   6.555  10.756 -0.0155  0.2798  0.2488
 9245TIP3    H151930   4.664   6.637  10.716  0.9976 -0.0418  0.3526
 9245TIP3    H251931   4.575   6.584  10.826 -1.1697  0.8639 -0.8957
 9246TIP3   OH251932   4.252   0.266  13.250 -0.3334  0.0588 -0.2831
 9246TIP3    H151933   4.212   0.345  13.286 -1.2660 -0.4000 -0.2958
 9246TIP3    H251934   4.325   0.248  13.309  1.0454  1.9497 -1.3089
 9247TIP3   OH251935   5.147   2.409  11.496  0.1350  0.2907 -0.3569
 9247TIP3    H151936   5.220   2.361  11.457  1.6130  1.9115  0.2804
 9247TIP3    H251937   5.180   2.440  11.580 -1.5795  0.4021  0.3149
 9248TIP3   OH251938   5.847   5.784  11.819  0.7652  0.4275 -0.3724
 9248TIP3    H151939   5.805   5.841  11.754  0.8741  1.7455  0.6823
 9248TIP3    H251940   5.940   5.790  11.799  0.6856 -0.4789 -1.1025
 9249TIP3   OH251941   1.826   7.647  11.216 -0.6274 -0.1263 -0.6798
 9249TIP3    H151942   1.818   7.693  11.299 -0.4430 -0.3612 -0.5276
 9249TIP3    H251943   1.753   7.678  11.163 -1.9062 -1.4115  0.2689
 9250TIP3   OH251944   5.112   5.830  11.558  0.2254  0.0870  0.3771
 9250TIP3    H151945   5.175   5.801  11.625  0.3884  1.0579  0.6594
 9250TIP3    H251946   5.166   5.877  11.495 -0.4091  2.4134  1.4834
 9251TIP3   OH251947   1.098   6.912  10.740  0.7143  0.1632 -0.7242
 9251TIP3    H151948   1.034   6.885  10.805  0.7123  1.2510 -0.2436
 9251TIP3    H251949   1.104   6.839  10.679 -0.3215 -0.3067 -0.2789
 9252TIP3   OH251950   3.348   0.712  12.655  0.7633 -0.3241  0.1792
 9252TIP3    H151951   3.352   0.808  12.658  0.9709 -0.3050 -0.4323
 9252TIP3    H251952   3.416   0.688  12.591 -0.1370 -0.7961 -0.6212
 9253TIP3   OH251953   0.560   3.469  10.870 -0.1861 -0.4399  0.5918
 9253TIP3    H151954   0.595   3.380  10.862  0.8147  0.0392 -0.7531
 9253TIP3    H251955   0.565   3.505  10.782 -1.4644  0.6461  0.9349
 9254TIP3   OH251956   6.778   1.868  11.952  0.0628  0.3887  0.1068
 9254TIP3    H151957   6.802   1.818  12.030  0.4759  0.2531 -0.1026
 9254TIP3    H251958   6.736   1.804  11.895 -0.2589  0.4929  0.2286
 9255TIP3   OH251959   2.764   2.223  10.598  0.0062 -0.2339 -0.4171
 9255TIP3    H151960   2.824   2.297  10.608  1.4262 -1.3394 -0.3336
 9255TIP3    H251961   2.677   2.262  10.599  0.6618  1.3141  0.7875
 9256TIP3   OH251962   5.691   2.330  11.917  0.8487 -0.5654  0.9699
 9256TIP3    H151963   5.598   2.334  11.895  0.7844  0.6965  1.3549
 9256TIP3    H251964   5.709   2.237  11.929  0.5653 -1.2848 -2.8728
 9257TIP3   OH251965   6.494   4.211  11.420 -0.1017  0.6091 -0.3734
 9257TIP3    H151966   6.416   4.180  11.467 -1.2007  0.1230 -2.3871
 9257TIP3    H251967   6.539   4.267  11.483 -1.5960  0.1740  1.1703
 9258TIP3   OH251968   7.137   6.100  10.944 -0.4286  0.3856 -0.5399
 9258TIP3    H151969   7.144   6.187  10.985 -0.9836  0.5364 -0.7642
 9258TIP3    H251970   7.063   6.107  10.884 -0.4313 -0.2270 -0.6165
 9259TIP3   OH251971   6.988   3.907  10.534  0.2464  0.1620 -0.1689
 9259TIP3    H151972   6.947   3.936  10.452 -1.5188 -1.7101 -0.0189
 9259TIP3    H251973   7.037   3.829  10.510 -1.1641 -1.0398  0.6906
 9260TIP3   OH251974   6.703   6.868  11.969 -0.3964 -0.3556 -0.2948
 9260TIP3    H151975   6.722   6.789  12.019  1.8267 -0.4918 -1.2258
 9260TIP3    H251976   6.631   6.842  11.910 -2.7712 -0.3070  2.3469
 9261TIP3   OH251977   6.442   7.023  12.682 -0.5622  0.0619 -0.0295
 9261TIP3    H151978   6.445   6.935  12.719  0.2787 -0.9936 -2.4406
 9261TIP3    H251979   6.486   7.078  12.747  0.1438 -1.5217  0.8791
 9262TIP3   OH251980   2.182   0.633  12.206 -0.2521 -0.5877 -0.4350
 9262TIP3    H151981   2.137   0.562  12.252 -0.5611 -0.2480 -0.2118
 9262TIP3    H251982   2.275   0.614  12.219 -0.2929  0.2273  1.5226
 9263TIP3   OH251983   3.173   1.387  11.447 -0.0918 -0.0985 -0.1930
 9263TIP3    H151984   3.259   1.349  11.431  0.1547 -0.1877  1.1998
 9263TIP3    H251985   3.136   1.334  11.517 -0.5354  1.0376  0.4634
 9264TIP3   OH251986   7.112   2.506  11.366 -0.4834 -0.3687  0.1747
 9264TIP3    H151987   7.052   2.512  11.292 -1.8760 -0.9780  1.2017
 9264TIP3    H251988   7.086   2.577  11.424  2.4861  2.0308 -1.1064
 9265TIP3   OH251989   7.331   2.396  12.581 -0.1272 -0.3903  0.0360
 9265TIP3    H151990   7.345   2.472  12.637  1.0294  0.1309 -0.9125
 9265TIP3    H251991   7.255   2.419  12.527  0.1661  0.0676 -0.1855
 9266TIP3   OH251992   4.392   7.238  10.473  0.0395 -0.3987  0.1083
 9266TIP3    H151993   4.301   7.211  10.471 -0.1221  0.1317  0.1342
 9266TIP3    H251994   4.420   7.225  10.564  0.5797 -2.4350 -0.2971
 9267TIP3   OH251995   4.063   0.183  10.940  0.4922  0.2631  0.0260
 9267TIP3    H151996   4.046   0.273  10.968  4.3281  0.7850  1.1854
 9267TIP3    H251997   4.123   0.191  10.865  1.4498 -1.2893  0.5624
 9268TIP3   OH251998   0.321   1.475  12.181 -0.2344  0.2015 -0.3144
 9268TIP3    H151999   0.380   1.528  12.127  0.5107 -0.2632  0.0289
 9268TIP3    H252000   0.322   1.389  12.141 -1.0169  0.2983 -0.5502
 9269TIP3   OH252001   4.719   7.515  12.423 -0.6101  0.1844 -0.0653
 9269TIP3    H152002   4.759   7.440  12.467 -0.9762  0.5551  0.9353
 9269TIP3    H252003   4.631   7.521  12.460 -0.5189  1.2254  0.0262
 9270TIP3   OH252004   1.240   5.367  11.976 -0.1023  0.2754 -0.2531
 9270TIP3    H152005   1.211   5.393  11.889 -0.7044 -1.3668 -0.5867
 9270TIP3    H252006   1.324   5.323  11.962 -0.6054 -0.7546 -0.1395
 9271TIP3   OH252007   1.727   6.332  11.200 -0.1896  0.3295  0.7974
 9271TIP3    H152008   1.748   6.404  11.259 -0.7050  1.3261 -0.1867
 9271TIP3    H252009   1.648   6.362  11.154 -0.3052 -0.7906  0.2481
 9272TIP3   OH252010   0.303   6.813  10.554 -0.3545 -0.0517 -0.2570
 9272TIP3    H152011   0.352   6.869  10.614 -1.9195  0.8658  0.2375
 9272TIP3    H252012   0.367   6.750  10.522  0.7135 -0.0810  1.7596
 9273TIP3   OH252013   5.572   6.703  10.987  0.5914  0.2880 -0.1990
 9273TIP3    H152014   5.666   6.686  10.977  0.3515 -0.0493 -2.2619
 9273TIP3    H252015   5.548   6.753  10.908 -1.2321 -0.8570 -0.4262
 9274TIP3   OH252016   2.987   6.742  13.577  0.2390  0.0627 -0.1106
 9274TIP3    H152017   3.007   6.719  13.668  1.6491 -1.1912 -0.7073
 9274TIP3    H252018   2.903   6.700  13.559 -0.4602  0.9797  0.8128
 9275TIP3   OH252019   3.389   5.560  11.537  0.1806 -0.2635  0.1670
 9275TIP3    H152020   3.321   5.493  11.541 -0.4257  0.1650 -1.9287
 9275TIP3    H252021   3.350   5.636  11.580  0.0553 -0.5768  0.6212
 9276TIP3   OH252022   7.680   5.662  12.015 -0.2685 -0.2325 -0.9454
 9276TIP3    H152023   7.600   5.685  11.967 -1.0184 -1.0830 -0.1360
 9276TIP3    H252024   7.665   5.695  12.103 -0.1125 -1.1575 -0.5578
 9277TIP3   OH252025   5.210   0.944  10.310  0.3047  0.0137 -0.3593
 9277TIP3    H152026   5.158   0.884  10.257 -0.7609  1.0586 -0.5534
 9277TIP3    H252027   5.154   1.022  10.319  0.8813  0.2578  1.4337
 9278TIP3   OH252028   1.089   1.941  11.424  0.0534 -0.4178 -0.1722
 9278TIP3    H152029   1.113   1.920  11.514 -2.0342  0.9493  0.7892
 9278TIP3    H252030   0.993   1.949  11.426  0.0404  0.7657 -2.2736
 9279TIP3   OH252031   3.188   0.384  11.165  0.0214 -0.1977 -0.2688
 9279TIP3    H152032   3.110   0.352  11.118 -0.0081  0.0778 -0.4125
 9279TIP3    H252033   3.244   0.419  11.096  0.7319 -1.3057 -0.2801
 9280TIP3   OH252034   2.256   0.940  12.258  0.0261 -0.4646  0.4056
 9280TIP3    H152035   2.201   0.867  12.229  0.8973 -1.3429  0.8899
 9280TIP3    H252036   2.333   0.936  12.201  0.1976 -0.0800  0.6063
 9281TIP3   OH252037   6.966   3.736  13.201 -0.2548  0.3965  0.0811
 9281TIP3    H152038   7.042   3.780  13.164 -0.3377  1.6841  1.3211
 9281TIP3    H252039   6.900   3.739  13.132  0.6894 -0.4304 -0.8822
 9282TIP3   OH252040   2.759   4.661  11.381 -0.5259  0.0616  0.1943
 9282TIP3    H152041   2.827   4.703  11.328 -1.6575  1.5140 -0.1314
 9282TIP3    H252042   2.726   4.590  11.325  0.2015 -0.1851  0.0671
 9283TIP3   OH252043   6.486   5.625  10.960 -0.2789 -0.5738  0.3911
 9283TIP3    H152044   6.497   5.542  10.913 -1.3121 -0.6515  0.2705
 9283TIP3    H252045   6.410   5.666  10.920  0.6908  0.8336 -0.0959
 9284TIP3   OH252046   0.476   4.328  11.265 -0.2777  0.5377  0.5351
 9284TIP3    H152047   0.549   4.268  11.248  0.7922  1.4075  1.7786
 9284TIP3    H252048   0.519   4.412  11.283 -1.6554  1.3068  0.3425
 9285TIP3   OH252049   6.936   6.489  10.977  0.3422  0.0973 -0.5231
 9285TIP3    H152050   6.915   6.578  11.007 -0.6804 -0.1411 -0.5141
 9285TIP3    H252051   6.892   6.481  10.893  0.2062 -0.4971 -0.3964
 9286TIP3   OH252052   2.222   1.756  12.454  0.2702 -0.5950  0.2664
 9286TIP3    H152053   2.176   1.742  12.536 -2.5825  0.2295 -1.0387
 9286TIP3    H252054   2.178   1.698  12.392  1.2297 -0.0004 -1.0202
 9287TIP3   OH252055   7.485   6.744  11.372 -0.3290  0.3171 -0.0382
 9287TIP3    H152056   7.496   6.824  11.321  2.1725 -1.2168 -2.1717
 9287TIP3    H252057   7.559   6.742  11.432 -1.0645  0.1724  0.8971
 9288TIP3   OH252058   2.406   1.470  12.696 -0.3626  0.7709 -0.1831
 9288TIP3    H152059   2.413   1.383  12.733 -0.4382  0.0147 -1.8301
 9288TIP3    H252060   2.396   1.528  12.771  0.2878 -0.5622  0.9742
 9289TIP3   OH252061   2.505   4.872  10.870 -0.1734  0.1099 -0.0140
 9289TIP3    H152062   2.587   4.828  10.851 -0.5461 -0.0717 -1.3243
 9289TIP3    H252063   2.474   4.832  10.951  1.1507  0.3736  0.6379
 9290TIP3   OH252064   6.075   6.061  12.188  0.4317  0.0452 -0.3740
 9290TIP3    H152065   6.040   6.133  12.240 -0.2814 -0.9513  0.5673
 9290TIP3    H252066   6.023   6.062  12.107  0.6356  0.7560 -0.5044
 9291TIP3   OH252067   5.723   3.428  11.743 -0.9766 -0.9909  0.3487
 9291TIP3    H152068   5.779   3.394  11.812 -0.6244 -1.6792 -0.2592
 9291TIP3    H252069   5.740   3.522  11.741 -1.1174 -0.9396  1.2959
 9292TIP3   OH252070   3.787   0.134  11.181 -0.2198 -0.1611 -0.1918
 9292TIP3    H152071   3.797   0.151  11.274 -0.2666 -1.2880  0.0221
 9292TIP3    H252072   3.845   0.198  11.139 -1.1667  1.2356  0.5282
 9293TIP3   OH252073   5.052   5.598  12.352  0.3088  0.3990  0.6693
 9293TIP3    H152074   5.076   5.688  12.333 -0.9686  0.3616 -1.4608
 9293TIP3    H252075   5.127   5.562  12.400  1.5143  2.1145  0.1394
 9294TIP3   OH252076   2.419   7.643  11.099  0.2307  0.2934  0.2287
 9294TIP3    H152077   2.360   7.717  11.115 -2.1407 -1.3342 -0.5072
 9294TIP3    H252078   2.450   7.655  11.010  1.4210  1.3589  0.7453
 9295TIP3   OH252079   2.569   3.985  11.622 -0.9617  0.0260  0.1098
 9295TIP3    H152080   2.591   3.903  11.579 -0.8299 -0.1800  0.5629
 9295TIP3    H252081   2.524   3.959  11.703 -1.8828  0.4172 -0.2545
 9296TIP3   OH252082   4.633   2.799  11.420 -0.4126 -0.0789  0.4791
 9296TIP3    H152083   4.595   2.870  11.471  1.0271 -0.1455  1.6982
 9296TIP3    H252084   4.728   2.811  11.429 -0.1018 -0.4540 -1.7021
 9297TIP3   OH252085   2.628   1.985  11.514 -0.0838  0.3224  0.2875
 9297TIP3    H152086   2.606   1.981  11.421  0.4608 -1.0142  0.1990
 9297TIP3    H252087   2.669   2.071  11.526 -2.8365  1.7974 -0.0741
 9298TIP3   OH252088   1.660   0.696  12.308 -0.2483  0.3337  0.0153
 9298TIP3    H152089   1.586   0.711  12.249  0.8894  2.6746 -0.9615
 9298TIP3    H252090   1.649   0.761  12.377 -0.1719 -0.6756  0.9991
 9299TIP3   OH252091   6.074   2.889  10.845  0.0466  0.4537  0.5032
 9299TIP3    H152092   6.028   2.971  10.829 -2.0361 -0.5452  1.0538
 9299TIP3    H252093   6.082   2.847  10.759 -1.8859 -0.2252  0.5978
 9300TIP3   OH252094   3.064   0.283  12.317  0.1740 -0.6085  0.0189
 9300TIP3    H152095   3.105   0.345  12.377  1.4636 -0.5692 -0.8573
 9300TIP3    H252096   3.005   0.232  12.372  0.2388  0.3784  1.0388
 9301TIP3   OH252097   4.554   7.539  11.700  0.2999  0.2718 -0.2742
 9301TIP3    H152098   4.554   7.444  11.717 -1.2039  0.4186  0.7568
 9301TIP3    H252099   4.553   7.545  11.604 -0.9761 -0.8110 -0.3661
 9302TIP3   OH252100   4.980   1.253  10.757  0.0451  0.7105  0.0646
 9302TIP3    H152101   4.907   1.198  10.787 -0.4126  0.8277 -0.8057
 9302TIP3    H252102   4.971   1.256  10.662  1.8153 -0.1396 -0.1680
 9303TIP3   OH252103   4.007   5.267  10.482 -0.8574 -0.3305  0.9313
 9303TIP3    H152104   3.970   5.352  10.505  0.4849  0.2680  0.9838
 9303TIP3    H252105   4.020   5.272  10.387 -0.5743 -0.3921  0.9669
 9304TIP3   OH252106   1.422   0.000  11.645 -0.1513 -0.0763  0.1671
 9304TIP3    H152107   1.328   0.008  11.661 -0.5858 -0.7961 -1.8034
 9304TIP3    H252108   1.461   0.069  11.699 -1.8672  0.7482  0.4187
 9305TIP3   OH252109   2.034   2.260  11.321  0.5127 -0.0544  0.0390
 9305TIP3    H152110   1.950   2.263  11.276 -0.3937  1.1726  1.7359
 9305TIP3    H252111   2.027   2.184  11.379  1.0019 -0.5534 -0.5257
 9306TIP3   OH252112   4.623   6.022  12.401  0.4783  0.6606  0.4272
 9306TIP3    H152113   4.586   5.962  12.465  1.2868 -0.3231  0.0023
 9306TIP3    H252114   4.607   6.109  12.438  0.5589  0.1375  1.7714
 9307TIP3   OH252115   2.239   3.512  12.906  0.4041  0.0963 -0.0306
 9307TIP3    H152116   2.144   3.522  12.916  0.3494  1.2647 -1.3345
 9307TIP3    H252117   2.254   3.418  12.913 -1.1237 -0.3228 -1.5983
 9308TIP3   OH252118   4.911   4.680  12.670  0.5562 -0.5240 -0.4292
 9308TIP3    H152119   4.927   4.705  12.761  0.3777 -0.4122 -0.4280
 9308TIP3    H252120   4.984   4.719  12.621  0.0011  0.4844 -0.5048
 9309TIP3   OH252121   7.326   5.770  10.609  0.1403 -0.0633  0.2571
 9309TIP3    H152122   7.254   5.757  10.671 -0.9114 -1.7082 -1.2316
 9309TIP3    H252123   7.313   5.859  10.576  0.7210  0.8488  2.3329
 9310TIP3   OH252124   6.951   0.197  13.112 -0.3562  0.3988  1.1579
 9310TIP3    H152125   6.860   0.222  13.097 -1.2323 -2.7789  0.3794
 9310TIP3    H252126   7.001   0.252  13.051 -2.3651 -1.3845 -2.4121
 9311TIP3   OH252127   0.856   4.468  11.142 -0.4368 -0.5783 -0.0355
 9311TIP3    H152128   0.825   4.466  11.051  0.3541  0.9799 -0.3612
 9311TIP3    H252129   0.951   4.460  11.135 -0.0263  2.7773  0.3877
 9312TIP3   OH252130   5.033   2.918  12.748 -0.0301  0.0790  0.6048
 9312TIP3    H152131   5.007   2.856  12.815 -0.2493  1.2843  1.6890
 9312TIP3    H252132   4.951   2.961  12.722  0.2663  0.7799  0.7986
 9313TIP3   OH252133   5.430   6.605  12.321 -0.2556  0.0351  0.0473
 9313TIP3    H152134   5.362   6.635  12.260 -0.1945  0.3698  0.1438
 9313TIP3    H252135   5.477   6.537  12.272 -0.8257 -0.3887  0.0739
 9314TIP3   OH252136   1.555   7.060  12.731  0.3557  0.4335 -0.1179
 9314TIP3    H152137   1.570   7.143  12.688  0.7310 -0.0781 -0.9966
 9314TIP3    H252138   1.609   6.997  12.683  0.6271 -0.1965  0.9647
 9315TIP3   OH252139   6.884   1.366  10.495 -0.2081 -0.2920 -0.0568
 9315TIP3    H152140   6.859   1.456  10.516 -0.0917 -0.0230 -1.0393
 9315TIP3    H252141   6.802   1.318  10.495 -0.6359  0.3474 -2.0791
 9316TIP3   OH252142   3.241   2.190  12.484 -0.2185 -0.0071 -0.0529
 9316TIP3    H152143   3.252   2.095  12.482 -0.0160  0.0187 -0.1696
 9316TIP3    H252144   3.147   2.203  12.474 -0.0968 -0.1562 -1.7169
 9317TIP3   OH252145   6.148   3.591  11.291  0.0392 -0.0245 -0.4929
 9317TIP3    H152146   6.204   3.656  11.247 -0.0251  0.1331 -0.3440
 9317TIP3    H252147   6.082   3.568  11.226  0.2753 -0.2080 -0.6685
 9318TIP3   OH252148   2.738   0.638  12.068 -0.6403 -0.3346  0.2973
 9318TIP3    H152149   2.807   0.579  12.098 -0.3150  0.3091  0.8516
 9318TIP3    H252150   2.659   0.609  12.113 -0.2055  0.4767  1.6368
 9319TIP3   OH252151   5.191   4.598  12.351 -0.3281 -0.1816  0.2878
 9319TIP3    H152152   5.197   4.688  12.385 -0.0155 -0.0088 -0.2284
 9319TIP3    H252153   5.102   4.571  12.374  0.6116 -1.0078  3.5532
 9320TIP3   OH252154   3.734   5.754  10.311  0.0563  0.3611 -0.6513
 9320TIP3    H152155   3.666   5.770  10.377 -0.1773 -3.3230  0.1865
 9320TIP3    H252156   3.805   5.814  10.335 -0.7468  0.4211  1.8620
 9321TIP3   OH252157   1.750   7.312  11.510  0.2322  0.8846 -0.6637
 9321TIP3    H152158   1.788   7.395  11.481  1.6112 -0.0458 -1.6725
 9321TIP3    H252159   1.819   7.271  11.562 -0.0285 -0.0840 -1.0556
 9322TIP3   OH252160   0.012   7.179  13.111 -0.2540  0.1922 -0.1875
 9322TIP3    H152161  -0.081   7.187  13.135 -0.2536 -1.1301  0.3615
 9322TIP3    H252162   0.018   7.094  13.067  0.9618 -0.5265  1.2631
 9323TIP3   OH252163   4.021   5.824  11.456  0.7996  0.5550 -0.2763
 9323TIP3    H152164   3.957   5.884  11.493  0.3384 -0.1514  0.0977
 9323TIP3    H252165   4.038   5.761  11.526  1.0679  0.0968 -0.7463
 9324TIP3   OH252166   2.634   6.288  13.213  0.1868  0.4832  0.1100
 9324TIP3    H152167   2.723   6.291  13.177 -0.5712  0.5344 -1.9155
 9324TIP3    H252168   2.580   6.258  13.139 -1.4682  0.3555  1.3249
 9325TIP3   OH252169   1.541   0.709  11.641  0.4810 -0.0796  0.0069
 9325TIP3    H152170   1.577   0.732  11.555 -0.2001 -1.1354 -0.5975
 9325TIP3    H252171   1.541   0.790  11.690  0.1782  0.7233 -1.2676
 9326TIP3   OH252172   0.079   4.601  11.213 -0.2564  0.4332  0.6036
 9326TIP3    H152173   0.155   4.589  11.270 -0.7247  2.8837  1.8783
 9326TIP3    H252174   0.114   4.598  11.124  0.8705 -1.0653  1.0554
 9327TIP3   OH252175   5.792   3.041  12.271 -0.7828  0.0551  0.5225
 9327TIP3    H152176   5.846   2.985  12.215 -1.3253 -0.4971  0.5468
 9327TIP3    H252177   5.702   3.018  12.248 -1.2246  3.7769 -2.5199
 9328TIP3   OH252178   0.475   6.548  11.951  0.0409  0.2014  0.4072
 9328TIP3    H152179   0.480   6.454  11.971  0.1196  0.8191  4.1096
 9328TIP3    H252180   0.382   6.563  11.931  0.0251 -0.6401 -0.1918
 9329TIP3   OH252181   1.432   6.229  12.637 -0.0893 -0.6872 -0.2466
 9329TIP3    H152182   1.449   6.319  12.610  1.1685 -1.2035 -1.3087
 9329TIP3    H252183   1.517   6.198  12.670 -0.3511 -1.6407 -0.4315
 9330TIP3   OH252184   7.437   1.023  12.120 -0.2937 -0.2580 -0.3866
 9330TIP3    H152185   7.385   0.951  12.086 -1.3409  0.1959  0.2139
 9330TIP3    H252186   7.427   1.018  12.215  0.1411  0.2946 -0.3043
 9331TIP3   OH252187   2.803   2.681  10.985 -0.7418  0.1534 -0.1249
 9331TIP3    H152188   2.789   2.672  10.891  2.2697  1.8826 -0.8623
 9331TIP3    H252189   2.766   2.766  11.007  0.8535  0.9490 -0.3631
 9332TIP3   OH252190   0.902   3.190  10.843  0.1977 -0.1542  0.5341
 9332TIP3    H152191   0.960   3.156  10.774  1.7112 -0.1923  1.7759
 9332TIP3    H252192   0.942   3.274  10.867 -0.3967 -0.0809  1.2768
 9333TIP3   OH252193   1.894   0.655  10.444  0.0871  0.3845 -0.0363
 9333TIP3    H152194   1.935   0.740  10.430  2.8448 -1.1266 -2.2566
 9333TIP3    H252195   1.967   0.597  10.467 -1.0772 -2.0617 -1.9848
 9334TIP3   OH252196   1.168   5.333  11.073  0.5350  0.1683 -0.5901
 9334TIP3    H152197   1.257   5.301  11.089  0.7058  0.6074 -0.6338
 9334TIP3    H252198   1.115   5.294  11.142  0.5018 -1.1916 -1.3662
 9335TIP3   OH252199   4.601   2.795  12.227  0.6340  0.5286 -0.5064
 9335TIP3    H152200   4.538   2.835  12.287  0.6141 -0.7639  0.3960
 9335TIP3    H252201   4.685   2.806  12.271  0.5674 -0.7875 -0.0038
 9336TIP3   OH252202   6.450   4.308  10.936  0.3256  0.7642 -0.0530
 9336TIP3    H152203   6.490   4.286  11.021  2.0843  2.3553 -0.4009
 9336TIP3    H252204   6.439   4.403  10.939  1.4402  0.9948 -1.9926
 9337TIP3   OH252205   5.638   3.258  11.276  0.1764 -0.2933 -0.0688
 9337TIP3    H152206   5.701   3.190  11.255 -0.2222 -0.9698  0.8385
 9337TIP3    H252207   5.635   3.259  11.372  0.2351  1.0647 -0.0601
 9338TIP3   OH252208   3.615   0.035  12.498 -0.0724  0.2454 -0.3522
 9338TIP3    H152209   3.565   0.045  12.580 -1.0802 -0.0103 -0.9162
 9338TIP3    H252210   3.702   0.069  12.519 -0.5967  1.0948  0.5479
 9339TIP3   OH252211   3.777   1.482  11.806  0.6081 -0.5891 -0.1700
 9339TIP3    H152212   3.731   1.500  11.724  0.7601 -0.9828 -0.3461
 9339TIP3    H252213   3.763   1.388  11.821  0.5025 -0.5024  0.3052
 9340TIP3   OH252214   0.134   6.383  12.265  0.0397 -0.1852  0.0511
 9340TIP3    H152215   0.217   6.407  12.306 -0.3230  1.3934 -0.0764
 9340TIP3    H252216   0.068   6.437  12.309 -0.6530 -0.0622 -1.0760
 9341TIP3   OH252217   4.943   2.656  12.089 -0.5127 -0.0411  0.9006
 9341TIP3    H152218   4.854   2.660  12.053 -0.0665  1.3738 -0.1189
 9341TIP3    H252219   4.990   2.599  12.029 -0.3915  0.3133  0.6583
 9342TIP3   OH252220   1.728   4.893  10.780 -0.4136  0.1675 -0.4549
 9342TIP3    H152221   1.639   4.920  10.805 -0.6552 -0.0931 -1.0008
 9342TIP3    H252222   1.724   4.797  10.780 -0.1754  0.1569 -0.6337
 9343TIP3   OH252223   3.057   5.682  11.551  0.0762  0.2023  0.2741
 9343TIP3    H152224   3.140   5.730  11.549 -1.1670  2.5789  1.2752
 9343TIP3    H252225   3.002   5.725  11.486 -0.6302 -0.8354  0.1606
 9344TIP3   OH252226   5.144   6.969  11.209 -0.0664 -0.0980 -0.1003
 9344TIP3    H152227   5.228   6.927  11.225 -0.0937 -0.5766 -1.1383
 9344TIP3    H252228   5.126   6.953  11.117 -1.0610  0.4336 -0.0162
 9345TIP3   OH252229   7.066   7.129  10.381 -0.2905  0.0818 -0.5171
 9345TIP3    H152230   7.126   7.178  10.324  2.8343 -1.0983  1.4546
 9345TIP3    H252231   7.102   7.041  10.383 -1.1502 -0.2931  2.0305
 9346TIP3   OH252232   0.622   6.292  13.020  0.6770  0.1481 -0.0852
 9346TIP3    H152233   0.534   6.276  13.056  0.3918  0.3290 -0.7015
 9346TIP3    H252234   0.618   6.381  12.986  1.3708  0.4803  0.6593
 9347TIP3   OH252235   5.814   1.282  11.858 -0.3831 -1.1130  0.1684
 9347TIP3    H152236   5.772   1.199  11.880 -3.1018  0.6649  2.3675
 9347TIP3    H252237   5.874   1.298  11.932 -0.8939 -0.5201  0.4633
 9348TIP3   OH252238   6.738   0.457  12.503  0.2879 -0.2784  0.2306
 9348TIP3    H152239   6.823   0.474  12.544 -0.2088 -0.1926  1.2398
 9348TIP3    H252240   6.740   0.507  12.422  1.3328 -0.5454  0.0752
 9349TIP3   OH252241   4.899   4.212  11.148 -0.3565  1.0067 -0.7309
 9349TIP3    H152242   4.861   4.300  11.143 -2.2168  0.2419 -1.0619
 9349TIP3    H252243   4.975   4.214  11.090  0.4392  2.7462  0.3023
 9350TIP3   OH252244   0.109   7.224  12.517  0.2466  0.2202  0.1609
 9350TIP3    H152245   0.080   7.238  12.607  0.1109  0.9333  0.0087
 9350TIP3    H252246   0.133   7.131  12.514  0.2623  0.1934  0.9325
 9351TIP3   OH252247   6.831   3.038  11.575  0.4215 -0.3042  0.0945
 9351TIP3    H152248   6.744   3.069  11.549  0.2360 -1.2925 -0.5348
 9351TIP3    H252249   6.815   2.985  11.653  0.6744  0.7545  0.8865
 9352TIP3   OH252250   1.116   5.507  10.430  0.2658  0.0361  0.1076
 9352TIP3    H152251   1.126   5.418  10.463  0.5878  0.3537  0.8853
 9352TIP3    H252252   1.198   5.524  10.383 -0.2382 -0.4557 -0.9756
 9353TIP3   OH252253   1.962   0.986  11.924  0.0582 -0.3819 -0.4062
 9353TIP3    H152254   2.008   0.903  11.925  0.4538 -0.1769 -0.9573
 9353TIP3    H252255   2.031   1.052  11.922 -0.1693  0.0724  2.4250
 9354TIP3   OH252256   3.747   6.432  12.107 -0.5451  0.3454 -0.2713
 9354TIP3    H152257   3.758   6.462  12.017  0.8831 -0.8417 -0.5379
 9354TIP3    H252258   3.778   6.504  12.162  1.5238 -0.0598 -0.8428
 9355TIP3   OH252259   0.957   6.831  12.412 -0.5239 -0.3432 -0.4357
 9355TIP3    H152260   1.038   6.785  12.393 -0.3804 -0.9021  1.3225
 9355TIP3    H252261   0.913   6.776  12.477 -0.4055  1.8710  1.6894
 9356TIP3   OH252262   2.268   1.137  11.091  0.2123 -0.5482  0.4043
 9356TIP3    H152263   2.216   1.152  11.012  1.0021 -2.3595 -0.5180
 9356TIP3    H252264   2.358   1.130  11.059  0.7335  0.1266  1.6679
 9357TIP3   OH252265   2.076   6.407  12.300  0.2471 -0.3032  0.1343
 9357TIP3    H152266   2.097   6.478  12.239 -0.5326 -0.7048 -0.6120
 9357TIP3    H252267   1.998   6.366  12.264 -0.3453 -0.4341  1.5159
 9358TIP3   OH252268   0.539   3.599  11.104  0.3093 -0.3880 -0.8534
 9358TIP3    H152269   0.621   3.578  11.147 -0.3992 -1.1095  0.2019
 9358TIP3    H252270   0.539   3.544  11.025  1.3542  0.5074 -1.5008
 9359TIP3   OH252271   0.494   1.057  13.322  0.0744  0.1332  0.2174
 9359TIP3    H152272   0.530   1.134  13.368 -1.1247  0.0749  1.3414
 9359TIP3    H252273   0.399   1.073  13.322 -0.0481 -0.4979 -1.1644
 9360TIP3   OH252274   4.843   4.354  12.673 -0.4214 -0.1006  0.3736
 9360TIP3    H152275   4.763   4.325  12.629 -0.2838 -1.3395  0.8919
 9360TIP3    H252276   4.813   4.399  12.752 -0.6143 -0.3186  0.4251
 9361TIP3   OH252277   5.028   7.499  12.327  0.1545  0.4837 -0.1990
 9361TIP3    H152278   4.953   7.547  12.289 -0.8030 -1.0134 -0.2626
 9361TIP3    H252279   5.086   7.483  12.252 -1.4603 -1.9647 -1.0445
 9362TIP3   OH252280   2.997   3.520  11.395  0.1076 -0.1654 -0.1564
 9362TIP3    H152281   3.092   3.515  11.390  0.2532 -2.5348  2.3461
 9362TIP3    H252282   2.979   3.550  11.483 -1.5548  2.1009 -1.1758
 9363TIP3   OH252283   4.022   7.512  10.700 -0.3474  0.0258 -0.4210
 9363TIP3    H152284   3.972   7.581  10.657 -0.4934  0.9603  1.1923
 9363TIP3    H252285   3.989   7.510  10.789 -1.0765 -2.8489 -0.6498
 9364TIP3   OH252286   4.790   2.414  11.883  1.2618  0.0909 -0.0320
 9364TIP3    H152287   4.728   2.485  11.896  1.4595  0.1911  0.3896
 9364TIP3    H252288   4.871   2.458  11.857  1.4602  0.0451  0.4923
 9365TIP3   OH252289   1.200   3.503  11.924  0.0904  0.1639  0.1227
 9365TIP3    H152290   1.153   3.545  11.996  0.6956 -0.3304  0.8119
 9365TIP3    H252291   1.130   3.467  11.869 -0.3650 -1.3427  1.6033
 9366TIP3   OH252292   0.160   1.809  11.411 -0.8771 -0.4704 -0.4944
 9366TIP3    H152293   0.133   1.900  11.404 -0.1804 -0.0259  1.6970
 9366TIP3    H252294   0.170   1.794  11.505  1.8279 -1.9360 -0.9002
 9367TIP3   OH252295   4.727   2.127  10.756  0.1596 -0.2842  0.3820
 9367TIP3    H152296   4.822   2.127  10.768  0.4910  1.4174 -1.7062
 9367TIP3    H252297   4.698   2.213  10.786 -0.6140 -0.4946  0.2764
 9368TIP3   OH252298   1.951   2.939  11.417 -0.2290 -0.5064 -0.3147
 9368TIP3    H152299   1.897   2.861  11.434 -0.1521 -0.5796 -0.4059
 9368TIP3    H252300   2.015   2.940  11.488 -0.7790 -0.0364  0.1865
 9369TIP3   OH252301   7.119   1.398  11.971  0.1122 -0.2149 -0.0770
 9369TIP3    H152302   7.127   1.441  11.886  1.1286  0.0639  0.1486
 9369TIP3    H252303   7.173   1.319  11.964  0.8158  0.1965  0.5452
 9370TIP3   OH252304   6.073   2.390  12.617 -0.1477 -0.0732 -0.0146
 9370TIP3    H152305   6.139   2.457  12.635 -1.8504  1.8609 -0.5368
 9370TIP3    H252306   6.076   2.378  12.522 -0.5300  0.0201 -0.0408
 9371TIP3   OH252307   0.314   6.734  10.220  0.4524  0.4501  0.2353
 9371TIP3    H152308   0.331   6.693  10.135 -2.0246 -0.3905  0.0449
 9371TIP3    H252309   0.292   6.661  10.278 -1.2414  1.2330  0.6506
 9372TIP3   OH252310   6.348   6.440  12.316 -0.5312  0.3749 -0.1547
 9372TIP3    H152311   6.287   6.511  12.336 -0.2897  0.6988 -0.5717
 9372TIP3    H252312   6.380   6.459  12.228 -0.0242  0.0652 -0.0412
 9373TIP3   OH252313   3.956   6.452  11.054  0.4926  0.0495  0.1572
 9373TIP3    H152314   4.001   6.423  11.133  2.6381 -0.1809 -1.0752
 9373TIP3    H252315   3.931   6.542  11.073  1.4663  0.1826  0.8979
 9374TIP3   OH252316   6.619   2.991  12.424 -0.1785 -0.5298  0.0806
 9374TIP3    H152317   6.614   2.933  12.349 -0.9182  1.0826 -1.1885
 9374TIP3    H252318   6.530   2.995  12.458 -0.1707 -0.0397  0.0567
 9375TIP3   OH252319   2.872   1.819  11.878  0.1305 -0.4757  0.3448
 9375TIP3    H152320   2.864   1.830  11.783 -0.4500 -0.8124  0.3487
 9375TIP3    H252321   2.964   1.837  11.897  0.1941 -0.1549 -0.2466
 9376TIP3   OH252322   6.652   1.158  10.415  0.1388  0.3004  0.0123
 9376TIP3    H152323   6.610   1.231  10.371 -0.7318  0.2756  0.7727
 9376TIP3    H252324   6.598   1.082  10.392  0.6792 -0.0137 -0.2654
 9377TIP3   OH252325   2.937   3.553  10.834 -0.5849 -0.0815 -0.5410
 9377TIP3    H152326   2.937   3.643  10.867 -0.8225  0.4611 -1.9649
 9377TIP3    H252327   2.889   3.504  10.900 -1.1322  0.9884 -0.1153
 9378TIP3   OH252328   4.916   5.782  11.873 -0.4170 -0.3059  0.4020
 9378TIP3    H152329   4.976   5.845  11.835 -0.7833  0.2955  0.8061
 9378TIP3    H252330   4.846   5.773  11.807  0.3502 -1.4001 -0.3034
 9379TIP3   OH252331   6.962   4.514  12.387  0.0880 -0.0440  0.2558
 9379TIP3    H152332   6.900   4.585  12.404 -0.1750 -0.3724  0.6944
 9379TIP3    H252333   7.022   4.549  12.321 -0.1487  0.5188  0.3388
 9380TIP3   OH252334   4.353   2.242  11.924  0.0932  0.0419 -0.1676
 9380TIP3    H152335   4.264   2.238  11.890  1.1219 -0.5682 -3.1750
 9380TIP3    H252336   4.343   2.252  12.018 -3.1512 -2.4904 -0.0579
 9381TIP3   OH252337   6.767   5.207  13.224 -0.1949  0.0746  0.6696
 9381TIP3    H152338   6.854   5.245  13.226  1.2463 -2.6571 -1.8648
 9381TIP3    H252339   6.724   5.250  13.150 -0.6710  0.7041  1.2979
 9382TIP3   OH252340   0.297   2.159  12.017  0.2196 -0.2169 -0.8189
 9382TIP3    H152341   0.392   2.149  12.030  0.5160  0.7927 -2.0106
 9382TIP3    H252342   0.258   2.125  12.098  1.6856  0.8206  0.3911
 9383TIP3   OH252343   6.159   4.410  10.746 -0.6628 -1.1099  0.2641
 9383TIP3    H152344   6.188   4.350  10.677 -0.3786 -0.4143 -0.2352
 9383TIP3    H252345   6.098   4.359  10.799 -0.6971 -1.7242 -0.3626
 9384TIP3   OH252346   7.539   5.810  12.774  0.1036  0.4165  0.1111
 9384TIP3    H152347   7.488   5.879  12.816 -2.3204 -0.7004 -0.8217
 9384TIP3    H252348   7.504   5.728  12.810  1.0488 -0.4165 -0.7772
 9385TIP3   OH252349   2.020   2.604  12.601 -0.3300  0.7134  0.6969
 9385TIP3    H152350   2.032   2.681  12.545 -1.1497  0.8492  0.7056
 9385TIP3    H252351   1.960   2.548  12.552  0.3992 -0.0199  0.6043
 9386TIP3   OH252352   6.608   7.385  11.823  0.4180  0.4736 -0.3649
 9386TIP3    H152353   6.676   7.380  11.757 -0.1817 -0.9905 -0.8983
 9386TIP3    H252354   6.631   7.318  11.887  0.7972  1.6311  0.7569
 9387TIP3   OH252355   6.730   6.024  12.518  0.2359 -0.0619 -0.0839
 9387TIP3    H152356   6.686   6.062  12.594 -0.0994 -0.5003 -0.0569
 9387TIP3    H252357   6.754   6.100  12.465 -2.4118  0.1669 -1.1321
 9388TIP3   OH252358   5.290   4.470  12.620  0.6044  0.1449  0.0267
 9388TIP3    H152359   5.238   4.392  12.601  3.0832 -1.8553  0.8373
 9388TIP3    H252360   5.373   4.455  12.574  1.4682  1.8871  0.9331
 9389TIP3   OH252361   0.334   5.165  10.991 -0.3219  0.0291 -0.5701
 9389TIP3    H152362   0.372   5.234  11.045 -0.7018 -1.5873  1.9030
 9389TIP3    H252363   0.239   5.182  10.995 -0.3938 -0.4299 -0.1995
 9390TIP3   OH252364   0.127   7.672  10.352  0.6029  0.3107 -0.2569
 9390TIP3    H152365   0.214   7.691  10.389  0.9223  3.6918 -2.3098
 9390TIP3    H252366   0.136   7.585  10.314  2.5505 -0.1142  1.0099
 9391TIP3   OH252367   6.695   4.612  11.999  0.5509 -0.0618  0.5431
 9391TIP3    H152368   6.603   4.588  11.996  1.0631 -2.0912 -1.5005
 9391TIP3    H252369   6.695   4.705  12.023 -2.0376  0.1836 -0.1583
 9392TIP3   OH252370   6.117   2.049  11.725 -0.5275 -0.6822  0.0983
 9392TIP3    H152371   6.166   2.132  11.722 -1.0444 -0.3823 -0.3370
 9392TIP3    H252372   6.116   2.020  11.634 -0.1778 -1.2771  0.2807
 9393TIP3   OH252373   2.778   5.653  11.962 -0.3268 -0.5790 -0.0630
 9393TIP3    H152374   2.852   5.596  11.940 -1.0724 -1.8469  0.6059
 9393TIP3    H252375   2.813   5.742  11.954  2.6433 -1.0034  4.3784
 9394TIP3   OH252376   1.555   5.287  10.837 -0.0607 -0.3786 -0.3629
 9394TIP3    H152377   1.540   5.312  10.746 -1.4400 -0.4528 -0.1840
 9394TIP3    H252378   1.553   5.191  10.835  2.0251 -0.4620 -0.5534
 9395TIP3   OH252379   3.983   4.277  13.067  0.2963  0.2864  0.6033
 9395TIP3    H152380   4.038   4.339  13.114  1.6501  0.1758 -0.7533
 9395TIP3    H252381   3.897   4.319  13.062  0.3867  0.7117  2.2705
 9396TIP3   OH252382   6.078   5.932  11.544 -0.0210 -0.3518  0.2969
 9396TIP3    H152383   6.070   5.877  11.466  3.2883  1.6346 -1.6958
 9396TIP3    H252384   6.112   5.873  11.612 -1.5333 -1.7983 -0.1366
 9397TIP3   OH252385   6.584   7.120  12.893 -0.3809 -0.2189 -0.3233
 9397TIP3    H152386   6.633   7.067  12.956 -0.8108 -1.0263 -0.6563
 9397TIP3    H252387   6.651   7.163  12.840 -0.0043 -1.6926 -1.0907
 9398TIP3   OH252388   3.284   6.353  12.252 -0.3564 -0.2694  0.7006
 9398TIP3    H152389   3.198   6.313  12.238 -0.2615 -0.2681  0.0796
 9398TIP3    H252390   3.284   6.379  12.344 -0.3055 -1.9735  1.2185
 9399TIP3   OH252391   0.990   4.502  13.200  0.6307  0.0766 -0.2003
 9399TIP3    H152392   1.060   4.470  13.258 -0.3015 -0.8405  0.4754
 9399TIP3    H252393   0.934   4.426  13.188 -0.6190  0.9669 -0.1626
 9400TIP3   OH252394   6.116   7.186  10.876 -0.1266 -0.2710  0.4233
 9400TIP3    H152395   6.039   7.151  10.920  0.4505 -4.2912 -1.2871
 9400TIP3    H252396   6.094   7.183  10.783  1.2399  0.8874  0.0215
 9401TIP3   OH252397   6.590   5.226  12.109  0.3242  0.8469 -0.1904
 9401TIP3    H152398   6.587   5.130  12.113 -1.8539  0.9277  2.2491
 9401TIP3    H252399   6.565   5.246  12.018  0.4275 -0.8622 -0.6371
 9402TIP3   OH252400   6.469   4.658  12.536 -0.2197 -0.8041  0.7473
 9402TIP3    H152401   6.517   4.741  12.531  1.0772 -1.5506  0.3210
 9402TIP3    H252402   6.525   4.601  12.588 -1.0212 -1.4669  0.9051
 9403TIP3   OH252403   6.089   4.174  12.857  0.3915 -0.5579 -0.0950
 9403TIP3    H152404   6.002   4.185  12.896  1.1812 -1.5556  2.1145
 9403TIP3    H252405   6.118   4.264  12.840 -0.7426 -0.1711 -0.0972
 9404TIP3   OH252406   1.370   6.222  10.386 -0.2448  0.2681 -0.0687
 9404TIP3    H152407   1.335   6.133  10.384 -1.8492  0.8693 -0.2261
 9404TIP3    H252408   1.460   6.213  10.356 -0.7587 -1.1521 -1.3126
 9405TIP3   OH252409   7.067   7.207  10.664 -0.3579  0.2475  0.0609
 9405TIP3    H152410   7.048   7.299  10.684 -1.4251  0.1049 -0.2544
 9405TIP3    H252411   7.068   7.203  10.569 -0.2285 -0.0520  0.0763
 9406TIP3   OH252412   3.728   1.785  11.537  0.0978 -1.0219 -0.3881
 9406TIP3    H152413   3.663   1.732  11.491  1.2438 -1.0400 -2.0453
 9406TIP3    H252414   3.685   1.871  11.548 -0.5905 -1.3433 -0.4875
 9407TIP3   OH252415   2.163   2.932  12.074  0.2511 -0.4445 -0.2781
 9407TIP3    H152416   2.178   2.919  11.981  0.8016  1.3332 -0.4773
 9407TIP3    H252417   2.231   2.879  12.117  0.3992 -0.7674 -0.9048
 9408TIP3   OH252418   2.861   1.857  13.223 -0.4113 -0.6614  0.1130
 9408TIP3    H152419   2.800   1.900  13.283  0.4279 -0.5931  0.9402
 9408TIP3    H252420   2.822   1.771  13.208 -0.6413 -0.6772  0.7536
 9409TIP3   OH252421   6.578   0.413  10.444 -0.1299 -0.4317  0.1219
 9409TIP3    H152422   6.586   0.392  10.537  3.4933 -0.2996 -0.0151
 9409TIP3    H252423   6.569   0.328  10.401  2.2354 -0.9150  0.4214
 9410TIP3   OH252424   3.392   4.661  11.927 -0.5412 -0.2229  0.1383
 9410TIP3    H152425   3.321   4.644  11.865 -0.8001  0.0983  0.3487
 9410TIP3    H252426   3.460   4.598  11.902 -1.2008 -1.0820  0.4323
 9411TIP3   OH252427   6.760   6.058  11.449 -0.2547 -0.1320  0.1496
 9411TIP3    H152428   6.834   5.997  11.441 -0.3508 -0.1365 -0.8684
 9411TIP3    H252429   6.714   6.029  11.528  0.2798 -0.7385  0.2499
 9412TIP3   OH252430   0.006   5.153  10.437 -0.0220  0.0610  0.3190
 9412TIP3    H152431  -0.018   5.061  10.444 -2.2840  0.6439  1.1399
 9412TIP3    H252432  -0.050   5.188  10.368  0.4733  0.9246  0.3348
 9413TIP3   OH252433   0.115   1.903  10.728 -0.3819  0.3766  0.7392
 9413TIP3    H152434   0.054   1.839  10.693 -2.1344  1.8981  0.8848
 9413TIP3    H252435   0.131   1.963  10.656  1.8760 -0.5610  0.3522
 9414TIP3   OH252436   2.408   2.794  12.257  0.5033  0.1921 -0.1111
 9414TIP3    H152437   2.339   2.735  12.228 -0.1092  0.6527  0.3774
 9414TIP3    H252438   2.422   2.770  12.349  1.2963 -0.1783 -0.3182
 9415TIP3   OH252439   4.584   0.293  12.613  0.8348  0.2591 -0.1323
 9415TIP3    H152440   4.606   0.351  12.686  0.8605  1.0367 -0.7318
 9415TIP3    H252441   4.599   0.205  12.646 -1.6005  0.4128  1.6565
 9416TIP3   OH252442   1.746   6.487  10.888 -0.1813  0.1142  0.4227
 9416TIP3    H152443   1.723   6.576  10.915 -1.6869 -0.0812 -0.1370
 9416TIP3    H252444   1.842   6.486  10.888 -0.1412  1.6820  0.5832
 9417TIP3   OH252445   2.328   5.285  12.492  0.3135 -0.0064 -0.9524
 9417TIP3    H152446   2.265   5.304  12.422  1.8025 -0.2344 -2.4187
 9417TIP3    H252447   2.309   5.194  12.516 -0.4754  0.1987 -0.7479
 9418TIP3   OH252448   5.642   5.501  12.063 -0.1419 -0.0326 -0.3103
 9418TIP3    H152449   5.573   5.544  12.115 -2.1439 -0.4009 -2.5038
 9418TIP3    H252450   5.598   5.426  12.023  2.0811 -1.4063 -0.2966
 9419TIP3   OH252451   1.772   2.229  11.246  0.2461  0.1392 -0.0837
 9419TIP3    H152452   1.763   2.145  11.292 -0.7878  0.1318 -0.2888
 9419TIP3    H252453   1.714   2.222  11.171  1.3354  0.4522 -0.9869
 9420TIP3   OH252454   1.866   0.546  11.563 -0.2385 -0.2703 -0.5600
 9420TIP3    H152455   1.872   0.451  11.551  1.1654 -0.1597 -0.8970
 9420TIP3    H252456   1.863   0.558  11.658  1.8084 -0.5861 -0.4033
 9421TIP3   OH252457   6.306   3.659  10.983  0.1796 -0.0744  0.6172
 9421TIP3    H152458   6.219   3.693  11.005  0.0891  0.7051 -0.8058
 9421TIP3    H252459   6.367   3.724  11.018  0.2046 -0.5882  1.5573
 9422TIP3   OH252460   0.235   0.755  12.305  0.5585  0.0965 -0.2210
 9422TIP3    H152461   0.150   0.799  12.310 -0.1632 -0.9958 -1.9900
 9422TIP3    H252462   0.290   0.802  12.368 -0.8762  1.8925 -0.2274
 9423TIP3   OH252463   1.891   6.798  11.771  0.0975  0.2270  0.0034
 9423TIP3    H152464   1.878   6.869  11.834 -0.3500  1.3200 -1.2629
 9423TIP3    H252465   1.850   6.721  11.812  2.6787  0.0073  2.5016
 9424TIP3   OH252466   4.841   3.627  11.088 -0.6038  0.1757 -0.3058
 9424TIP3    H152467   4.858   3.711  11.131 -1.2893  0.0385  0.2600
 9424TIP3    H252468   4.912   3.617  11.025  0.6238  0.2303  1.0255
 9425TIP3   OH252469   2.049   4.186  12.573  0.7029  0.3145 -0.0264
 9425TIP3    H152470   2.082   4.147  12.492  0.9335  0.3077  0.0694
 9425TIP3    H252471   2.107   4.152  12.641  0.7441  0.6242  0.0911
 9426TIP3   OH252472   1.323   1.056  12.549  0.0932  0.3094  0.1537
 9426TIP3    H152473   1.391   1.110  12.587 -0.4074  1.9469 -1.1323
 9426TIP3    H252474   1.280   1.014  12.623  2.3109 -0.5838  0.9947
 9427TIP3   OH252475   4.936   3.871  11.235  0.5244 -0.4170  0.5807
 9427TIP3    H152476   4.848   3.871  11.273 -0.9464  0.1258 -2.5688
 9427TIP3    H252477   4.956   3.963  11.220 -0.0563 -0.6511 -2.1241
 9428TIP3   OH252478   0.289   6.124  11.393 -0.0298 -0.1107  0.0269
 9428TIP3    H152479   0.293   6.061  11.465  0.7137 -1.3040 -1.0185
 9428TIP3    H252480   0.347   6.088  11.327 -1.4618  0.4295 -1.5965
 9429TIP3   OH252481   6.323   2.591  11.604  0.7800 -0.0544  0.0657
 9429TIP3    H152482   6.330   2.502  11.641  0.8259 -0.5450 -1.0708
 9429TIP3    H252483   6.311   2.576  11.511  2.0551  1.1649 -0.3205
 9430TIP3   OH252484   6.824   7.146  10.794  0.2652 -0.1819 -0.6584
 9430TIP3    H152485   6.910   7.144  10.753  0.7819  1.3691  0.2692
 9430TIP3    H252486   6.804   7.239  10.803 -0.2986 -0.4538  1.6006
 9431TIP3   OH252487   6.820   7.389  12.270  0.6397  0.1006  0.0269
 9431TIP3    H152488   6.778   7.469  12.301  0.3445  0.0276 -0.1850
 9431TIP3    H252489   6.754   7.346  12.215  1.4873  0.7429 -1.5708
 9432TIP3   OH252490   2.885   0.017  11.290 -0.4396  0.4224  0.0079
 9432TIP3    H152491   2.973  -0.019  11.277 -0.4213 -0.0516  1.2573
 9432TIP3    H252492   2.831  -0.058  11.313 -1.1163  0.7501 -0.4746
 9433TIP3   OH252493   0.822   3.914  11.333  0.2124  0.0825 -0.1546
 9433TIP3    H152494   0.790   3.837  11.379  2.6211 -2.4656 -2.4003
 9433TIP3    H252495   0.907   3.933  11.375  0.6955  0.0402 -1.0775
 9434TIP3   OH252496   5.853   0.759  11.966 -0.3497  0.2614 -0.4511
 9434TIP3    H152497   5.886   0.743  11.878 -1.2247  0.9892 -0.9246
 9434TIP3    H252498   5.783   0.694  11.978 -0.3330  0.2620 -0.3435
 9435TIP3   OH252499   3.058   5.519  12.702  0.3475  0.2378  0.0159
 9435TIP3    H152500   3.009   5.529  12.783 -1.9859  2.7496 -1.5241
 9435TIP3    H252501   3.007   5.457  12.650  0.3930  0.6018 -0.4782
 9436TIP3   OH252502   0.157   4.192  11.910 -0.0688  0.1314  0.0217
 9436TIP3    H152503   0.112   4.275  11.922 -0.7774 -0.3767  0.9939
 9436TIP3    H252504   0.112   4.150  11.836  0.1166  0.4872 -0.2964
 9437TIP3   OH252505   3.567   0.622  11.687 -0.3814 -0.3682 -0.1684
 9437TIP3    H152506   3.521   0.565  11.626  0.3868  0.4273 -1.5336
 9437TIP3    H252507   3.601   0.693  11.633  1.0597 -0.0784  1.0550
 9438TIP3   OH252508   1.122   1.661  11.006  0.4665 -0.1576  0.6980
 9438TIP3    H152509   1.189   1.716  10.965 -0.1518  0.9679  1.1514
 9438TIP3    H252510   1.122   1.687  11.098 -1.5387  0.9025  0.4577
 9439TIP3   OH252511   5.936   7.132  11.514 -0.1156 -0.5994  0.1700
 9439TIP3    H152512   5.950   7.068  11.445  0.8846 -0.1472 -0.0706
 9439TIP3    H252513   5.934   7.217  11.469 -1.3875 -0.4499  0.4832
 9440TIP3   OH252514   3.088   7.080  11.694  0.0966 -0.0619 -0.2811
 9440TIP3    H152515   3.012   7.139  11.684 -0.9236 -1.3202 -0.2640
 9440TIP3    H252516   3.120   7.067  11.604 -1.8020 -2.1124 -0.7541
 9441TIP3   OH252517   5.987   4.977  10.757  0.2400 -0.4854  0.3849
 9441TIP3    H152518   5.896   4.994  10.731  0.6379  0.3638 -0.5003
 9441TIP3    H252519   5.981   4.903  10.818 -1.0231 -0.5490  0.2070
 9442TIP3   OH252520   2.046   0.691  10.744  0.0995  0.2386  0.2638
 9442TIP3    H152521   2.141   0.684  10.730 -0.1075 -1.0908 -0.7162
 9442TIP3    H252522   2.009   0.626  10.684 -1.6223  2.6947 -1.5099
 9443TIP3   OH252523   3.114   2.122  11.137  0.1725  0.2386  0.0704
 9443TIP3    H152524   3.020   2.107  11.130  0.2605  0.0862 -0.9058
 9443TIP3    H252525   3.154   2.046  11.096  0.7642 -0.2093  1.4123
 9444TIP3   OH252526   6.852   4.054  11.518  0.1960 -0.2289 -0.4011
 9444TIP3    H152527   6.912   3.983  11.497 -1.9625 -1.5796 -2.5500
 9444TIP3    H252528   6.877   4.126  11.460 -0.3277 -0.8361 -1.3921
 9445TIP3   OH252529   4.965   7.040  10.476  0.3831 -0.6258 -0.0612
 9445TIP3    H152530   4.908   7.112  10.447 -0.2706 -0.6806  1.0411
 9445TIP3    H252531   5.008   7.074  10.554 -1.1524 -1.9506  1.4260
 9446TIP3   OH252532   0.099   7.596  12.845  0.0111  0.2476 -0.1361
 9446TIP3    H152533   0.119   7.514  12.890  1.8635 -0.0205 -1.3388
 9446TIP3    H252534   0.027   7.573  12.785  0.2469 -0.4036 -0.1813
 9447TIP3   OH252535   0.665   4.506  11.333  0.1866  0.1277  0.0908
 9447TIP3    H152536   0.639   4.598  11.338 -0.6904 -0.1488  0.9880
 9447TIP3    H252537   0.737   4.505  11.270 -2.5832  0.8140 -3.3693
 9448TIP3   OH252538   1.703   2.550  12.230 -0.3543 -0.0873 -0.9787
 9448TIP3    H152539   1.728   2.487  12.162 -1.0163 -0.9504 -0.4297
 9448TIP3    H252540   1.622   2.589  12.198 -0.0341  0.3769 -1.2385
 9449TIP3   OH252541   5.513   4.072  10.871 -0.3621 -0.1197 -0.5435
 9449TIP3    H152542   5.578   4.003  10.888  0.5346  0.4263 -1.6275
 9449TIP3    H252543   5.440   4.026  10.830 -0.5533 -0.6943  0.4014
 9450TIP3   OH252544   1.634   7.141  11.932 -0.8882 -0.0582  0.0224
 9450TIP3    H152545   1.575   7.215  11.948 -1.5531 -0.0429 -2.1532
 9450TIP3    H252546   1.638   7.095  12.016  1.5230  3.7281  2.2343
 9451TIP3   OH252547   1.881   6.622  12.682 -0.0924 -0.5825  0.1764
 9451TIP3    H152548   1.950   6.590  12.624 -1.0876 -3.4253  0.4514
 9451TIP3    H252549   1.892   6.572  12.762 -0.7016  1.0585  1.3350
 9452TIP3   OH252550   1.092   1.529  10.636 -0.1893 -0.0238  0.2359
 9452TIP3    H152551   1.165   1.522  10.698 -0.9758 -1.2942  1.0633
 9452TIP3    H252552   1.074   1.439  10.609  1.0447  0.5602 -3.0082
 9453TIP3   OH252553   6.873   3.114  11.014 -0.4881 -0.2341 -0.1770
 9453TIP3    H152554   6.880   3.152  10.926  2.5816  0.2248  0.1801
 9453TIP3    H252555   6.855   3.188  11.071  0.6286 -0.0286 -0.0738
 9454TIP3   OH252556   5.627   7.575  10.764 -1.0373  0.9495  0.0838
 9454TIP3    H152557   5.686   7.649  10.777  0.8397 -0.3276 -0.7054
 9454TIP3    H252558   5.607   7.544  10.853 -0.3918  1.3178  0.3628
 9455TIP3   OH252559   6.996   2.210  11.167  0.1520 -0.0003 -0.1487
 9455TIP3    H152560   6.930   2.192  11.100 -0.7225  0.0435  0.6761
 9455TIP3    H252561   6.998   2.130  11.220 -0.0866  0.4288  0.5189
 9456TIP3   OH252562   3.543   4.157  11.631 -0.1699  0.7432 -0.0385
 9456TIP3    H152563   3.508   4.174  11.718  0.7644  0.4547  0.4093
 9456TIP3    H252564   3.637   4.149  11.644 -0.2535 -2.4461 -0.5296
 9457TIP3   OH252565   5.360   3.731  12.341  0.7088 -0.4925  0.1654
 9457TIP3    H152566   5.310   3.810  12.365  1.8793  0.2834  0.1092
 9457TIP3    H252567   5.328   3.664  12.402  0.2509  0.2181  0.7401
 9458TIP3   OH252568   2.656   6.413  11.026 -0.4608  0.3366 -0.4283
 9458TIP3    H152569   2.682   6.464  11.103  1.6456 -2.0694  0.6424
 9458TIP3    H252570   2.569   6.380  11.047 -0.8704  1.5471 -0.1312
 9459TIP3   OH252571   5.963   6.099  11.937 -0.3701  0.2958 -0.6762
 9459TIP3    H152572   5.984   6.012  11.903 -2.3887 -0.8656  0.8230
 9459TIP3    H252573   6.034   6.155  11.904  2.2842 -2.3025  0.1499
 9460TIP3   OH252574   3.109   1.960  11.872  0.0588  0.4174  0.0296
 9460TIP3    H152575   3.096   2.055  11.866  0.1358  0.5133  1.0868
 9460TIP3    H252576   3.162   1.949  11.952 -0.4524 -0.5546  0.2405
 9461TIP3   OH252577   6.856   3.265  10.247 -0.1435 -0.1858 -0.4880
 9461TIP3    H152578   6.784   3.313  10.206  1.1949  1.0265 -1.5177
 9461TIP3    H252579   6.935   3.296  10.203  1.0227 -1.6193  0.4580
 9462TIP3   OH252580   5.474   5.295  10.769 -0.4308 -0.4469  0.4247
 9462TIP3    H152581   5.398   5.353  10.764  0.0560  0.1158 -0.7244
 9462TIP3    H252582   5.519   5.321  10.849  0.9392  2.2935 -1.0890
 9463TIP3   OH252583   0.316   4.981  11.386 -0.0992 -0.3637 -0.6274
 9463TIP3    H152584   0.251   4.986  11.316  0.2341 -0.6889 -0.9661
 9463TIP3    H252585   0.396   4.952  11.343  0.2590 -0.0214 -0.2038
 9464TIP3   OH252586   0.802   1.923  10.720  0.0062 -0.0942 -0.5583
 9464TIP3    H152587   0.893   1.947  10.741 -0.1926  1.0365 -0.9442
 9464TIP3    H252588   0.808   1.832  10.691  0.5094 -1.3142  2.8601
 9465TIP3   OH252589   3.620   0.810  10.533  0.2782  0.7043 -0.1600
 9465TIP3    H152590   3.700   0.813  10.585  0.6187 -1.9630 -0.3446
 9465TIP3    H252591   3.636   0.740  10.468 -1.8718  0.6556 -0.7343
 9466TIP3   OH252592   3.997   2.711  12.558 -0.3080 -0.1865  0.1886
 9466TIP3    H152593   3.918   2.749  12.595 -0.0133  0.5433  0.0883
 9466TIP3    H252594   4.068   2.767  12.592  0.0118  0.1742 -1.0423
 9467TIP3   OH252595   4.944   5.264  12.982  0.1754  0.8345  0.2783
 9467TIP3    H152596   4.890   5.264  13.061  0.4338  0.1419  0.4627
 9467TIP3    H252597   4.960   5.171  12.964 -1.7294  0.8307 -1.8535
 9468TIP3   OH252598   6.849   6.477  12.885 -0.6892 -0.0414  0.0741
 9468TIP3    H152599   6.930   6.433  12.861 -0.4889 -1.2457  2.5767
 9468TIP3    H252600   6.787   6.406  12.904 -1.4289  0.7826  0.9207
 9469TIP3   OH252601   0.463   1.695  11.586 -0.0440  0.0334  0.2483
 9469TIP3    H152602   0.526   1.765  11.603  0.5715 -0.7566  1.3302
 9469TIP3    H252603   0.477   1.672  11.495  0.1932  0.8826  0.0602
 9470TIP3   OH252604   6.708   6.624  11.628  0.0656  0.0799 -0.4988
 9470TIP3    H152605   6.685   6.615  11.535 -0.9245  1.3582 -0.3991
 9470TIP3    H252606   6.699   6.535  11.663 -0.9298 -0.1655 -1.3227
 9471TIP3   OH252607   2.828   0.130  13.005 -0.0026  0.4184  0.0382
 9471TIP3    H152608   2.787   0.204  12.960 -1.8024 -0.8330 -0.5134
 9471TIP3    H252609   2.778   0.054  12.976 -0.3144 -0.6535  3.0332
 9472TIP3   OH252610   0.163   4.963  11.652 -0.7007 -0.9589 -0.8012
 9472TIP3    H152611   0.250   4.928  11.672 -0.8380 -2.2130 -2.2038
 9472TIP3    H252612   0.106   4.887  11.651 -1.8100 -0.1685 -0.0564
 9473TIP3   OH252613   5.996   4.282  10.934 -0.1001  0.0673  0.0374
 9473TIP3    H152614   5.910   4.301  10.972  0.6135  1.9094  0.7944
 9473TIP3    H252615   6.059   4.312  10.999  1.1409  0.9148 -1.4863
 9474TIP3   OH252616   7.342   1.806  12.293  0.3508 -0.0649  0.2481
 9474TIP3    H152617   7.369   1.876  12.233  0.7168 -0.4055  0.0078
 9474TIP3    H252618   7.277   1.756  12.244  0.5948 -0.2995  0.1632
 9475TIP3   OH252619   5.488   2.187  11.712 -0.6501  0.3048 -1.0225
 9475TIP3    H152620   5.473   2.096  11.688 -1.5639  0.8214 -2.5609
 9475TIP3    H252621   5.524   2.228  11.633  2.1396  0.7881  0.3675
 9476TIP3   OH252622   3.679   0.485  13.141  0.1254  0.5469  0.0919
 9476TIP3    H152623   3.726   0.508  13.061 -0.2345  1.4407  0.1247
 9476TIP3    H252624   3.725   0.408  13.175 -0.2385 -0.3718 -1.4166
 9477TIP3   OH252625   5.131   4.187  11.829 -0.4159  0.4266 -0.1051
 9477TIP3    H152626   5.171   4.137  11.901  0.4031 -0.0619 -0.8860
 9477TIP3    H252627   5.101   4.268  11.870  1.5279  0.9011  0.5075
 9478TIP3   OH252628   2.456   0.742  10.557  1.2966 -0.4252  0.8898
 9478TIP3    H152629   2.542   0.767  10.522  0.4968  2.1160  0.5796
 9478TIP3    H252630   2.465   0.751  10.652  0.9512  1.4976  0.7766
 9479TIP3   OH252631   7.321   4.428  11.049  0.0689 -0.0076 -0.1012
 9479TIP3    H152632   7.376   4.494  11.091 -0.7026  0.3642  0.3360
 9479TIP3    H252633   7.265   4.477  10.990  0.4112 -0.4189 -0.7752
 9480TIP3   OH252634   6.245   4.288  11.157  0.2231  0.6089  0.3562
 9480TIP3    H152635   6.286   4.275  11.072 -1.3646  0.4509 -0.4247
 9480TIP3    H252636   6.313   4.265  11.221  1.6893  1.4978 -0.8384
 9481TIP3   OH252637   2.558   6.440  13.436  0.2805 -0.3358  0.5219
 9481TIP3    H152638   2.476   6.424  13.482  0.0281  1.0619  0.5953
 9481TIP3    H252639   2.562   6.371  13.369 -0.3847 -1.0919  1.2450
 9482TIP3   OH252640   4.243   7.442  11.304  0.0792 -0.2401 -0.5064
 9482TIP3    H152641   4.180   7.476  11.240 -0.0829 -0.1484 -0.3009
 9482TIP3    H252642   4.303   7.387  11.253 -0.1244 -0.2685 -0.7137
 9483TIP3   OH252643   0.297   6.213  10.191  0.2582 -0.1458  0.0334
 9483TIP3    H152644   0.359   6.212  10.118 -0.1076 -0.6307 -0.2821
 9483TIP3    H252645   0.327   6.144  10.250 -0.1341 -0.5672 -0.2553
 9484TIP3   OH252646   1.680   6.515  12.466  0.0030 -0.1831  0.4124
 9484TIP3    H152647   1.710   6.424  12.474 -0.6349 -0.4740 -0.3648
 9484TIP3    H252648   1.639   6.533  12.551 -1.7481 -1.3495 -0.1327
 9485TIP3   OH252649   5.808   1.827  11.705  0.6492 -0.5451 -0.6027
 9485TIP3    H152650   5.850   1.745  11.679  2.8841 -0.0107  0.9899
 9485TIP3    H252651   5.851   1.851  11.787 -0.8081  1.6068 -0.3893
 9486TIP3   OH252652   3.901   4.735  11.027 -0.2748 -0.2472 -0.0335
 9486TIP3    H152653   3.992   4.719  11.052 -0.8231 -0.9929  1.5916
 9486TIP3    H252654   3.907   4.782  10.944  1.6279  1.3219  0.9156
 9487TIP3   OH252655   2.344   1.250  11.919 -0.6798 -0.4222  0.2162
 9487TIP3    H152656   2.308   1.316  11.860  1.8236 -0.8404 -1.9779
 9487TIP3    H252657   2.293   1.171  11.900 -0.4241 -0.3426 -0.8808
 9488TIP3   OH252658   6.918   7.018  11.295 -0.3372 -0.1503 -0.2286
 9488TIP3    H152659   6.911   7.047  11.204  0.1690 -0.6444 -0.4318
 9488TIP3    H252660   6.829   6.996  11.320 -0.6591  1.0319 -0.2405
 9489TIP3   OH252661   2.843   4.463  12.651 -0.2481 -0.5099  0.3637
 9489TIP3    H152662   2.902   4.519  12.702 -0.8450  1.1110 -0.6543
 9489TIP3    H252663   2.900   4.393  12.618  1.3992  1.4691 -1.3010
 9490TIP3   OH252664   4.458   4.436  11.804  0.1566  0.3354  0.4699
 9490TIP3    H152665   4.540   4.389  11.823  0.2975  0.3823 -0.0045
 9490TIP3    H252666   4.397   4.367  11.779 -0.2739  0.1849  1.8772
 9491TIP3   OH252667   5.624   4.911  12.306  0.9892 -0.0085 -0.0902
 9491TIP3    H152668   5.682   4.972  12.352 -0.6419 -0.2720  2.5725
 9491TIP3    H252669   5.654   4.824  12.333  0.4517 -0.1975 -0.0764
 9492TIP3   OH252670   3.546   4.252  11.344  0.7603 -0.1473  1.0148
 9492TIP3    H152671   3.565   4.209  11.428  0.4220 -1.7146  0.3258
 9492TIP3    H252672   3.606   4.210  11.282 -0.8053 -0.9385 -0.0283
 9493TIP3   OH252673   5.940   4.070  10.764  0.5727  0.5112 -0.3060
 9493TIP3    H152674   5.873   4.101  10.703 -0.0967  1.1501  0.7120
 9493TIP3    H252675   5.961   4.147  10.817  0.2499 -0.2910  1.0487
 9494TIP3   OH252676   7.382   1.673  11.711  0.5883 -0.3267 -0.2316
 9494TIP3    H152677   7.475   1.650  11.715  0.7808  0.5018  0.4305
 9494TIP3    H252678   7.373   1.720  11.628  1.3567  1.9170  0.8675
 9495TIP3   OH252679   3.341   1.174  12.079  0.0441 -0.6101 -0.1043
 9495TIP3    H152680   3.278   1.222  12.133  0.1503 -0.6311  0.0395
 9495TIP3    H252681   3.356   1.231  12.004  0.2414 -0.3738  0.1113
 9496TIP3   OH252682   4.137   1.600  12.352  0.7531  0.3327 -0.0020
 9496TIP3    H152683   4.072   1.670  12.356 -0.2054 -0.5615  3.0741
 9496TIP3    H252684   4.099   1.536  12.292  0.1240  1.0441 -0.3791
 9497TIP3   OH252685   0.752   4.862  11.063  0.6176 -0.1915 -0.0494
 9497TIP3    H152686   0.680   4.925  11.059  2.5419  2.1615  0.2995
 9497TIP3    H252687   0.721   4.795  11.124 -0.1808  2.3140  2.5202
 9498TIP3   OH252688   5.463   7.633  11.496 -0.7011 -0.0441  0.0366
 9498TIP3    H152689   5.375   7.625  11.533 -0.5697 -0.4400  0.2628
 9498TIP3    H252690   5.520   7.641  11.572 -0.3334 -1.7294 -0.0391
 9499TIP3   OH252691   1.138   0.688  13.304  0.3312  0.3636 -0.0953
 9499TIP3    H152692   1.150   0.618  13.240 -0.2954  1.6405 -1.6970
 9499TIP3    H252693   1.166   0.650  13.387 -2.7276 -2.8261 -0.2574
 9500TIP3   OH252694   3.119   2.230  11.437 -0.1503  0.3058 -0.1403
 9500TIP3    H152695   3.028   2.256  11.451  0.3591  2.3584 -0.2776
 9500TIP3    H252696   3.126   2.214  11.343 -0.2460  0.7151 -0.2190
 9501TIP3   OH252697   6.545   5.451  11.662  0.4924  0.2898  0.1032
 9501TIP3    H152698   6.639   5.464  11.649  0.7100 -2.0961 -1.1799
 9501TIP3    H252699   6.509   5.451  11.574 -0.6960  0.8791  0.5762
 9502TIP3   OH252700   5.336   5.084  11.702 -0.2510  0.0103  0.2046
 9502TIP3    H152701   5.415   5.108  11.653 -0.6360 -0.4691 -0.6904
 9502TIP3    H252702   5.273   5.152  11.679 -0.5065 -0.3465 -0.1803
 9503TIP3   OH252703   1.428   1.845  11.923  0.0460 -0.1914  0.2428
 9503TIP3    H152704   1.373   1.916  11.889 -1.8003 -1.5290  0.2893
 9503TIP3    H252705   1.447   1.791  11.846  1.4315  0.3098  0.2106
 9504TIP3   OH252706   0.448   1.495  10.535  0.1390  0.1166 -0.3802
 9504TIP3    H152707   0.503   1.480  10.612 -0.6899 -0.2155  0.1741
 9504TIP3    H252708   0.358   1.481  10.568 -0.1880 -0.6101 -1.5493
 9505TIP3   OH252709   4.474   7.069  10.919 -0.2189 -0.1497 -0.0252
 9505TIP3    H152710   4.491   7.004  10.850 -0.2107 -0.6546  0.4473
 9505TIP3    H252711   4.463   7.017  10.999 -1.0983  0.3705  0.2015
 9506TIP3   OH252712   2.359   1.201  12.311 -0.4751 -0.2970 -0.5033
 9506TIP3    H152713   2.317   1.118  12.287 -0.0742 -0.3969 -0.8806
 9506TIP3    H252714   2.446   1.174  12.343 -1.2346 -0.2448  1.7793
 9507TIP3   OH252715   0.937   4.353  12.784 -0.2914  0.3448 -0.2392
 9507TIP3    H152716   0.956   4.262  12.761  0.8928  0.0465  1.7156
 9507TIP3    H252717   0.842   4.359  12.780 -0.3022 -0.3678 -2.4169
 9508TIP3   OH252718   0.692   5.608  12.620  0.0314 -0.1581 -0.3938
 9508TIP3    H152719   0.670   5.677  12.558  1.4189  2.0365  1.3909
 9508TIP3    H252720   0.784   5.588  12.603 -0.4482 -1.9100 -1.1393
 9509TIP3   OH252721   7.656   7.264  12.800  0.0787  0.5330  0.3748
 9509TIP3    H152722   7.739   7.220  12.822 -0.5958 -0.8605  0.2849
 9509TIP3    H252723   7.621   7.293  12.884  1.4754  2.7895  0.2732
 9510TIP3   OH252724   7.311   6.621  12.040 -0.7883 -0.1407 -0.2438
 9510TIP3    H152725   7.400   6.587  12.046 -1.0804 -0.9601 -0.4052
 9510TIP3    H252726   7.291   6.619  11.946 -0.0750  2.4718 -0.5203
 9511TIP3   OH252727   1.994   7.000  11.274 -0.0032 -0.3231  0.2223
 9511TIP3    H152728   1.952   6.938  11.215  0.1270 -0.0572 -0.1482
 9511TIP3    H252729   1.939   6.997  11.353 -1.0224  0.3909 -0.4375
 9512TIP3   OH252730   5.683   3.561  13.029 -0.4141 -0.1709  0.0977
 9512TIP3    H152731   5.774   3.557  13.058 -0.1600  2.5873 -0.0695
 9512TIP3    H252732   5.676   3.492  12.963  1.8979  0.3314 -0.7683
 9513TIP3   OH252733   5.166   4.113  11.449 -0.4111 -0.5774 -0.9698
 9513TIP3    H152734   5.197   4.027  11.420 -0.3790 -0.7687 -0.3845
 9513TIP3    H252735   5.213   4.129  11.531  2.9338  1.9392 -3.1363
 9514TIP3   OH252736   1.683   3.027  12.132 -0.2918  0.2407  0.2670
 9514TIP3    H152737   1.618   3.055  12.068  0.4101  1.1821 -0.0604
 9514TIP3    H252738   1.707   2.938  12.107 -0.5918  0.3228 -0.3085
 9515TIP3   OH252739   1.147   4.605  12.158 -0.4930 -0.0254  0.5150
 9515TIP3    H152740   1.068   4.581  12.109  0.0552  2.3385 -1.7459
 9515TIP3    H252741   1.219   4.570  12.106  0.0405  0.6187  0.8146
 9516TIP3   OH252742   7.139   5.230  10.394  0.8969 -0.0510 -0.2724
 9516TIP3    H152743   7.178   5.207  10.478  0.5857  0.9408  0.1680
 9516TIP3    H252744   7.065   5.170  10.384  0.4466  0.3361  0.5686
 9517TIP3   OH252745   0.427   6.122  10.898 -0.0782 -0.6805  0.1944
 9517TIP3    H152746   0.523   6.115  10.890  0.0289  1.1908 -0.7249
 9517TIP3    H252747   0.413   6.203  10.948 -1.1931 -1.5915  1.4302
 9518TIP3   OH252748   2.259   0.499  10.749  0.2517 -0.3707 -0.0766
 9518TIP3    H152749   2.330   0.438  10.729 -0.7906 -2.0205  1.0406
 9518TIP3    H252750   2.236   0.481  10.840 -2.5881 -0.9945 -0.8033
 9519TIP3   OH252751   2.342   6.802  10.397  0.1113 -0.7842  0.4826
 9519TIP3    H152752   2.279   6.746  10.443 -2.6548  1.3336 -0.4247
 9519TIP3    H252753   2.349   6.765  10.309 -0.2453 -0.7997  0.4593
 9520TIP3   OH252754   6.969   3.797  11.391  0.4523 -0.4687 -0.6198
 9520TIP3    H152755   6.913   3.719  11.385  1.0491 -0.9922  0.3053
 9520TIP3    H252756   7.034   3.775  11.458  1.2379  0.4621 -1.0471
 9521TIP3   OH252757   2.246   6.830  11.146  0.1260 -0.0252  0.5217
 9521TIP3    H152758   2.164   6.867  11.179 -0.0237  1.7082 -1.5371
 9521TIP3    H252759   2.243   6.738  11.173 -2.4276  0.0216  0.7077
 9522TIP3   OH252760   4.984   5.829  12.194  0.1744 -0.2784 -0.3045
 9522TIP3    H152761   4.949   5.883  12.265 -0.7297 -0.7220 -0.3925
 9522TIP3    H252762   5.048   5.885  12.151 -2.1953  1.5813 -1.7127
 9523TIP3   OH252763   7.064   7.331  11.355 -0.0628  0.1759 -0.0741
 9523TIP3    H152764   7.079   7.403  11.415  0.8645  0.2664 -0.3963
 9523TIP3    H252765   6.972   7.339  11.330 -0.4772  0.1229  1.3295
 9524TIP3   OH252766   1.452   0.055  11.221  0.3013 -0.8274  0.1919
 9524TIP3    H152767   1.490   0.073  11.135 -0.9043 -2.5948 -0.7671
 9524TIP3    H252768   1.514  -0.004  11.263 -0.0490 -1.5411 -0.2791
 9525TIP3   OH252769   0.428   0.702  11.454  0.3283 -0.3999 -0.3089
 9525TIP3    H152770   0.401   0.618  11.417 -1.2989  0.0045 -0.1007
 9525TIP3    H252771   0.357   0.727  11.513  1.6192  0.2680  1.0450
 9526TIP3   OH252772   7.322   6.000  10.467 -0.0045 -0.2774  0.5337
 9526TIP3    H152773   7.370   6.047  10.399  2.0204 -3.6589 -0.6452
 9526TIP3    H252774   7.232   6.031  10.459  0.3597  0.2684 -3.0460
 9527TIP3   OH252775   2.375   5.004  11.472  0.1371 -0.2570 -0.5593
 9527TIP3    H152776   2.340   5.085  11.509  1.0992  0.7118 -1.6698
 9527TIP3    H252777   2.453   4.986  11.523  0.0922 -0.3060 -0.5088
 9528TIP3   OH252778   0.169   1.976  10.997 -0.0992 -0.2167 -0.2075
 9528TIP3    H152779   0.237   2.037  10.970  0.7274 -1.4232 -0.9925
 9528TIP3    H252780   0.122   1.955  10.917 -1.1597  0.3019  0.2613
 9529TIP3   OH252781   6.566   4.681  11.745  0.3293  0.5319  0.1041
 9529TIP3    H152782   6.625   4.608  11.764 -1.1091 -0.4883  0.8394
 9529TIP3    H252783   6.615   4.759  11.772  1.7752 -0.1638 -0.3992
 9530TIP3   OH252784   0.445   7.612  12.794  0.8177  0.0068 -0.1767
 9530TIP3    H152785   0.363   7.626  12.747  1.3276 -1.0090 -1.4269
 9530TIP3    H252786   0.512   7.603  12.726  1.6468 -1.1494  0.7292
 9531TIP3   OH252787   3.408   2.238  11.019  0.4130 -0.3044 -0.3395
 9531TIP3    H152788   3.468   2.312  11.028  0.8983 -0.9021  1.7297
 9531TIP3    H252789   3.449   2.167  11.067 -1.6427 -0.9140  0.6301
 9532TIP3   OH252790   0.484   5.503  11.476  0.2469  0.3314 -0.2670
 9532TIP3    H152791   0.444   5.512  11.563  0.9734  0.7896  0.0314
 9532TIP3    H252792   0.415   5.468  11.421  0.1316 -1.1633  0.7829
 9533TIP3   OH252793   4.038   3.323  11.177 -0.0834 -0.1814 -0.1277
 9533TIP3    H152794   4.036   3.285  11.265 -1.2665 -1.0386 -0.4949
 9533TIP3    H252795   4.040   3.247  11.119  2.8797  0.3217 -0.8819
 9534TIP3   OH252796   1.370   0.843  10.575  0.2528  0.2694 -0.3340
 9534TIP3    H152797   1.284   0.881  10.587  0.3529  0.1677  0.7726
 9534TIP3    H252798   1.429   0.918  10.565  0.4647  0.4549  1.9250
 9535TIP3   OH252799   3.325   1.013  10.712  0.1299 -0.8877 -0.1420
 9535TIP3    H152800   3.345   1.106  10.709 -0.4630 -0.7224  0.5586
 9535TIP3    H252801   3.408   0.971  10.735  0.5606 -0.6076 -1.1583
 9536TIP3   OH252802   3.699   5.274  10.881  0.0362 -0.7938  0.6548
 9536TIP3    H152803   3.689   5.284  10.786 -2.7878 -0.3522  0.9005
 9536TIP3    H252804   3.718   5.362  10.913 -1.8098 -0.3501  0.6808
 9537TIP3   OH252805   6.292   3.986  13.067 -0.2020  0.1483  0.3797
 9537TIP3    H152806   6.361   3.986  13.134 -0.3278  0.5178  0.5114
 9537TIP3    H252807   6.224   4.042  13.103 -0.4811 -0.0399  0.1514
 9538TIP3   OH252808   1.811   3.271  11.096  0.5553 -0.0260  0.2098
 9538TIP3    H152809   1.797   3.226  11.180 -0.9892  0.8763  0.4779
 9538TIP3    H252810   1.876   3.338  11.115 -0.4617  0.7923  0.9618
 9539TIP3   OH252811   5.927   4.581  11.919 -0.2358  0.0884  0.1359
 9539TIP3    H152812   5.886   4.550  11.838 -0.3236 -1.7429  0.8378
 9539TIP3    H252813   6.018   4.599  11.895 -0.7771  1.7048 -0.8461
 9540TIP3   OH252814   2.216   0.695  13.202 -0.5192 -0.0035 -0.4200
 9540TIP3    H152815   2.135   0.691  13.152 -1.1696 -2.0581  0.6502
 9540TIP3    H252816   2.276   0.636  13.156 -0.7718 -1.0761  0.5791
 9541TIP3   OH252817   3.336   1.598  12.906  0.1599  0.5170 -0.2446
 9541TIP3    H152818   3.399   1.540  12.950 -0.4123  0.1818  0.1428
 9541TIP3    H252819   3.356   1.685  12.941  0.0071  0.3204  0.3480
 9542TIP3   OH252820   2.237   6.177  12.367 -0.2110  0.0877  0.0477
 9542TIP3    H152821   2.321   6.201  12.328 -0.6267 -0.2976 -1.1249
 9542TIP3    H252822   2.180   6.251  12.348 -0.9507 -0.8968 -1.8526
 9543TIP3   OH252823   3.476   0.046  11.840 -0.0322 -0.5568  0.1084
 9543TIP3    H152824   3.500   0.117  11.899 -1.2225 -0.4344  0.4640
 9543TIP3    H252825   3.538   0.053  11.768  0.6990  0.0137  0.7842
 9544TIP3   OH252826   6.047   1.318  12.559 -0.1094 -0.3466 -0.0397
 9544TIP3    H152827   6.131   1.282  12.588  0.5045  0.1252 -1.1798
 9544TIP3    H252828   5.990   1.242  12.549  0.2661 -0.6995  0.4554
 9545TIP3   OH252829   5.116   2.770  11.374  0.1445 -0.6958 -0.3482
 9545TIP3    H152830   5.198   2.722  11.386  1.1178  0.5767 -1.5509
 9545TIP3    H252831   5.144   2.859  11.351 -1.5798 -0.2297 -0.7492
 9546TIP3   OH252832   1.967   1.737  11.094 -0.1797 -0.1197 -0.7476
 9546TIP3    H152833   1.979   1.657  11.144 -0.4005 -1.0321 -2.1136
 9546TIP3    H252834   2.020   1.802  11.140 -1.5676 -0.5101  1.5322
 9547TIP3   OH252835   2.670   5.313  11.409 -0.2926 -0.1648 -0.1014
 9547TIP3    H152836   2.639   5.360  11.332 -3.3324 -1.5276  0.1390
 9547TIP3    H252837   2.655   5.221  11.389  0.6257 -0.6871  1.4103
 9548TIP3   OH252838   6.834   5.795  10.500 -0.5371 -0.1608 -0.6632
 9548TIP3    H152839   6.776   5.872  10.502 -2.2312 -1.3866 -0.5227
 9548TIP3    H252840   6.890   5.809  10.423 -2.0387  0.3695 -1.7005
 9549TIP3   OH252841   6.772   1.372  11.816 -0.3405  0.1125  0.3858
 9549TIP3    H152842   6.789   1.311  11.887 -0.6964  0.4050  0.7266
 9549TIP3    H252843   6.703   1.430  11.849 -0.5327  0.2361 -0.2043
 9550TIP3   OH252844   3.162   0.839  11.347 -0.1918  0.5325 -0.4841
 9550TIP3    H152845   3.109   0.817  11.270 -0.5243 -0.5244  0.0273
 9550TIP3    H252846   3.247   0.798  11.331 -1.0262 -1.8655  0.7794
 9551TIP3   OH252847   2.876   2.629  11.277  0.4598  0.3216  0.3378
 9551TIP3    H152848   2.856   2.716  11.312 -1.2291 -0.6509  2.0060
 9551TIP3    H252849   2.795   2.602  11.233  0.6038 -0.7865  0.7250
 9552TIP3   OH252850   4.071   2.665  11.986  0.0906  0.1650  0.0446
 9552TIP3    H152851   4.006   2.728  11.956 -0.8382  0.3184  2.1943
 9552TIP3    H252852   4.035   2.580  11.959 -1.3972  0.1926  1.7437
 9553TIP3   OH252853   7.569   3.210  11.677 -0.1764  0.6951  0.3895
 9553TIP3    H152854   7.576   3.276  11.609  0.8292 -1.2007 -1.4575
 9553TIP3    H252855   7.486   3.166  11.660  0.1301  0.1415  0.2998
 9554TIP3   OH252856   4.557   2.240  11.480  0.0906 -0.3862  0.5834
 9554TIP3    H152857   4.623   2.309  11.485  0.8308 -1.0011 -0.2565
 9554TIP3    H252858   4.553   2.203  11.568  2.0117 -1.3496  0.3201
 9555TIP3   OH252859   7.320   4.760  10.646  0.0734  0.2116 -0.8556
 9555TIP3    H152860   7.404   4.802  10.628  0.8764  0.0931  2.1386
 9555TIP3    H252861   7.343   4.674  10.680 -1.2271  0.2278  0.1487
 9556TIP3   OH252862   4.335   6.689  11.585  0.7175 -0.3816 -0.0472
 9556TIP3    H152863   4.256   6.735  11.614  0.8907 -0.5767  0.7526
 9556TIP3    H252864   4.404   6.723  11.641  1.0004 -1.0327  0.0041
 9557TIP3   OH252865   2.761   3.432  11.884 -0.3763 -0.1788 -0.4890
 9557TIP3    H152866   2.794   3.381  11.958 -1.3148  1.4867  1.1682
 9557TIP3    H252867   2.793   3.521  11.900  0.1037  0.0727 -2.5653
 9558TIP3   OH252868   0.941   3.357  12.456  0.1792 -0.1075  0.3320
 9558TIP3    H152869   0.953   3.283  12.515 -0.9658 -0.1199  0.5666
 9558TIP3    H252870   0.856   3.393  12.479 -0.4589 -0.3123 -1.5197
 9559TIP3   OH252871   1.438   3.627  11.901 -0.3240  0.5217  0.4003
 9559TIP3    H152872   1.364   3.569  11.917  1.3621 -2.1366 -0.6268
 9559TIP3    H252873   1.483   3.632  11.985  0.9488 -1.9996 -0.0164
 9560TIP3   OH252874   3.737   5.445  12.602  0.5233  0.1845  0.3902
 9560TIP3    H152875   3.797   5.437  12.676 -0.4825  0.3771  1.2643
 9560TIP3    H252876   3.662   5.494  12.638 -1.0638 -1.7717 -0.0577
 9561TIP3   OH252877   6.500   5.291  11.399 -0.0511 -0.3062  0.3279
 9561TIP3    H152878   6.409   5.271  11.420 -0.1311 -1.4789 -0.9672
 9561TIP3    H252879   6.496   5.330  11.312  0.7000 -0.5522  0.1773
 9562TIP3   OH252880   0.878   7.054  12.664  0.3293  0.5172  0.3879
 9562TIP3    H152881   0.815   6.987  12.638  2.6868 -2.0978  0.8451
 9562TIP3    H252882   0.909   7.091  12.582  0.2877 -0.2824 -0.0015
 9563TIP3   OH252883   0.115   0.158  11.864  0.5174  0.1911 -0.0469
 9563TIP3    H152884   0.199   0.125  11.833  0.2379 -0.4638 -0.1418
 9563TIP3    H252885   0.131   0.250  11.886  1.1457  0.1871 -0.4706
 9564TIP3   OH252886   5.293   6.273  10.832 -0.1401  0.0414 -0.5516
 9564TIP3    H152887   5.308   6.293  10.739 -1.7857  1.2336 -0.5920
 9564TIP3    H252888   5.235   6.342  10.863  0.5806 -0.1896  1.4653
 9565TIP3   OH252889   1.789   7.634  11.575 -0.4323 -0.1055 -0.0909
 9565TIP3    H152890   1.860   7.686  11.612  1.3906 -1.8815 -0.8574
 9565TIP3    H252891   1.745   7.596  11.651 -0.5174  0.9384  0.3955
 9566TIP3   OH252892   3.497   1.862  10.795  0.1158 -0.4194  0.0193
 9566TIP3    H152893   3.474   1.952  10.773  0.2677 -0.7144 -1.4435
 9566TIP3    H252894   3.516   1.864  10.889 -0.3898  0.9578  0.1070
 9567TIP3   OH252895   2.794   0.895  11.529  0.2430 -0.7834  0.3367
 9567TIP3    H152896   2.876   0.863  11.567  1.2031  0.3219 -0.7227
 9567TIP3    H252897   2.797   0.865  11.439 -1.0180 -1.5868  0.5465
 9568TIP3   OH252898   1.516   3.237  11.054 -0.0379  0.2381  0.0699
 9568TIP3    H152899   1.608   3.228  11.033 -0.3370 -0.3714 -1.0373
 9568TIP3    H252900   1.485   3.147  11.064 -0.7321  0.3948 -0.5892
 9569TIP3   OH252901   5.042   3.668  12.433  0.0867 -0.2104  0.2465
 9569TIP3    H152902   4.949   3.671  12.458  0.3823  1.3932  1.2668
 9569TIP3    H252903   5.048   3.722  12.355  0.0100 -1.1765 -0.4465
 9570TIP3   OH252904   4.822   5.599  12.523 -0.0294 -0.4718 -0.3057
 9570TIP3    H152905   4.913   5.583  12.501  0.0806  0.5105 -0.6020
 9570TIP3    H252906   4.814   5.695  12.524 -0.4801 -0.4831  2.0307
 9571TIP3   OH252907   6.351   2.813  11.186  0.1965  0.2650 -0.3907
 9571TIP3    H152908   6.276   2.859  11.224  0.6657  0.5037  0.2820
 9571TIP3    H252909   6.382   2.871  11.117  0.7965  1.0117  0.4657
 9572TIP3   OH252910   4.560   5.465  11.392 -0.2961 -0.0222  0.1237
 9572TIP3    H152911   4.550   5.438  11.301 -0.3412 -2.7382  0.8408
 9572TIP3    H252912   4.587   5.556  11.387  1.5535 -0.5943 -2.6615
 9573TIP3   OH252913   5.398   1.776  10.653  0.6351 -0.2138  0.1758
 9573TIP3    H152914   5.348   1.694  10.652 -1.5915  1.0642 -0.6343
 9573TIP3    H252915   5.376   1.817  10.737  1.1575 -0.0976  0.2609
 9574TIP3   OH252916   6.649   1.525  11.014  0.1408 -0.2652  0.2320
 9574TIP3    H152917   6.582   1.550  10.951  0.6386 -1.3978 -0.7897
 9574TIP3    H252918   6.610   1.452  11.063 -0.9384  1.7155  2.5398
 9575TIP3   OH252919   1.042   4.971  10.945  0.0442  0.2957  0.5290
 9575TIP3    H152920   0.999   5.042  10.993 -1.7776  0.3619 -1.0739
 9575TIP3    H252921   1.001   4.891  10.978  0.2683  0.1830  0.5365
 9576TIP3   OH252922   0.831   7.001  11.679  0.7541 -0.5738 -0.0877
 9576TIP3    H152923   0.845   7.076  11.737  1.4511  0.4307 -1.4670
 9576TIP3    H252924   0.875   7.027  11.597 -2.8510 -0.4703 -2.2279
 9577TIP3   OH252925   3.560   5.053  11.348 -0.6370 -0.2083  0.3800
 9577TIP3    H152926   3.578   5.136  11.391 -0.2054 -0.6873  1.1530
 9577TIP3    H252927   3.641   5.033  11.300 -1.3096  0.5956 -1.1467
 9578TIP3   OH252928   0.275   2.994  10.693 -0.2512 -0.1937  0.4668
 9578TIP3    H152929   0.303   2.941  10.618 -1.9746 -0.5120 -0.0121
 9578TIP3    H252930   0.243   3.076  10.653 -1.9530 -0.6899  0.7357
 9579TIP3   OH252931   5.496   5.624  12.287  0.1909 -0.2448 -0.5202
 9579TIP3    H152932   5.458   5.680  12.354 -0.8867 -2.6925  1.0587
 9579TIP3    H252933   5.559   5.569  12.334 -1.0587 -2.4647 -1.2987
 9580TIP3   OH252934   4.330   4.737  12.145  0.1008  0.6311 -0.1598
 9580TIP3    H152935   4.414   4.695  12.161 -0.3376  0.2336  1.1573
 9580TIP3    H252936   4.340   4.825  12.181 -0.6351 -0.0178  1.7171
 9581TIP3   OH252937   5.628   6.242  13.198  0.4259 -0.2092  0.2138
 9581TIP3    H152938   5.576   6.193  13.134  0.4223  0.7915 -0.5596
 9581TIP3    H252939   5.573   6.317  13.222  1.1546  0.3891  0.0428
 9582TIP3   OH252940   7.517   6.688  10.892 -0.1649 -0.0924 -0.5139
 9582TIP3    H152941   7.493   6.615  10.835 -2.4143  1.5503 -1.8227
 9582TIP3    H252942   7.438   6.706  10.943  0.5047  1.1044  0.1519
 9583TIP3   OH252943   4.426   1.003  13.086  0.0578  0.2359  0.3455
 9583TIP3    H152944   4.469   1.033  13.005  2.1831 -0.4267  1.1490
 9583TIP3    H252945   4.358   1.069  13.103  0.6993  1.3171 -1.0708
 9584TIP3   OH252946   0.118   2.496  11.180  0.5195  0.7004  0.1922
 9584TIP3    H152947   0.126   2.590  11.161  2.1992  0.7046  0.7425
 9584TIP3    H252948   0.197   2.457  11.141  0.8386 -0.1815  1.6336
 9585TIP3   OH252949   6.732   6.109  11.972  0.0298 -0.5048 -0.1817
 9585TIP3    H152950   6.771   6.186  12.013  0.1617 -0.6352 -0.0595
 9585TIP3    H252951   6.713   6.050  12.046  0.6769 -0.9257 -0.3428
 9586TIP3   OH252952   3.056   1.643  11.463 -0.2709 -0.1684 -0.0141
 9586TIP3    H152953   3.099   1.559  11.444  0.5312  0.1385  0.3947
 9586TIP3    H252954   3.071   1.657  11.556  1.1783  1.2723 -0.4180
 9587TIP3   OH252955   2.968   0.508  12.128 -0.0415  0.4655 -0.2037
 9587TIP3    H152956   2.975   0.424  12.172 -2.7548  0.5395  0.5649
 9587TIP3    H252957   2.974   0.573  12.198 -0.8431  0.7459 -0.3777
 9588TIP3   OH252958   3.164   1.973  10.773  0.2994  0.1877 -0.0475
 9588TIP3    H152959   3.211   1.942  10.851  0.0328 -0.1946 -0.0373
 9588TIP3    H252960   3.220   2.042  10.738  0.2950  0.5543  0.6379
 9589TIP3   OH252961   4.359   1.309  10.788  0.0064 -0.6455  0.1548
 9589TIP3    H152962   4.303   1.379  10.756  0.1876 -1.1818 -1.4431
 9589TIP3    H252963   4.327   1.291  10.877 -3.0133 -1.5480 -0.9697
 9590TIP3   OH252964   1.935   7.064  11.901  0.1159  0.1979  0.1425
 9590TIP3    H152965   1.841   7.068  11.917  0.2395  1.5766  0.6774
 9590TIP3    H252966   1.970   7.016  11.975 -0.1253  0.0085  0.1339
 9591TIP3   OH252967   0.719   7.605  11.888  0.7702 -0.2745 -0.0394
 9591TIP3    H152968   0.624   7.592  11.884  0.7772 -0.6778  0.7964
 9591TIP3    H252969   0.736   7.676  11.826 -0.2677  0.8009  0.8443
 9592TIP3   OH252970   4.699   6.821  12.057 -0.4149  0.0588 -0.2179
 9592TIP3    H152971   4.751   6.853  11.982 -2.6786  0.0034 -1.9101
 9592TIP3    H252972   4.750   6.747  12.090  2.5340  2.3265  0.7735
 9593TIP3   OH252973   4.824   2.599  10.656 -0.8806  0.3261 -0.6618
 9593TIP3    H152974   4.833   2.693  10.639 -0.3483  0.1743 -1.2520
 9593TIP3    H252975   4.794   2.594  10.747 -1.2469  1.0774 -0.7306
 9594TIP3   OH252976   6.224   6.912  12.036  0.2846  0.6070 -0.3104
 9594TIP3    H152977   6.205   6.971  11.964  1.8862  1.3485 -0.1707
 9594TIP3    H252978   6.146   6.916  12.092  0.1051  2.1057 -0.6322
 9595TIP3   OH252979   1.340   6.347  11.625  0.3461  0.7122 -0.4611
 9595TIP3    H152980   1.393   6.267  11.633 -2.0200 -1.1506 -1.8342
 9595TIP3    H252981   1.319   6.370  11.715  2.1333  0.5844  0.0283
 9596TIP3   OH252982   2.537   0.448  12.698  0.5039 -0.6316 -0.0971
 9596TIP3    H152983   2.442   0.441  12.690  0.4622 -0.2647  0.0475
 9596TIP3    H252984   2.568   0.445  12.607  0.1452  1.9674 -0.3736
 9597TIP3   OH252985   5.315   1.640  11.071 -0.4126  0.9096 -0.1140
 9597TIP3    H152986   5.359   1.615  11.153 -1.9454 -1.6045  0.0424
 9597TIP3    H252987   5.222   1.642  11.093 -0.8493  0.2724 -1.7687
 9598TIP3   OH252988   2.505   3.482  10.712 -0.0503 -0.0571  0.3511
 9598TIP3    H152989   2.442   3.519  10.651 -2.0294 -1.3640  1.4776
 9598TIP3    H252990   2.508   3.545  10.785  0.0456  0.0702  0.2363
 9599TIP3   OH252991   6.531   2.593  12.937  0.3545  0.0849 -0.2781
 9599TIP3    H152992   6.595   2.546  12.990 -0.1244  0.7753  0.9526
 9599TIP3    H252993   6.548   2.564  12.847  1.2502 -1.0360  0.2294
 9600TIP3   OH252994   3.724   4.236  12.626  0.4661  0.2123  0.3163
 9600TIP3    H152995   3.705   4.142  12.634  0.6549  0.2265  1.0003
 9600TIP3    H252996   3.809   4.240  12.582  2.0344 -0.0639  3.0864
 9601TIP3   OH252997   0.191   0.471  11.650  0.0637  0.4150 -0.3891
 9601TIP3    H152998   0.191   0.567  11.654 -0.0722  0.4454 -0.9574
 9601TIP3    H252999   0.183   0.443  11.741 -0.4549  0.9501 -0.2612
 9602TIP3   OH253000   5.608   0.318  11.901 -0.2985  0.0321 -0.5463
 9602TIP3    H153001   5.593   0.368  11.981 -0.3992 -0.1444 -0.4538
 9602TIP3    H253002   5.631   0.383  11.835 -0.8856  0.2499 -0.5420
 9603TIP3   OH253003   4.090   6.746  11.688 -0.1489  0.4031  0.8855
 9603TIP3    H153004   4.087   6.665  11.738 -0.1379  0.5915  1.1922
 9603TIP3    H253005   4.009   6.792  11.712 -1.2767 -0.5022 -0.9620
 9604TIP3   OH253006   4.494   1.752  12.194 -0.3251 -0.8715 -0.1512
 9604TIP3    H153007   4.472   1.841  12.169 -1.4033 -1.0053  0.2811
 9604TIP3    H253008   4.590   1.751  12.197 -0.2218 -0.2587 -2.0030
 9605TIP3   OH253009   4.696   1.462  10.799 -0.2109  0.0037  0.0763
 9605TIP3    H153010   4.621   1.516  10.774 -1.4142 -2.0914 -1.1353
 9605TIP3    H253011   4.665   1.411  10.874  0.1922 -0.4418 -0.0554
 9606TIP3   OH253012   4.407   3.545  11.205  0.1904 -0.3811  0.4627
 9606TIP3    H153013   4.328   3.534  11.153  2.3426 -1.8676 -2.8809
 9606TIP3    H253014   4.398   3.631  11.245 -2.4003  0.1866 -1.1031
 9607TIP3   OH253015   2.221   4.643  11.861  0.7201  0.5702  0.2188
 9607TIP3    H153016   2.197   4.584  11.933 -1.2077  0.1413 -0.7160
 9607TIP3    H253017   2.256   4.720  11.905 -0.6949  0.4533  1.6647
 9608TIP3   OH253018   2.005   3.623  10.697  0.5300  0.3917  0.1093
 9608TIP3    H153019   1.956   3.548  10.665  0.2341  0.7539 -0.3072
 9608TIP3    H253020   1.991   3.623  10.792  0.9941 -0.3977  0.1854
 9609TIP3   OH253021   2.834   2.216  13.371  0.1732 -0.2854 -0.3300
 9609TIP3    H153022   2.923   2.220  13.405  0.4630 -2.2615 -0.7175
 9609TIP3    H253023   2.839   2.256  13.284  0.1748  1.5870  0.4841
 9610TIP3   OH253024   7.624   3.416  11.145  0.1984  0.2587  0.2022
 9610TIP3    H153025   7.617   3.492  11.203  0.9939  0.9131 -0.5445
 9610TIP3    H253026   7.549   3.361  11.169 -0.7353  1.5528  0.3636
 9611TIP3   OH253027   2.915   4.464  12.334  0.1826  0.1974  0.1501
 9611TIP3    H153028   2.927   4.503  12.248 -1.6277 -1.4699 -0.9566
 9611TIP3    H253029   2.900   4.371  12.316 -2.9910  0.1977  1.9428
 9612TIP3   OH253030   5.398   3.688  10.771  1.0083  0.2176  0.2616
 9612TIP3    H153031   5.480   3.660  10.812  1.2334  0.7904  0.2105
 9612TIP3    H253032   5.408   3.663  10.679  0.2368 -1.6649  0.6417
 9613TIP3   OH253033   6.160   4.923  10.504 -0.4435  0.3675 -0.0553
 9613TIP3    H153034   6.100   4.937  10.577  0.3163 -0.2535  0.7145
 9613TIP3    H253035   6.150   4.831  10.481 -0.2686  0.4206 -0.3503
 9614TIP3   OH253036   1.875   1.205  12.393 -0.2373  0.7182 -0.0840
 9614TIP3    H153037   1.957   1.254  12.386 -0.0752  0.2605 -2.2420
 9614TIP3    H253038   1.902   1.113  12.402 -0.5500  0.7763  1.9930
 9615TIP3   OH253039   3.449   1.213  11.739  0.0240  0.1412 -0.5754
 9615TIP3    H153040   3.542   1.205  11.762  0.1534 -0.1474 -1.1851
 9615TIP3    H253041   3.448   1.216  11.644 -0.4325  2.2251 -0.5659
 9616TIP3   OH253042   6.092   5.059  12.965  0.1556 -0.0209  0.1563
 9616TIP3    H153043   6.102   5.109  13.047 -2.6033  0.0038  0.5796
 9616TIP3    H253044   6.056   4.975  12.993  1.8831 -1.1451 -0.8333
 9617TIP3   OH253045   1.801   6.009  10.854 -0.5195  0.4294 -0.7933
 9617TIP3    H153046   1.835   5.919  10.852 -0.2823  0.2578  3.1992
 9617TIP3    H253047   1.863   6.059  10.800  2.5169 -0.9829  1.0660
 9618TIP3   OH253048   5.718   0.642  12.226  0.2085  0.2806  0.0073
 9618TIP3    H153049   5.716   0.688  12.310  1.7967 -2.7165  1.8803
 9618TIP3    H253050   5.809   0.614  12.217  0.2225  1.0348 -3.1257
 9619TIP3   OH253051   6.580   3.090  10.782  0.4068  0.3198 -0.3892
 9619TIP3    H153052   6.627   3.022  10.735  2.6710 -0.2424  2.4209
 9619TIP3    H253053   6.548   3.149  10.714  1.4137 -1.6539 -2.7037
 9620TIP3   OH253054   7.064   0.831  11.383 -0.1425 -0.5393  0.0251
 9620TIP3    H153055   6.978   0.854  11.347  0.3857 -1.6050 -2.0948
 9620TIP3    H253056   7.081   0.898  11.449 -2.1638  0.2609 -0.1944
 9621TIP3   OH253057   7.316   3.277  12.235  0.4804 -0.4730 -0.6802
 9621TIP3    H153058   7.380   3.324  12.287  1.0501 -1.5784 -0.3514
 9621TIP3    H253059   7.234   3.326  12.247  0.9229  0.0855  0.1091
 9622TIP3   OH253060   5.446   3.919  11.562  0.1949  0.2002  0.7744
 9622TIP3    H153061   5.480   4.004  11.590  0.7990  0.5708 -0.9378
 9622TIP3    H253062   5.521   3.860  11.568 -0.2503 -0.2510  2.0575
 9623TIP3   OH253063   3.138   6.336  12.882 -0.1569 -0.6195  0.0463
 9623TIP3    H153064   3.216   6.349  12.828 -0.4379  0.9486 -0.0415
 9623TIP3    H253065   3.167   6.279  12.952  0.1150 -3.1176 -1.9552
 9624TIP3   OH253066   5.626   7.627  12.517 -0.3103  0.0641  0.2019
 9624TIP3    H153067   5.537   7.657  12.535  0.4048  1.2884  2.0164
 9624TIP3    H253068   5.668   7.624  12.603  1.4432 -0.3756 -0.6268
 9625TIP3   OH253069   3.275   2.452  11.472  0.2053 -0.3513 -0.0354
 9625TIP3    H153070   3.222   2.373  11.472  0.6121 -0.6966 -2.1820
 9625TIP3    H253071   3.298   2.466  11.563 -1.5570 -1.5463  0.6364
 9626TIP3   OH253072   6.428   6.523  10.596 -0.4185  0.1078  0.5652
 9626TIP3    H153073   6.459   6.536  10.686 -0.1968 -1.6098  0.7682
 9626TIP3    H253074   6.421   6.428  10.587  1.4476  0.0970 -1.8594
 9627TIP3   OH253075   3.396   3.994  11.025 -0.0638  0.6305  0.1241
 9627TIP3    H153076   3.341   4.039  11.089  0.6724  1.7114  0.0211
 9627TIP3    H253077   3.448   4.064  10.984  1.9341 -0.4190  0.7426
 9628TIP3   OH253078   0.733   7.108  10.273 -0.2342  0.3101 -0.0181
 9628TIP3    H153079   0.793   7.181  10.289 -0.0366  0.0376  0.5261
 9628TIP3    H253080   0.760   7.040  10.336  0.0795 -0.5258 -1.0216
 9629TIP3   OH253081   1.460   7.062  12.264  0.3446 -0.0940  0.0335
 9629TIP3    H153082   1.437   6.993  12.201 -2.2504 -0.0427  0.7782
 9629TIP3    H253083   1.555   7.057  12.273  0.4232 -2.3135 -1.3563
 9630TIP3   OH253084   0.258   3.175  11.256  0.2090  0.0528  0.1463
 9630TIP3    H153085   0.222   3.124  11.329 -0.6628 -0.2058 -0.4456
 9630TIP3    H253086   0.338   3.214  11.291 -0.4537  0.3547  1.4077
 9631TIP3   OH253087   6.078   6.999  13.397 -0.3475  0.7097  0.1975
 9631TIP3    H153088   6.083   6.910  13.363 -1.4622  0.3038  1.0537
 9631TIP3    H253089   6.056   7.053  13.321 -1.5789 -0.0163  0.0146
 9632TIP3   OH253090   0.315   3.311  10.300 -0.4847 -0.6286  0.2112
 9632TIP3    H153091   0.346   3.389  10.254  0.1976 -0.5885  0.7221
 9632TIP3    H253092   0.331   3.330  10.392  4.3371 -3.2421  0.2120
 9633TIP3   OH253093   3.087   7.129  10.829  0.1759  0.1471  0.4610
 9633TIP3    H153094   3.098   7.066  10.900 -1.4903  1.0557  1.6022
 9633TIP3    H253095   3.009   7.099  10.782  0.1438  0.6198  0.2044
 9634TIP3   OH253096   6.909   5.176  12.837 -0.8046  0.1013  0.2954
 9634TIP3    H153097   6.979   5.125  12.878  0.5640  1.0847 -0.7019
 9634TIP3    H253098   6.925   5.266  12.867 -0.7950  0.5585 -1.0018
 9635TIP3   OH253099   0.270   0.795  10.259  0.4183  0.5008 -0.2652
 9635TIP3    H153100   0.335   0.854  10.298 -0.5328  0.0935  2.0709
 9635TIP3    H253101   0.305   0.707  10.276 -0.6796  0.2814  0.9687
 9636TIP3   OH253102   4.416   2.575  12.764  0.0661 -0.4274 -0.5147
 9636TIP3    H153103   4.430   2.484  12.739  1.8386 -0.2003 -0.4762
 9636TIP3    H253104   4.500   2.603  12.800 -0.0459  1.6081 -1.7100
 9637TIP3   OH253105   6.323   3.721  12.236  0.1081  0.4942 -0.3703
 9637TIP3    H153106   6.410   3.760  12.236  0.0537  0.6158  0.1474
 9637TIP3    H253107   6.275   3.768  12.168  0.3293  0.6872 -0.3915
 9638TIP3   OH253108   2.757   7.511  10.539  0.8198 -0.1016  0.1995
 9638TIP3    H153109   2.664   7.511  10.561  0.9327 -1.2517  0.7399
 9638TIP3    H253110   2.767   7.439  10.478  1.4526 -0.3525  0.5874
 9639TIP3   OH253111   6.294   1.927  12.370 -0.0296 -0.0096 -0.1123
 9639TIP3    H153112   6.350   1.969  12.435  0.6317 -1.8781  0.6072
 9639TIP3    H253113   6.355   1.895  12.303 -0.1834 -1.9508  0.6120
 9640TIP3   OH253114   7.608   2.766  12.233 -0.1684  0.3264 -0.2555
 9640TIP3    H153115   7.589   2.744  12.324  0.2186  1.8719  0.2269
 9640TIP3    H253116   7.607   2.682  12.188  2.0141 -0.8042  1.6008
 9641TIP3   OH253117   2.442   6.064  11.433 -0.2950  0.3759 -0.0692
 9641TIP3    H153118   2.472   6.064  11.524  0.7773  2.0599 -0.3821
 9641TIP3    H253119   2.433   6.156  11.410 -1.2178 -0.0315 -1.4679
 9642TIP3   OH253120   3.371   4.407  12.969  0.0933  0.5264  0.4236
 9642TIP3    H153121   3.408   4.351  12.901  0.0484  0.3849  0.5136
 9642TIP3    H253122   3.309   4.350  13.015 -1.8580  1.3202 -1.0691
 9643TIP3   OH253123   6.772   7.543  10.627 -0.1935  0.4447 -0.1636
 9643TIP3    H153124   6.734   7.610  10.684  0.0221  0.9099 -0.5648
 9643TIP3    H253125   6.808   7.478  10.688 -3.2069 -0.9933  0.2924
 9644TIP3   OH253126   0.828   6.596  10.812 -0.0662  0.1812  0.3676
 9644TIP3    H153127   0.813   6.670  10.753  1.3570  0.2770  0.0871
 9644TIP3    H253128   0.848   6.636  10.897  0.9858  0.1568  0.1487
 9645TIP3   OH253129   4.265   1.191  12.112  0.4778 -0.4227 -0.2693
 9645TIP3    H153130   4.348   1.213  12.070  0.7258  0.2924  0.5608
 9645TIP3    H253131   4.255   1.097  12.099  0.2743 -0.1631 -2.3809
 9646TIP3   OH253132   6.230   0.528  10.192  0.3708 -0.0776 -0.0468
 9646TIP3    H153133   6.148   0.526  10.143  0.9814 -1.8781 -1.1001
 9646TIP3    H253134   6.230   0.446  10.242 -0.3991  1.8257  3.3925
 9647TIP3   OH253135   0.272   1.302  11.310 -0.4458 -0.3450 -0.4189
 9647TIP3    H153136   0.285   1.262  11.224 -0.3126 -2.0773  0.3675
 9647TIP3    H253137   0.195   1.358  11.300 -0.5636 -0.6974 -1.6007
 9648TIP3   OH253138   2.667   6.879  10.624  0.2388  0.0029 -0.0248
 9648TIP3    H153139   2.618   6.920  10.552 -0.8444  1.7932  1.6546
 9648TIP3    H253140   2.601   6.829  10.672  0.5693  0.3557  0.8045
 9649TIP3   OH253141   4.734   4.068  10.989 -0.3563  0.1343  0.0202
 9649TIP3    H153142   4.774   3.995  10.942 -1.6311 -0.6778  0.1477
 9649TIP3    H253143   4.797   4.089  11.058  0.4838 -0.1781 -0.6389
 9650TIP3   OH253144   1.546   4.564  13.282 -0.6019  0.2821 -0.2194
 9650TIP3    H153145   1.516   4.483  13.240 -0.0018  0.9785 -2.0610
 9650TIP3    H253146   1.615   4.535  13.341 -0.2344 -0.5510 -1.0285
 9651TIP3   OH253147   4.240   1.542  10.706  0.0794  0.3409 -0.1126
 9651TIP3    H153148   4.326   1.560  10.668  0.8523 -1.8973  0.4061
 9651TIP3    H253149   4.230   1.606  10.776  0.1147  2.3320 -1.8282
 9652TIP3   OH253150   3.014   7.595  12.213  0.3743  0.5398  0.0602
 9652TIP3    H153151   3.021   7.672  12.157  0.4929  1.4240  1.2553
 9652TIP3    H253152   2.974   7.627  12.293  0.9653 -0.5209  0.8092
 9653TIP3   OH253153   2.811   7.133  12.013 -0.4160 -0.3443  0.1565
 9653TIP3    H153154   2.810   7.054  11.959 -0.1998 -0.8076  0.8196
 9653TIP3    H253155   2.903   7.156  12.020 -0.6030  2.0193 -2.9284
 9654TIP3   OH253156   2.716   0.604  13.077 -0.0779  0.3137 -0.0590
 9654TIP3    H153157   2.808   0.629  13.086  0.1409 -0.4924  0.0456
 9654TIP3    H253158   2.674   0.636  13.157 -0.2783  2.2721 -0.8884
 9655TIP3   OH253159   5.976   4.298  11.208  0.4988  0.2208 -0.3162
 9655TIP3    H153160   6.071   4.293  11.208  0.4995 -2.2314 -2.7758
 9655TIP3    H253161   5.949   4.252  11.288  1.3005  1.8869  0.9740
 9656TIP3   OH253162   4.009   0.277  12.231 -0.1863  0.1126  0.7734
 9656TIP3    H153163   3.994   0.303  12.140  0.9395  1.3130  0.8978
 9656TIP3    H253164   4.074   0.208  12.225 -0.7929 -0.4576  0.6283
 9657TIP3   OH253165   7.526   2.999  10.705  0.2742 -0.5122  0.2891
 9657TIP3    H153166   7.468   2.923  10.701 -0.1327 -0.1525 -1.1015
 9657TIP3    H253167   7.496   3.047  10.782 -1.3432 -0.3010 -0.4266
 9658TIP3   OH253168   1.493   6.191  13.015 -0.1129  0.8743 -0.5915
 9658TIP3    H153169   1.523   6.281  13.002  1.0022  0.7908  1.0964
 9658TIP3    H253170   1.555   6.154  13.078 -0.5415 -1.0891 -1.2484
 9659TIP3   OH253171   3.774   4.569  13.257  0.4111  0.1080 -0.3980
 9659TIP3    H153172   3.720   4.649  13.254  1.0305  0.5740  0.3396
 9659TIP3    H253173   3.720   4.502  13.215 -1.0280  0.4007  0.8595
 9660TIP3   OH253174   1.637   6.514  11.902 -0.5938 -0.2612  0.2809
 9660TIP3    H153175   1.628   6.449  11.833  0.7967 -0.3246  0.1426
 9660TIP3    H253176   1.694   6.473  11.967  0.9191  1.0572 -0.1481
 9661TIP3   OH253177   5.788   5.450  12.672 -0.1337 -0.4973  0.2603
 9661TIP3    H153178   5.716   5.472  12.731 -0.2933 -0.4704  0.0567
 9661TIP3    H253179   5.841   5.387  12.720  0.9506  1.1351  1.3133
 9662TIP3   OH253180   3.190   5.800  10.977 -0.0481  0.7618 -0.1321
 9662TIP3    H153181   3.286   5.794  10.970 -0.0193 -0.1609  0.7466
 9662TIP3    H253182   3.158   5.745  10.905  0.0970  0.6002 -0.0767
 9663TIP3   OH253183   5.534   0.071  11.838  0.4953 -0.0926 -0.0370
 9663TIP3    H153184   5.626   0.048  11.823  0.6736 -0.0767  1.0008
 9663TIP3    H253185   5.536   0.165  11.857  0.1823  0.0459 -0.6661
 9664TIP3   OH253186   3.903   0.425  10.998 -0.4616 -0.8319 -0.7502
 9664TIP3    H153187   3.818   0.468  10.994 -0.9245 -1.7695 -1.1748
 9664TIP3    H253188   3.960   0.488  11.042 -1.0249  0.3699 -1.6953
 9665TIP3   OH253189   1.793   3.531  11.406  0.3647 -0.3666  0.4539
 9665TIP3    H153190   1.802   3.622  11.434  1.2296 -0.4471  0.4624
 9665TIP3    H253191   1.699   3.514  11.411  0.0089  0.9752 -0.9662
 9666TIP3   OH253192   3.051   3.843  12.266 -0.1945  0.4820  0.0531
 9666TIP3    H153193   3.113   3.916  12.268 -0.0103  0.3010  1.1340
 9666TIP3    H253194   3.105   3.765  12.281 -0.1979 -0.0471 -2.2569
 9667TIP3   OH253195   1.759   4.391  13.425 -0.3314 -0.4942 -0.7407
 9667TIP3    H153196   1.767   4.331  13.499 -0.4462  0.0387 -0.2926
 9667TIP3    H253197   1.832   4.452  13.435 -0.7952  0.0459 -0.6350
 9668TIP3   OH253198   0.757   7.572  13.060 -0.5945  0.4855  0.0209
 9668TIP3    H153199   0.823   7.522  13.109 -1.1427 -0.8602 -0.5759
 9668TIP3    H253200   0.782   7.663  13.074  1.8602  0.0159 -0.8087
 9669TIP3   OH253201   3.166   7.487  12.732  0.1352 -0.1228  0.4652
 9669TIP3    H153202   3.190   7.553  12.667  0.7382  0.4253  1.2331
 9669TIP3    H253203   3.242   7.479  12.788  0.2150 -1.7545  0.1893
 9670TIP3   OH253204   3.210   6.908  12.330  0.3656  0.3863  0.4174
 9670TIP3    H153205   3.210   6.992  12.376  0.7263 -0.7922  2.7037
 9670TIP3    H253206   3.295   6.870  12.349 -0.0937 -0.8481  0.0878
 9671TIP3   OH253207   1.102   6.358  12.723 -0.2879  0.1177  0.0093
 9671TIP3    H153208   1.056   6.432  12.763 -1.2915  0.2685 -1.3522
 9671TIP3    H253209   1.155   6.398  12.654  0.0049 -0.3290 -0.0279
 9672TIP3   OH253210   5.114   0.357  11.442  0.3952  0.4710 -0.0816
 9672TIP3    H153211   5.116   0.274  11.489  1.0741  0.8238  0.5367
 9672TIP3    H253212   5.107   0.424  11.511 -2.6806  0.8847 -0.6393
 9673TIP3   OH253213   1.793   1.776  11.545  0.1732 -0.6574  0.1895
 9673TIP3    H153214   1.781   1.813  11.632  0.3126  0.1126 -0.1160
 9673TIP3    H253215   1.875   1.726  11.551 -0.3721 -1.5146  0.7894
 9674TIP3   OH253216   1.396   2.262  12.329  0.0966  0.1566  0.3167
 9674TIP3    H153217   1.382   2.336  12.389  2.6549 -0.2563  1.5549
 9674TIP3    H253218   1.348   2.189  12.368 -1.8099  0.8926 -0.5102
 9675TIP3   OH253219   0.718   3.526  11.751 -0.2365  1.0042 -0.0276
 9675TIP3    H153220   0.668   3.582  11.811 -0.7664  0.1139  0.3754
 9675TIP3    H253221   0.667   3.526  11.670 -0.5883  0.5578  0.1946
 9676TIP3   OH253222   1.898   5.989  10.455 -0.5272  0.3188 -0.3797
 9676TIP3    H153223   1.832   5.953  10.513 -1.3207  1.6839 -0.3861
 9676TIP3    H253224   1.952   6.046  10.510 -0.0648  0.1155 -0.6072
 9677TIP3   OH253225   0.715   7.536  11.576 -0.6044 -0.1456  0.2129
 9677TIP3    H153226   0.624   7.567  11.585 -0.6003  0.0182 -0.2748
 9677TIP3    H253227   0.708   7.459  11.520 -0.2527  0.9274 -1.3577
 9678TIP3   OH253228   4.432   2.210  12.410 -0.3122 -0.2331  0.4647
 9678TIP3    H153229   4.472   2.170  12.333 -1.4844 -0.0610 -0.2625
 9678TIP3    H253230   4.463   2.157  12.484  0.1363 -0.9377 -0.2149
 9679TIP3   OH253231   2.316   1.385  11.193  0.1756 -0.4799 -0.2257
 9679TIP3    H153232   2.323   1.428  11.108  0.2570 -1.5461 -0.7854
 9679TIP3    H253233   2.278   1.299  11.173 -0.5774 -0.4352  0.9206
 9680TIP3   OH253234   5.605   6.993  11.073 -0.5094  0.3760  0.1245
 9680TIP3    H153235   5.532   7.052  11.093  0.1293  1.6034 -0.9778
 9680TIP3    H253236   5.579   6.950  10.992  0.0716  1.0259 -0.4281
 9681TIP3   OH253237   4.945   5.668  10.644 -0.7488 -0.1211  0.3468
 9681TIP3    H153238   4.949   5.688  10.737  1.0277  0.5295  0.1570
 9681TIP3    H253239   5.036   5.669  10.614 -1.3446  0.7599 -1.6193
 9682TIP3   OH253240   2.661   7.633  10.881 -0.0086 -0.7874  0.2715
 9682TIP3    H153241   2.653   7.726  10.901 -0.8288 -0.8303  0.1773
 9682TIP3    H253242   2.755   7.620  10.863 -0.0836  0.2886 -1.0424
 9683TIP3   OH253243   4.475   5.646  12.398  0.4248 -0.0714  0.0939
 9683TIP3    H153244   4.558   5.662  12.353  0.4535 -0.0876  0.1397
 9683TIP3    H253245   4.462   5.724  12.452  1.1822 -0.7209  1.2557
 9684TIP3   OH253246   6.848   5.950  10.721  0.2161 -0.9541 -0.4023
 9684TIP3    H153247   6.917   5.892  10.752  0.5454 -0.1263  0.4569
 9684TIP3    H253248   6.768   5.898  10.729  0.0450 -0.3349  3.3775
 9685TIP3   OH253249   7.652   6.818  12.135 -0.2125  0.3298  0.3998
 9685TIP3    H153250   7.624   6.733  12.170 -0.2042  0.6737  1.2683
 9685TIP3    H253251   7.724   6.797  12.076 -0.2744 -0.2725  0.5293
 9686TIP3   OH253252   5.338   3.876  11.092 -0.2041  0.9030  0.1411
 9686TIP3    H153253   5.269   3.836  11.039 -1.5590 -0.1845  2.5334
 9686TIP3    H253254   5.322   3.970  11.086 -1.4105  0.6996  0.0295
 9687TIP3   OH253255   2.791   4.196  12.472  0.0596  0.3943  0.6879
 9687TIP3    H153256   2.713   4.248  12.495 -0.5678 -0.8070  1.3755
 9687TIP3    H253257   2.786   4.120  12.530  2.2523  0.7235  1.3951
 9688TIP3   OH253258   1.124   4.467  11.067  0.0773  0.4072 -0.0396
 9688TIP3    H153259   1.134   4.444  10.975  0.6812  0.1647  0.0802
 9688TIP3    H253260   1.209   4.446  11.106  0.0287  1.0970  0.4468
 9689TIP3   OH253261   3.541   5.898  13.200 -0.2455 -0.0557 -0.1895
 9689TIP3    H153262   3.616   5.859  13.245 -1.5491 -4.4098 -1.3237
 9689TIP3    H253263   3.549   5.992  13.217  3.3709 -0.6700  2.7687
 9690TIP3   OH253264   2.428   7.019  12.625 -0.0662 -0.3147 -0.2632
 9690TIP3    H153265   2.449   6.990  12.714  0.4696 -0.9089 -0.5794
 9690TIP3    H253266   2.402   7.110  12.636  0.0927 -0.3492  0.4930
 9691TIP3   OH253267   6.261   4.714  12.378 -0.1261 -0.0939  0.3420
 9691TIP3    H153268   6.335   4.680  12.429 -0.7231 -0.7825  0.7763
 9691TIP3    H253269   6.220   4.636  12.341 -2.1022 -0.0122  2.1386
 9692TIP3   OH253270   2.731   7.184  10.472  0.3351  0.3680 -0.1595
 9692TIP3    H153271   2.650   7.134  10.479  0.8378 -0.3947  0.3455
 9692TIP3    H253272   2.729   7.243  10.548 -0.3048  1.2074 -0.8102
 9693TIP3   OH253273   0.340   1.467  10.271 -0.1831  0.2609 -0.2014
 9693TIP3    H153274   0.380   1.438  10.353 -2.1735  1.4553  1.2616
 9693TIP3    H253275   0.272   1.402  10.253  0.9469 -0.6064 -1.5559
 9694TIP3   OH253276   6.222   6.595  12.027  0.1258 -0.4705  0.0858
 9694TIP3    H153277   6.267   6.628  11.949 -0.9735  0.4485 -0.1924
 9694TIP3    H253278   6.274   6.626  12.101  0.1919  0.2152 -0.2416
 9695TIP3   OH253279   2.460   4.747  13.295  0.4441 -0.4760 -0.2167
 9695TIP3    H153280   2.418   4.679  13.347  1.9358 -0.3353  1.2696
 9695TIP3    H253281   2.520   4.790  13.356  0.5935  1.2280 -1.4934
 9696TIP3   OH253282   2.488   5.748  12.230  0.0174 -0.1401  0.0258
 9696TIP3    H153283   2.465   5.747  12.137  2.1677 -2.6871 -0.6208
 9696TIP3    H253284   2.416   5.703  12.273 -0.2624 -0.3344 -0.6335
 9697TIP3   OH253285   6.186   5.123  10.931  0.5025  0.0843  0.2688
 9697TIP3    H153286   6.138   5.066  10.870  1.6435  1.3496 -1.9520
 9697TIP3    H253287   6.189   5.074  11.013 -1.9257 -1.3146 -0.3854
 9698TIP3   OH253288   2.205   1.373  13.300 -0.2085  0.5009 -0.3349
 9698TIP3    H153289   2.230   1.429  13.226 -0.3461  0.5391 -0.3540
 9698TIP3    H253290   2.234   1.421  13.377  1.1329 -0.1585 -0.4119
 9699TIP3   OH253291   0.461   1.906  10.356 -0.7345  0.1233  0.6361
 9699TIP3    H153292   0.390   1.857  10.313 -0.0336  0.2050 -0.6776
 9699TIP3    H253293   0.540   1.854  10.338 -0.4557  0.0078  2.1194
 9700TIP3   OH253294   0.478   2.310  11.610 -0.0022 -0.0050  0.0956
 9700TIP3    H153295   0.449   2.400  11.601  0.3675  0.1175  0.0989
 9700TIP3    H253296   0.573   2.314  11.598  0.4348  0.0141  2.9780
 9701TIP3   OH253297   6.458   6.140  12.125  0.3244 -0.1537 -0.0677
 9701TIP3    H153298   6.518   6.181  12.187  1.4070 -1.2898 -0.3090
 9701TIP3    H253299   6.446   6.206  12.056  1.4153  0.0583 -0.0746
 9702TIP3   OH253300   1.169   0.272  12.902 -0.0491  0.2962  0.0328
 9702TIP3    H153301   1.180   0.279  12.997 -0.9447  0.0244  0.1682
 9702TIP3    H253302   1.195   0.183  12.881 -1.3463 -0.1588  0.2674
 9703TIP3   OH253303   5.725   4.799  11.910  0.1912 -0.4189 -0.2880
 9703TIP3    H153304   5.783   4.730  11.941  1.4562  1.3173  1.4966
 9703TIP3    H253305   5.748   4.811  11.818  0.2702 -2.0248 -0.4963
 9704TIP3   OH253306   1.831   0.925  13.043  0.1549 -0.0811  0.0038
 9704TIP3    H153307   1.770   0.857  13.070  0.2894  0.1908  1.0101
 9704TIP3    H253308   1.910   0.909  13.094  0.8638 -0.2973 -1.1326
 9705TIP3   OH253309   4.642   0.785  11.961  0.4637 -0.3011 -0.2003
 9705TIP3    H153310   4.664   0.693  11.977  0.7807 -0.1197  0.4484
 9705TIP3    H253311   4.695   0.809  11.885 -0.6587 -1.0300 -1.2519
 9706TIP3   OH253312   5.492   4.473  12.119 -0.1207 -0.2489  0.1005
 9706TIP3    H153313   5.565   4.413  12.126  0.4984  0.2791 -1.4438
 9706TIP3    H253314   5.419   4.427  12.160  0.1263 -2.4154 -1.6633
 9707TIP3   OH253315   0.001   4.824  11.384 -0.4015  0.3673 -0.1177
 9707TIP3    H153316  -0.037   4.872  11.311  0.8463  0.3515 -0.8106
 9707TIP3    H253317   0.044   4.748  11.343  0.4131  0.4200  0.6002
 9708TIP3   OH253318   4.196   4.265  11.703  0.8123  0.2023  0.5280
 9708TIP3    H153319   4.157   4.264  11.791 -0.6148 -0.3188 -0.0810
 9708TIP3    H253320   4.175   4.180  11.666  0.0288  0.9602 -0.8850
 9709TIP3   OH253321   6.643   1.779  11.581  0.2022 -0.4662  0.6598
 9709TIP3    H153322   6.703   1.713  11.547  0.3339 -0.6331  1.2176
 9709TIP3    H253323   6.699   1.852  11.607  0.0925 -0.2982  0.4244
 9710TIP3   OH253324   6.821   5.423  11.902  0.0867  0.1331  0.0351
 9710TIP3    H153325   6.866   5.343  11.874  1.4248  0.3535  1.3972
 9710TIP3    H253326   6.823   5.480  11.826  0.7521 -0.4596 -0.4056
 9711TIP3   OH253327   7.540   5.052  12.787  0.1840 -0.3571 -0.0851
 9711TIP3    H153328   7.526   5.003  12.868  0.5470  0.9093  0.7829
 9711TIP3    H253329   7.469   5.116  12.785  1.5988  1.3290  0.6202
 9712TIP3   OH253330   5.504   3.791  12.979  0.3139  0.2843  0.7647
 9712TIP3    H153331   5.557   3.713  12.995 -0.3213 -0.9846 -2.5325
 9712TIP3    H253332   5.566   3.864  12.983  1.9948 -0.9514 -0.9524
 9713TIP3   OH253333   0.066   0.600  12.165  0.4404 -0.1774 -0.3362
 9713TIP3    H153334   0.001   0.667  12.141  1.5843  0.8512 -0.6726
 9713TIP3    H253335   0.131   0.647  12.216 -0.8631 -1.9138  3.2274
 9714TIP3   OH253336   6.988   4.500  10.538  0.1231 -0.3054  0.2683
 9714TIP3    H153337   6.951   4.580  10.501  0.5799 -1.2024 -2.3591
 9714TIP3    H253338   7.082   4.510  10.528  0.1925 -1.1146  0.0337
 9715TIP3   OH253339   5.662   0.421  12.889 -0.3880 -0.4972 -0.3579
 9715TIP3    H153340   5.600   0.411  12.816 -0.7981 -1.6388  0.1363
 9715TIP3    H253341   5.693   0.512  12.881  0.1521 -0.8149 -2.3955
 9716TIP3   OH253342   4.643   6.335  12.266  0.0207  0.3111 -0.1225
 9716TIP3    H153343   4.585   6.289  12.326 -0.8942  0.5160 -0.8316
 9716TIP3    H253344   4.592   6.345  12.186  0.6501  1.4539 -0.4007
 9717TIP3   OH253345   1.051   4.257  11.818  0.0991  0.1916  0.7483
 9717TIP3    H153346   1.112   4.225  11.752 -1.1097  0.3362 -0.4951
 9717TIP3    H253347   1.100   4.255  11.900  1.0948 -1.6603  0.1539
 9718TIP3   OH253348   7.147   6.448  12.932  0.0217  0.2850  0.7070
 9718TIP3    H153349   7.239   6.473  12.944  0.2240 -1.1174  2.4792
 9718TIP3    H253350   7.098   6.521  12.968  0.4585  0.5633  0.7512
 9719TIP3   OH253351   2.873   5.070  12.106 -0.3864 -0.3894 -0.1804
 9719TIP3    H153352   2.818   5.013  12.052 -0.1696  0.4962 -1.3710
 9719TIP3    H253353   2.828   5.155  12.104  0.6733  0.1755 -0.6555
 9720TIP3   OH253354   1.039   1.293  12.217 -0.6832 -0.1958  0.1616
 9720TIP3    H153355   1.069   1.213  12.260 -0.0992  0.6568  1.3960
 9720TIP3    H253356   1.118   1.330  12.176 -0.4698  0.8700  1.4759
 9721TIP3   OH253357   3.188   4.470  11.764 -0.0642 -0.6775  0.1319
 9721TIP3    H153358   3.198   4.390  11.816  2.9680 -1.0928 -0.8919
 9721TIP3    H253359   3.141   4.441  11.686 -0.3618 -1.1178  0.4699
 9722TIP3   OH253360   6.952   2.632  11.118 -0.2848 -0.2279  0.0315
 9722TIP3    H153361   6.931   2.724  11.132  1.0018  0.0238  0.4752
 9722TIP3    H253362   6.873   2.585  11.144 -0.5143  0.6818  1.0638
 9723TIP3   OH253363   0.631   0.378  12.463 -0.5923  0.3813  0.1204
 9723TIP3    H153364   0.662   0.353  12.550 -1.9459  0.1214  0.5451
 9723TIP3    H253365   0.699   0.437  12.430 -0.2154  0.7501  1.4819
 9724TIP3   OH253366   6.639   2.697  10.628 -0.2033 -0.3472  0.1813
 9724TIP3    H153367   6.547   2.670  10.628 -0.5411  0.7225  0.5544
 9724TIP3    H253368   6.669   2.679  10.717 -0.5957  0.9578  0.6053
 9725TIP3   OH253369   5.629   3.232  11.563 -0.1149  0.4518  0.6080
 9725TIP3    H153370   5.655   3.299  11.626  2.3945 -0.4971  0.6795
 9725TIP3    H253371   5.615   3.154  11.616  0.5153  0.0324  0.1681
 9726TIP3   OH253372   6.634   6.086  12.768 -0.5620  0.4560 -0.0189
 9726TIP3    H153373   6.575   6.062  12.839  0.0724  0.3351  0.4761
 9726TIP3    H253374   6.721   6.057  12.798 -0.4590 -0.7169 -1.3513
 9727TIP3   OH253375   6.056   7.646  12.558  0.2266 -0.7579 -0.3996
 9727TIP3    H153376   5.988   7.579  12.566  0.6621 -1.2663 -0.8759
 9727TIP3    H253377   6.080   7.667  12.648  0.2508 -1.4083 -0.2488
 9728TIP3   OH253378   7.549   6.323  12.962  0.1598  0.3578 -0.2129
 9728TIP3    H153379   7.591   6.292  13.043 -2.0631 -1.6939  0.2827
 9728TIP3    H253380   7.490   6.393  12.991 -0.3271 -0.0926 -0.0973
 9729TIP3   OH253381   4.314   2.284  10.769 -0.0609 -0.0387 -0.0634
 9729TIP3    H153382   4.290   2.192  10.755 -0.0768  0.0388 -0.5463
 9729TIP3    H253383   4.232   2.332  10.759  0.4906  0.4411 -3.5758
 9730TIP3   OH253384   6.429   2.612  11.967 -0.2120 -1.0467  0.3439
 9730TIP3    H153385   6.336   2.634  11.969  0.1974  0.8144  1.4906
 9730TIP3    H253386   6.465   2.654  12.045  1.5977 -1.7072 -0.0886
 9731TIP3   OH253387   4.154   0.973  12.287  0.3197 -0.1613  0.4699
 9731TIP3    H153388   4.197   0.923  12.357 -0.5867 -0.4829  0.8125
 9731TIP3    H253389   4.075   1.008  12.328 -1.1618 -1.8296 -0.8253
 9732TIP3   OH253390   0.921   5.825  11.615 -0.1658  0.0136 -0.8131
 9732TIP3    H153391   0.972   5.905  11.624 -1.9532  1.1442 -0.4130
 9732TIP3    H253392   0.922   5.806  11.521  2.2542 -0.8967 -0.6720
 9733TIP3   OH253393   5.674   1.556  11.452 -0.1029 -0.4238  0.4136
 9733TIP3    H153394   5.625   1.587  11.528  1.7436  0.7492  1.2013
 9733TIP3    H253395   5.663   1.625  11.386  0.0083 -0.4250  0.3929
 9734TIP3   OH253396   6.103   3.322  11.730  0.3701  0.5377 -0.4313
 9734TIP3    H153397   6.150   3.365  11.658  2.3359 -3.0885 -1.5531
 9734TIP3    H253398   6.171   3.278  11.780 -1.2760  0.5722  1.9990
 9735TIP3   OH253399   0.266   4.779  10.899  0.0639 -0.5921 -0.3961
 9735TIP3    H153400   0.229   4.691  10.903  1.2908 -1.3533  6.4105
 9735TIP3    H253401   0.358   4.766  10.874 -0.0299 -1.1379 -0.4587
 9736TIP3   OH253402   5.493   6.144  12.965  0.0936  0.5987 -0.3492
 9736TIP3    H153403   5.414   6.100  12.933  0.0755 -0.3096  0.8671
 9736TIP3    H253404   5.502   6.221  12.909 -0.6799 -0.1912 -1.6282
 9737TIP3   OH253405   2.327   5.520  12.619  0.5614 -0.0024 -0.1344
 9737TIP3    H153406   2.324   5.424  12.611  0.2539 -0.0466  0.4432
 9737TIP3    H253407   2.331   5.551  12.529  0.0865 -0.5458 -0.3500
 9738TIP3   OH253408   6.256   7.025  11.392  0.4415  0.4856  0.1824
 9738TIP3    H153409   6.214   7.006  11.308  1.2981  0.5883 -0.2832
 9738TIP3    H253410   6.208   6.973  11.455 -1.6543  2.0568 -0.0078
 9739TIP3   OH253411   3.511   2.636  11.104 -0.1581 -0.1920  0.7445
 9739TIP3    H153412   3.596   2.645  11.061 -0.0864  1.4646  1.1546
 9739TIP3    H253413   3.514   2.549  11.144  1.5405  0.0053  1.1510
 9740TIP3   OH253414   4.933   3.237  12.839  0.0182 -0.1473  0.5460
 9740TIP3    H153415   4.887   3.176  12.897 -0.3889 -0.6641 -0.2989
 9740TIP3    H253416   5.018   3.197  12.824 -0.4724 -0.8410 -0.5002
 9741TIP3   OH253417   3.341   1.263  13.168  0.2912  0.0448 -0.7785
 9741TIP3    H153418   3.415   1.250  13.227  0.1935 -0.2139 -0.7096
 9741TIP3    H253419   3.264   1.253  13.223  0.2063  1.1668 -0.6809
 9742TIP3   OH253420   1.884   0.198  10.461  0.1951  0.6820 -0.2092
 9742TIP3    H153421   1.852   0.264  10.399 -2.1661  0.4749  0.6568
 9742TIP3    H253422   1.873   0.240  10.547 -1.2714 -0.7231  0.3508
 9743TIP3   OH253423   0.155   0.553  12.929 -0.0743  0.0321 -0.2639
 9743TIP3    H153424   0.187   0.638  12.898 -0.3116 -0.1094 -0.9130
 9743TIP3    H253425   0.194   0.543  13.016  0.6634  0.4116 -0.5411
 9744TIP3   OH253426   6.299   5.984  11.946 -0.2548  0.0081 -0.5095
 9744TIP3    H153427   6.379   6.028  11.975 -0.7336 -1.1172  3.1165
 9744TIP3    H253428   6.237   6.000  12.018 -2.0720 -2.2506 -1.4668
 9745TIP3   OH253429   1.501   4.735  12.879  0.5171  0.6177 -0.2546
 9745TIP3    H153430   1.465   4.741  12.968 -0.5885 -0.5019 -0.5989
 9745TIP3    H253431   1.566   4.665  12.885 -0.2379 -0.1168 -0.5308
 9746TIP3   OH253432   1.478   1.856  11.499  0.2593 -0.2277 -0.0572
 9746TIP3    H153433   1.421   1.930  11.479 -0.9585 -1.2637 -0.5394
 9746TIP3    H253434   1.466   1.796  11.425  0.9381 -1.0833  0.5020
 9747TIP3   OH253435   6.652   0.706  11.699  0.4101  0.0147 -0.4475
 9747TIP3    H153436   6.570   0.672  11.734  0.9103  0.0324  0.7911
 9747TIP3    H253437   6.638   0.710  11.604 -0.6707 -0.8751 -0.3435
 9748TIP3   OH253438   3.747   5.588  11.574  0.7053 -0.0265 -0.1185
 9748TIP3    H153439   3.690   5.627  11.508  0.4508  0.7626  0.5496
 9748TIP3    H253440   3.810   5.657  11.594  2.1012 -0.9761 -1.0575
 9749TIP3   OH253441   4.868   6.853  11.004  0.0646 -0.6820  0.0746
 9749TIP3    H153442   4.873   6.766  10.965  0.8531 -1.2086  1.2735
 9749TIP3    H253443   4.960   6.881  11.010 -0.1557  0.0421  0.0896
 9750TIP3   OH253444   6.771   4.930  13.283 -0.0984  0.1183  0.0308
 9750TIP3    H153445   6.831   4.913  13.356 -0.2409 -1.1871 -0.1206
 9750TIP3    H253446   6.765   5.025  13.278 -0.1766  0.2373  1.7926
 9751TIP3   OH253447   6.579   3.358  11.013  0.1322  0.3168  0.1013
 9751TIP3    H153448   6.507   3.360  11.076  0.8180  0.7701  0.8869
 9751TIP3    H253449   6.625   3.276  11.030  0.2408  0.3769  0.0996
 9752TIP3   OH253450   2.088   5.944  10.778  0.2643  0.1427 -0.4025
 9752TIP3    H153451   2.161   5.929  10.839 -2.2262  1.7827  3.3936
 9752TIP3    H253452   2.079   5.862  10.729  2.6601 -1.1996  1.2070
 9753TIP3   OH253453   6.519   1.585  11.832  0.5627 -0.0116  0.0275
 9753TIP3    H153454   6.491   1.672  11.803 -0.2588 -0.0647  0.6076
 9753TIP3    H253455   6.538   1.538  11.751  0.9920  0.6980 -0.2954
 9754TIP3   OH253456   1.141   5.108  11.263  0.2741 -0.0042 -0.0783
 9754TIP3    H153457   1.186   5.112  11.348 -0.0028 -0.0730  0.0744
 9754TIP3    H253458   1.088   5.028  11.268  1.8996 -1.2060 -1.1506
 9755TIP3   OH253459   3.152   7.571  10.485  0.5004  0.1931  0.2409
 9755TIP3    H153460   3.131   7.478  10.479 -0.4001  0.1983  2.3646
 9755TIP3    H253461   3.188   7.582  10.573 -0.0666  1.9576  0.2955
 9756TIP3   OH253462   5.661   4.424  11.707  0.1792  0.3628 -0.6867
 9756TIP3    H153463   5.698   4.495  11.655 -0.9285 -1.0359 -3.5904
 9756TIP3    H253464   5.567   4.443  11.709  0.1879  0.3421  0.8282
 9757TIP3   OH253465   6.566   5.631  12.439 -0.0745  0.1764  0.5506
 9757TIP3    H153466   6.567   5.538  12.418 -0.2211  0.2300  0.3094
 9757TIP3    H253467   6.546   5.634  12.533 -0.9145 -0.0048  0.3821
 9758TIP3   OH253468   2.533   5.043  12.167 -0.6454  0.2874  0.0751
 9758TIP3    H153469   2.559   5.132  12.145  0.1003 -0.1012 -0.6721
 9758TIP3    H253470   2.522   4.999  12.082  0.0491 -0.6186  0.4359
 9759TIP3   OH253471   3.993   2.604  11.615  0.5538  0.0462  0.0741
 9759TIP3    H153472   4.083   2.620  11.587  0.5337  1.2459  0.6431
 9759TIP3    H253473   4.001   2.571  11.704  0.4414 -0.2684 -0.0297
 9760TIP3   OH253474   1.995   7.622  10.377  0.3121  0.1402  0.2657
 9760TIP3    H153475   1.958   7.533  10.375  0.7947 -0.1610 -3.5492
 9760TIP3    H253476   1.918   7.679  10.387 -0.1928 -0.6247  0.9618
 9761TIP3   OH253477   2.466   2.384  12.208  0.3605 -0.7243 -0.0344
 9761TIP3    H153478   2.501   2.295  12.203 -0.8472 -1.1902 -0.4844
 9761TIP3    H253479   2.440   2.405  12.119  0.6375  0.0852  0.0701
 9762TIP3   OH253480   2.155   4.475  12.088 -0.3445 -0.2917 -0.4559
 9762TIP3    H153481   2.179   4.431  12.170 -1.2784 -0.5422 -0.3027
 9762TIP3    H253482   2.060   4.484  12.093 -0.4626 -0.6745 -1.6969
 9763TIP3   OH253483   5.638   6.600  11.699 -1.0562  0.6334 -0.7638
 9763TIP3    H153484   5.558   6.651  11.708 -0.0157  2.0183  1.3311
 9763TIP3    H253485   5.698   6.659  11.653 -0.1081  1.0766  0.9550
 9764TIP3   OH253486   0.233   2.063  12.573 -0.0444  0.1772 -0.0849
 9764TIP3    H153487   0.141   2.043  12.585 -0.3959  1.4039 -0.6528
 9764TIP3    H253488   0.270   2.062  12.661 -0.2517 -1.8124  0.0315
 9765TIP3   OH253489   6.476   6.497  10.889 -0.2757  0.0910  0.0672
 9765TIP3    H153490   6.391   6.490  10.932 -0.9600  1.0091 -1.0860
 9765TIP3    H253491   6.518   6.573  10.931 -0.4112  0.2058 -0.0053
 9766TIP3   OH253492   7.163   6.871  10.401 -0.1607 -0.5684 -0.1425
 9766TIP3    H153493   7.259   6.870  10.401 -0.1568 -1.2817  0.7456
 9766TIP3    H253494   7.139   6.780  10.383 -0.6612 -0.5068  0.2076
 9767TIP3   OH253495   4.612   4.784  12.205  0.2444  0.1923 -0.0636
 9767TIP3    H153496   4.638   4.841  12.277 -0.1802  0.1413  0.1328
 9767TIP3    H253497   4.694   4.760  12.162  0.4983  0.2193  0.4046
 9768TIP3   OH253498   3.387   3.923  12.794  0.0040 -0.0425  0.0447
 9768TIP3    H153499   3.391   3.838  12.837  0.6534  0.8963  1.9126
 9768TIP3    H253500   3.478   3.944  12.773 -0.0149  0.7034  0.6673
 9769TIP3   OH253501   6.092   7.551  12.272  0.6197 -0.2972 -0.2570
 9769TIP3    H153502   6.095   7.463  12.309  0.3989 -0.8069 -1.4023
 9769TIP3    H253503   6.071   7.608  12.346 -2.0736 -1.5202  0.0368
 9770TIP3   OH253504   5.227   1.582  10.781 -0.4129  0.0250  0.4145
 9770TIP3    H153505   5.133   1.601  10.780 -0.2212  1.0678 -0.3356
 9770TIP3    H253506   5.256   1.614  10.867 -0.8049 -0.6701  0.8125
 9771TIP3   OH253507   6.871   2.530  10.542 -0.0475  0.0298  0.0401
 9771TIP3    H153508   6.835   2.605  10.590  1.3072  0.5522  0.2886
 9771TIP3    H253509   6.963   2.526  10.569 -0.2117 -2.0920  0.4978
 9772TIP3   OH253510   2.606   1.368  10.794 -0.4452 -0.0804  0.0136
 9772TIP3    H153511   2.631   1.452  10.833 -4.2837  1.1743  0.2446
 9772TIP3    H253512   2.607   1.385  10.700 -2.1620  0.6757  0.0798
 9773TIP3   OH253513   7.602   3.111  12.592  0.6295 -0.5515  0.0630
 9773TIP3    H153514   7.638   3.022  12.602  1.3303 -0.2609  0.2016
 9773TIP3    H253515   7.508   3.099  12.595  0.6752 -1.4633 -1.2443
 9774TIP3   OH253516   4.843   3.238  12.316  0.3701  0.3950  0.0386
 9774TIP3    H153517   4.829   3.187  12.236 -1.6463 -0.6109  0.9532
 9774TIP3    H253518   4.869   3.325  12.285 -0.1397 -0.0350 -1.6898
 9775TIP3   OH253519   5.123   5.535  11.048 -0.0317 -0.2277  0.8511
 9775TIP3    H153520   5.072   5.492  11.117 -0.1504 -0.2601  0.7425
 9775TIP3    H253521   5.162   5.611  11.092 -0.6384  0.1205  0.7886
 9776TIP3   OH253522   5.695   3.922  11.809  0.0212 -0.1201  0.3584
 9776TIP3    H153523   5.702   3.933  11.903  0.6113  0.0518  0.2969
 9776TIP3    H253524   5.629   3.986  11.781  0.1692  0.1306  0.5916
 9777TIP3   OH253525   0.212   5.869  12.120 -0.0041  0.7261  0.4465
 9777TIP3    H153526   0.183   5.949  12.164  0.7849  1.3513 -0.1357
 9777TIP3    H253527   0.183   5.799  12.178 -1.7945  1.3425  0.3823
 9778TIP3   OH253528   0.759   1.654  11.757  0.6454 -0.1289  0.0919
 9778TIP3    H153529   0.824   1.621  11.695  0.6939 -0.8122  0.5055
 9778TIP3    H253530   0.704   1.579  11.778 -1.2235  0.7285 -1.3702
 9779TIP3   OH253531   4.192   4.128  12.133 -0.0217  0.8493 -0.2428
 9779TIP3    H153532   4.166   4.168  12.050  2.0090  0.8678 -0.9400
 9779TIP3    H253533   4.197   4.202  12.195 -0.4413  1.0077 -0.3938
 9780TIP3   OH253534   4.736   5.480  11.796  0.1130  0.1563 -0.3005
 9780TIP3    H153535   4.733   5.542  11.724 -0.1320 -1.8674 -2.1313
 9780TIP3    H253536   4.658   5.500  11.848 -0.1112  1.1657 -0.9945
 9781TIP3   OH253537   1.297   4.139  10.785 -1.2582 -0.0919  0.5452
 9781TIP3    H153538   1.382   4.126  10.827 -1.3008  0.8002  0.9304
 9781TIP3    H253539   1.266   4.051  10.766  0.3956 -0.4063 -0.9300
 9782TIP3   OH253540   4.041   5.115  12.136 -0.3928 -0.3583 -0.2000
 9782TIP3    H153541   4.050   5.031  12.091  0.8028 -1.4231  1.8533
 9782TIP3    H253542   3.957   5.109  12.182 -0.2492 -0.5172  0.0498
 9783TIP3   OH253543   5.346   5.049  10.789  0.0414 -0.6541 -0.1214
 9783TIP3    H153544   5.385   5.133  10.762 -0.2210 -0.4055  0.2566
 9783TIP3    H253545   5.329   5.061  10.883 -1.4193 -0.5674 -0.3740
 9784TIP3   OH253546   0.829   4.267  11.944  0.8265 -0.4003  0.1359
 9784TIP3    H153547   0.779   4.186  11.937 -0.3574  0.2106  1.2551
 9784TIP3    H253548   0.900   4.256  11.880 -0.8072 -1.2233 -1.6665
 9785TIP3   OH253549   1.316   5.154  11.550 -0.1087  0.2993 -0.0853
 9785TIP3    H153550   1.296   5.247  11.545 -1.5220  0.0297  0.2031
 9785TIP3    H253551   1.243   5.116  11.599  0.7592 -0.8709  0.3350
 9786TIP3   OH253552   2.155   1.935  11.252  0.0143  0.6757 -0.0909
 9786TIP3    H153553   2.103   1.991  11.309 -2.1040 -0.3866 -0.8801
 9786TIP3    H253554   2.213   1.887  11.311  1.2822  3.0050  0.6727
 9787TIP3   OH253555   6.951   7.531  11.089 -0.0776 -0.4253  0.6310
 9787TIP3    H153556   6.899   7.465  11.135  1.9879 -2.8926 -0.3460
 9787TIP3    H253557   6.983   7.589  11.158 -3.0735  0.5700  1.3740
 9788TIP3   OH253558   1.862   5.314  13.087  0.1048  0.5125  0.4571
 9788TIP3    H153559   1.798   5.378  13.117 -0.1373  0.6371 -0.3248
 9788TIP3    H253560   1.868   5.326  12.993 -0.9130 -1.4561  0.0761
 9789TIP3   OH253561   3.756   3.966  11.846  0.4762 -0.1570  0.2806
 9789TIP3    H153562   3.782   3.916  11.924  0.3001  1.2910  1.3166
 9789TIP3    H253563   3.801   3.923  11.773  2.1221 -0.4664  1.4237
 9790TIP3   OH253564   7.597   1.242  11.917 -0.2278 -0.3186  0.2408
 9790TIP3    H153565   7.688   1.268  11.931  0.5201 -2.0449 -0.9532
 9790TIP3    H253566   7.547   1.322  11.932  1.6476  1.1494 -0.7683
 9791TIP3   OH253567   6.746   0.231  11.067 -0.4507  0.4331 -0.0182
 9791TIP3    H153568   6.817   0.180  11.029 -1.4023 -0.5736 -0.5029
 9791TIP3    H253569   6.776   0.322  11.061  0.9420  0.0087  0.1373
 9792TIP3   OH253570   4.129   1.521  11.926  0.1704 -0.4553  0.2857
 9792TIP3    H153571   4.054   1.493  11.979  0.7552 -0.6349  1.0269
 9792TIP3    H253572   4.144   1.449  11.866  0.5292 -0.9680  0.9740
 9793TIP3   OH253573   0.191   3.416  11.429  1.0142 -0.9263 -0.8591
 9793TIP3    H153574   0.206   3.375  11.514  0.9838 -0.0847 -0.4440
 9793TIP3    H253575   0.278   3.426  11.392  0.9612 -2.3272 -1.4404
 9794TIP3   OH253576   6.832   5.214  10.629  0.3163  0.0870 -0.0409
 9794TIP3    H153577   6.903   5.211  10.693  1.5455  1.5763 -1.2732
 9794TIP3    H253578   6.856   5.150  10.562  0.7891  0.9533 -0.7181
 9795TIP3   OH253579   2.876   5.908  11.901 -0.0499  0.3936  0.2862
 9795TIP3    H153580   2.960   5.899  11.857 -0.3023 -1.4272  0.1177
 9795TIP3    H253581   2.899   5.928  11.992  0.5191  1.2257 -0.0264
 9796TIP3   OH253582   7.283   6.451  10.175  0.1651  0.7100 -0.5186
 9796TIP3    H153583   7.321   6.409  10.252 -0.6127  1.8876  0.5555
 9796TIP3    H253584   7.357   6.478  10.122  0.6981 -1.3708 -0.9167
 9797TIP3   OH253585   2.155   5.302  12.888 -0.2144 -0.0932  0.1434
 9797TIP3    H153586   2.162   5.304  12.983 -1.6720  1.3457  0.2633
 9797TIP3    H253587   2.130   5.212  12.867 -1.7233  0.0066  1.3177
 9798TIP3   OH253588   5.931   3.083  10.707 -0.2073 -0.1411 -0.2735
 9798TIP3    H153589   5.885   3.144  10.764 -2.7483  0.0554 -2.3754
 9798TIP3    H253590   5.993   3.138  10.658  1.0943 -0.1288  1.2877
 9799TIP3   OH253591   1.793   4.913  11.593  0.1260 -0.1865  0.2002
 9799TIP3    H153592   1.755   4.837  11.548 -0.2152  0.4191 -0.5710
 9799TIP3    H253593   1.883   4.887  11.613  0.0217 -0.7833 -0.0790
 9800TIP3   OH253594   2.931   2.437  11.497 -0.3578 -0.1208  0.1188
 9800TIP3    H153595   2.899   2.489  11.422  0.7968 -1.2363 -1.2127
 9800TIP3    H253596   2.962   2.502  11.559 -0.1430  0.8309 -0.9465
 9801TIP3   OH253597   5.551   2.582  11.317 -0.4361  0.4251  0.1577
 9801TIP3    H153598   5.599   2.664  11.324 -1.5049  1.1066 -0.2544
 9801TIP3    H253599   5.523   2.578  11.226 -0.0791 -0.5873  0.0818
 9802TIP3   OH253600   0.677   6.422  11.789 -0.1533 -0.0470  0.3531
 9802TIP3    H153601   0.639   6.398  11.705  0.0659 -0.5748  0.3977
 9802TIP3    H253602   0.606   6.462  11.838 -0.3959 -0.1462  0.0814
 9803TIP3   OH253603   2.973   6.431  10.960  0.0776 -0.3117 -0.2900
 9803TIP3    H153604   2.894   6.449  10.909 -0.7899  0.4845  1.2582
 9803TIP3    H253605   3.045   6.448  10.900 -0.8660  1.7019 -0.9425
 9804TIP3   OH253606   1.695   0.458  11.894 -0.5783 -0.5750  0.0198
 9804TIP3    H153607   1.760   0.389  11.888  0.3234  0.2418  0.0744
 9804TIP3    H253608   1.746   0.539  11.896 -1.6426  0.1730 -1.2740
 9805TIP3   OH253609   5.509   2.910  10.627  0.3488  0.2078 -0.0922
 9805TIP3    H153610   5.527   2.966  10.702 -0.0163 -0.3273  0.4074
 9805TIP3    H253611   5.425   2.942  10.593  1.0267  1.1378 -0.9375
 9806TIP3   OH253612   2.681   1.502  12.614 -0.2900 -0.0469  0.0345
 9806TIP3    H153613   2.591   1.476  12.636 -0.4802  0.4244 -0.1874
 9806TIP3    H253614   2.675   1.540  12.527  0.6047 -2.7374 -1.3274
 9807TIP3   OH253615   1.759   6.363  10.527  0.1431 -1.1355  0.0489
 9807TIP3    H153616   1.745   6.448  10.485  1.2641 -0.6264  0.6370
 9807TIP3    H253617   1.687   6.355  10.589  0.2594 -0.4066  0.2922
 9808TIP3   OH253618   5.621   4.502  12.585  0.6203 -0.4690 -0.9176
 9808TIP3    H153619   5.716   4.501  12.595  0.5290 -0.3126  0.0430
 9808TIP3    H253620   5.603   4.578  12.529  0.8483  1.4168  1.4406
 9809TIP3   OH253621   6.932   7.016  11.014  0.3109 -0.0454  0.2252
 9809TIP3    H153622   6.874   7.033  10.940 -2.0660 -0.8874  1.7634
 9809TIP3    H253623   6.997   7.086  11.010  0.0107  0.1923 -2.3436
 9810TIP3   OH253624   0.409   3.423  11.291 -0.5051  0.0526  0.0562
 9810TIP3    H153625   0.449   3.470  11.218  1.3702  1.0704  1.6644
 9810TIP3    H253626   0.454   3.339  11.294 -0.2334  0.2077  0.3420
 9811TIP3   OH253627   5.379   4.681  10.837 -0.3412  0.0538 -0.4251
 9811TIP3    H153628   5.404   4.641  10.920 -1.7863  0.3113  0.1723
 9811TIP3    H253629   5.462   4.702  10.794  0.4376 -1.3790  0.3078
 9812TIP3   OH253630   7.626   1.270  11.338  0.6815 -0.4377 -0.0374
 9812TIP3    H153631   7.657   1.198  11.284  0.5651  0.1066 -0.8528
 9812TIP3    H253632   7.547   1.301  11.294 -0.8001 -1.4815  1.7300
 9813TIP3   OH253633   3.734   4.989  11.823  0.1323 -0.5921  0.2340
 9813TIP3    H153634   3.734   5.059  11.757 -0.8613  0.1240  0.9584
 9813TIP3    H253635   3.663   5.013  11.883 -0.3775 -2.3609  0.3776
 9814TIP3   OH253636   1.808   3.000  10.719  0.2170 -0.1397 -0.3067
 9814TIP3    H153637   1.725   3.047  10.712 -0.1870 -1.1114 -2.8772
 9814TIP3    H253638   1.861   3.055  10.778 -1.7702  1.1459  0.4007
 9815TIP3   OH253639   3.087   5.116  12.622 -0.1874  0.4122 -0.6894
 9815TIP3    H153640   3.140   5.075  12.553  3.4331  2.1269  0.7923
 9815TIP3    H253641   3.083   5.050  12.692  2.2544  1.0141  0.1279
 9816TIP3   OH253642   7.580   4.948  12.495  0.3585 -0.3018  0.8009
 9816TIP3    H153643   7.571   4.858  12.465 -4.1133 -0.0390  0.6995
 9816TIP3    H253644   7.604   4.940  12.587  0.9422 -1.5415  0.5596
 9817TIP3   OH253645   1.512   2.709  11.114  0.1878  0.4030  1.1422
 9817TIP3    H153646   1.576   2.641  11.138  2.2322  1.6694 -0.4281
 9817TIP3    H253647   1.467   2.729  11.196  1.4410 -0.9040  2.2047
 9818TIP3   OH253648   0.211   5.426  11.388  0.3731  0.4633 -0.1662
 9818TIP3    H153649   0.126   5.417  11.431  0.2021  0.1373 -0.5658
 9818TIP3    H253650   0.249   5.338  11.392  0.4518  0.4827 -0.4788
 9819TIP3   OH253651   3.163   4.529  12.743 -0.4513  0.0311 -0.1760
 9819TIP3    H153652   3.172   4.495  12.832  0.5109  0.6546 -0.0103
 9819TIP3    H253653   3.233   4.487  12.694 -0.0376  0.8045 -0.2657
 9820TIP3   OH253654   5.175   6.511  10.864 -0.5490 -0.0166  0.4385
 9820TIP3    H153655   5.175   6.520  10.959  2.5467  3.9860  0.3322
 9820TIP3    H253656   5.213   6.592  10.832 -0.2061 -1.6868 -4.2223
 9821TIP3   OH253657   3.050   0.146  10.870 -0.0635 -0.1079  0.2331
 9821TIP3    H153658   3.131   0.101  10.893  0.2166  0.3195  0.0965
 9821TIP3    H253659   3.010   0.091  10.803  0.1225 -0.3076  0.2844
 9822TIP3   OH253660   3.377   5.922  10.630 -0.2888  0.5532 -0.3545
 9822TIP3    H153661   3.285   5.915  10.608 -0.3211  0.7844 -0.2991
 9822TIP3    H253662   3.383   6.000  10.686 -0.3745 -0.6345  1.3664
 9823TIP3   OH253663   5.935   6.053  10.567 -0.2505  0.2425  0.2447
 9823TIP3    H153664   5.939   5.959  10.552  1.2338  0.4936 -1.2269
 9823TIP3    H253665   5.905   6.090  10.484  0.4892  1.1395  0.3516
 9824TIP3   OH253666   0.726   2.319  10.796  0.3727 -0.1295  0.1267
 9824TIP3    H153667   0.733   2.257  10.724 -1.4874 -0.5237  0.2232
 9824TIP3    H253668   0.755   2.269  10.873  1.4755  0.0072 -0.1801
 9825TIP3   OH253669   1.485   1.971  12.564 -0.5690  0.2231  0.6528
 9825TIP3    H153670   1.428   1.951  12.638 -0.3058  0.3493  0.8946
 9825TIP3    H253671   1.567   1.925  12.584  0.7295  2.9470  2.1693
 9826TIP3   OH253672   0.999   5.143  12.316  0.1355  0.5330  1.1325
 9826TIP3    H153673   0.910   5.175  12.306 -0.9635 -1.3904  3.5830
 9826TIP3    H253674   1.002   5.063  12.264 -0.1004 -0.1921  2.1908
 9827TIP3   OH253675   7.370   1.044  11.222  0.5111  0.5835  0.1244
 9827TIP3    H153676   7.452   1.028  11.177 -0.7733 -1.0918 -1.7895
 9827TIP3    H253677   7.380   0.998  11.306  0.8627 -1.3340 -0.8979
 9828TIP3   OH253678   0.925   0.586  11.984  0.3455  0.4274 -0.3182
 9828TIP3    H153679   0.979   0.602  12.062 -0.8475  0.8874  0.4465
 9828TIP3    H253680   0.847   0.640  11.998 -0.4878 -0.5130 -1.2073
 9829TIP3   OH253681   0.526   1.213  10.366  0.0761  0.4482  0.8317
 9829TIP3    H153682   0.564   1.296  10.337  2.2704  0.0939  2.3571
 9829TIP3    H253683   0.576   1.146  10.319 -0.0895 -0.0208  1.3093
 9830TIP3   OH253684   6.643   2.000  11.322 -0.0935 -0.2393  0.1714
 9830TIP3    H153685   6.614   2.090  11.306 -0.1971 -0.5158 -1.3055
 9830TIP3    H253686   6.646   1.993  11.417 -1.9181  0.7541  0.3549
 9831TIP3   OH253687   1.301   7.463  11.233  0.1373  0.6493  0.1995
 9831TIP3    H153688   1.319   7.554  11.256 -0.4251  0.4554  1.4851
 9831TIP3    H253689   1.380   7.416  11.262  0.0272  0.5989  0.4177
 9832TIP3   OH253690   6.430   3.651  11.625  0.5578 -0.0024 -0.3505
 9832TIP3    H153691   6.499   3.590  11.650  0.3327 -0.0602  0.1506
 9832TIP3    H253692   6.357   3.595  11.598  0.6855  0.0573 -0.8280
 9833TIP3   OH253693   5.704   7.240  10.813 -0.4221  0.4468  0.0369
 9833TIP3    H153694   5.639   7.305  10.786 -1.7551  0.5127  3.0493
 9833TIP3    H253695   5.654   7.176  10.863  1.3655 -1.2890 -0.2957
 9834TIP3   OH253696   1.738   4.023  12.358  0.0511 -0.6615 -0.1837
 9834TIP3    H153697   1.684   4.089  12.315 -3.2357 -3.1282 -0.2300
 9834TIP3    H253698   1.751   4.056  12.447  0.1221  0.8703 -0.7368
 9835TIP3   OH253699   4.536   7.543  12.001  0.2993 -0.1598 -0.6580
 9835TIP3    H153700   4.531   7.600  11.924 -1.2207  0.9058  0.1685
 9835TIP3    H253701   4.584   7.594  12.066 -0.1694 -0.2148 -0.2574
 9836TIP3   OH253702   2.472   6.505  10.707 -0.0420  0.0551  0.4106
 9836TIP3    H153703   2.454   6.427  10.760  2.3281 -0.9313 -0.0939
 9836TIP3    H253704   2.492   6.470  10.620  3.6389  0.8651  0.7731
 9837TIP3   OH253705   0.621   1.779  12.543  0.0072  0.1345 -0.2229
 9837TIP3    H153706   0.608   1.806  12.634 -0.1879  1.4694 -0.6202
 9837TIP3    H253707   0.561   1.835  12.493 -2.8450 -3.1362 -0.9008
 9838TIP3   OH253708   1.442   0.396  13.365 -0.2880  0.4932 -0.5480
 9838TIP3    H153709   1.502   0.470  13.350  2.0235 -1.1066  0.2218
 9838TIP3    H253710   1.500   0.323  13.385 -2.5899 -0.8373  1.7463
 9839TIP3   OH253711   5.668   4.253  12.451 -0.0351  0.6615  0.0068
 9839TIP3    H153712   5.640   4.330  12.500  0.9829 -0.0753  1.8560
 9839TIP3    H253713   5.714   4.199  12.516 -0.9106 -1.6115 -1.1518
 9840TIP3   OH253714   6.932   3.340  11.609 -0.0347 -0.6787  0.0816
 9840TIP3    H153715   6.873   3.405  11.647 -0.3558 -0.6058 -0.5310
 9840TIP3    H253716   6.876   3.287  11.552  0.1744 -1.6592  0.7688
 9841TIP3   OH253717   5.552   0.653  11.981 -0.0919  0.2991  0.3284
 9841TIP3    H153718   5.616   0.634  12.050  0.9219  1.7063 -0.1831
 9841TIP3    H253719   5.531   0.746  11.993 -0.2733  0.4408 -0.9668
 9842TIP3   OH253720   4.830   7.231  10.659  0.6148  0.2521  0.3996
 9842TIP3    H153721   4.914   7.242  10.703  0.2674 -0.9717  1.4380
 9842TIP3    H253722   4.851   7.237  10.566  1.3701  2.8994  0.6640
 9843TIP3   OH253723   3.173   1.030  10.940 -0.3148  0.5007  0.2648
 9843TIP3    H153724   3.235   0.980  10.993 -1.5492 -0.4225  0.8888
 9843TIP3    H253725   3.222   1.052  10.860  0.7251 -0.3959  0.6295
 9844TIP3   OH253726   1.328   4.546  11.970 -0.3320  0.2208 -0.1967
 9844TIP3    H153727   1.331   4.630  11.924 -0.9506  0.5693  0.3709
 9844TIP3    H253728   1.338   4.481  11.901  1.0472  0.7663 -0.5396
 9845TIP3   OH253729   5.126   2.840  10.797 -0.7051 -0.2238  0.1425
 9845TIP3    H153730   5.195   2.884  10.747 -1.1725 -0.9719 -1.2280
 9845TIP3    H253731   5.048   2.894  10.783 -0.7973 -0.3358  0.2168
 9846TIP3   OH253732   1.844   0.235  12.296 -0.2553  0.1623  0.0766
 9846TIP3    H153733   1.764   0.183  12.293 -0.9029  1.0859  0.7201
 9846TIP3    H253734   1.823   0.314  12.246  0.4214  0.1993 -0.1558
 9847TIP3   OH253735   2.299   4.907  11.905  0.3572 -0.1817 -0.3258
 9847TIP3    H153736   2.258   4.980  11.860  0.2228 -1.5088 -2.5130
 9847TIP3    H253737   2.393   4.918  11.890  0.3894 -0.1003 -0.0708
 9848TIP3   OH253738   3.017   6.887  11.891  0.0351 -0.1471 -0.0138
 9848TIP3    H153739   3.025   6.939  11.811 -0.6478  1.5299  0.9565
 9848TIP3    H253740   3.042   6.798  11.865  0.4654  0.4940 -1.9175
 9849TIP3   OH253741   1.728   4.217  13.209 -0.4875  0.0528 -0.1714
 9849TIP3    H153742   1.813   4.172  13.208 -1.0534 -1.0690 -0.1460
 9849TIP3    H253743   1.734   4.276  13.284 -0.3388 -1.3131  0.9499
 9850TIP3   OH253744   3.973   1.089  11.431  0.0614  0.0920  0.1651
 9850TIP3    H153745   4.001   1.174  11.398  0.2801 -0.0327  0.0273
 9850TIP3    H253746   4.030   1.072  11.506  0.0695  0.0341  0.1465
 9851TIP3   OH253747   2.298   6.696  11.397  0.1629  0.1608 -0.1495
 9851TIP3    H153748   2.256   6.653  11.471 -1.1356 -1.9130 -1.9640
 9851TIP3    H253749   2.348   6.626  11.354  1.6388  1.5166 -0.7380
 9852TIP3   OH253750   2.492   0.683  11.627 -0.4434  0.1331 -0.6512
 9852TIP3    H153751   2.551   0.730  11.569 -0.2927 -2.1505 -2.4833
 9852TIP3    H253752   2.547   0.618  11.670 -1.1528 -0.3159 -0.3955
 9853TIP3   OH253753   1.558   3.898  11.968 -0.1791  0.6089 -0.0319
 9853TIP3    H153754   1.562   3.807  11.999  0.3390  1.0684  1.2918
 9853TIP3    H253755   1.636   3.908  11.913 -0.6022  0.0679 -0.7555
 9854TIP3   OH253756   3.236   4.242  11.134  0.0180  0.1144 -0.1406
 9854TIP3    H153757   3.235   4.306  11.205  0.3809 -1.7464  1.6116
 9854TIP3    H253758   3.307   4.272  11.077  1.8945 -0.0411  1.9651
 9855TIP3   OH253759   3.840   1.617  10.860 -0.3395 -0.2703  0.0471
 9855TIP3    H153760   3.817   1.622  10.768 -2.9999  0.3810  0.6584
 9855TIP3    H253761   3.770   1.565  10.900  0.9956 -0.9417  1.6415
 9856TIP3   OH253762   2.115   7.510  11.638 -0.3195  0.1971 -0.0653
 9856TIP3    H153763   2.171   7.441  11.673  0.6018  1.4829  1.1356
 9856TIP3    H253764   2.088   7.479  11.552  0.0537 -1.6341  0.4498
 9857TIP3   OH253765   2.261   4.160  11.283  0.3779  0.2148 -0.0152
 9857TIP3    H153766   2.337   4.160  11.225  1.5605  0.3643  1.4474
 9857TIP3    H253767   2.288   4.215  11.357 -0.9838 -0.1093  0.7535
 9858TIP3   OH253768   6.105   3.326  12.480 -0.6050  0.4796 -0.2355
 9858TIP3    H153769   6.120   3.254  12.541 -0.6726 -0.3727 -1.2163
 9858TIP3    H253770   6.040   3.293  12.419 -0.8849  1.4970 -0.5019
 9859TIP3   OH253771   6.894   3.035  10.389  0.2225  0.4923  0.1045
 9859TIP3    H153772   6.877   2.983  10.311  0.0091  0.3543  0.2412
 9859TIP3    H253773   6.888   3.126  10.360 -0.5665  0.4490  0.1065
 9860TIP3   OH253774   7.120   7.384  12.601  0.2616  0.0269 -0.2996
 9860TIP3    H153775   7.044   7.401  12.657  0.6711 -0.5985  0.4584
 9860TIP3    H253776   7.196   7.408  12.654  0.6064  0.7351 -1.0839
 9861TIP3   OH253777   4.810   2.908  11.921 -0.1265  0.0348 -0.5156
 9861TIP3    H153778   4.904   2.928  11.928 -0.3651  0.7346  1.4233
 9861TIP3    H253779   4.801   2.820  11.958 -0.3089  0.2553 -0.0220
 9862TIP3   OH253780   2.959   3.444  12.172 -0.3919  0.4542 -0.7508
 9862TIP3    H153781   2.999   3.359  12.188  0.3744  1.2135  1.8335
 9862TIP3    H253782   3.030   3.507  12.185 -1.4691  1.5992 -0.1869
 9863TIP3   OH253783   7.532   6.168  12.712 -0.0446  0.4365 -0.1236
 9863TIP3    H153784   7.539   6.139  12.804  0.1180 -0.8091 -0.5029
 9863TIP3    H253785   7.552   6.261  12.714  2.9426 -0.1246  0.7268
 9864TIP3   OH253786   4.537   2.074  12.205 -0.8634  0.4018 -0.0317
 9864TIP3    H153787   4.585   2.056  12.125 -1.2790 -0.4752 -0.0932
 9864TIP3    H253788   4.445   2.080  12.177 -0.8735  1.4568  0.1754
 9865TIP3   OH253789   5.473   5.602  11.605  0.0319 -0.0553  0.5356
 9865TIP3    H153790   5.557   5.571  11.639  0.0862  0.7569  1.1918
 9865TIP3    H253791   5.490   5.623  11.513  0.2379 -0.9998  0.3521
 9866TIP3   OH253792   0.731   0.516  11.342  0.3471  0.1611 -0.0335
 9866TIP3    H153793   0.786   0.484  11.270  0.4607 -0.0803  0.1572
 9866TIP3    H253794   0.688   0.437  11.376 -2.6111  0.6732 -2.1947
 9867TIP3   OH253795   7.142   6.610  10.367 -0.0459 -0.0164  0.4797
 9867TIP3    H153796   7.184   6.537  10.321  0.4839  0.5610  0.0183
 9867TIP3    H253797   7.081   6.568  10.428  0.3706 -0.8453  0.3473
 9868TIP3   OH253798   0.893   5.906  13.266  0.4525 -0.3969 -0.2923
 9868TIP3    H153799   0.809   5.941  13.296 -0.0029 -0.2251 -1.6757
 9868TIP3    H253800   0.870   5.825  13.220  0.9277  0.0504 -1.3588
 9869TIP3   OH253801   1.241   1.462  11.326  0.2121 -0.8949 -0.2020
 9869TIP3    H153802   1.233   1.439  11.233 -1.3020 -0.3095 -0.2562
 9869TIP3    H253803   1.178   1.534  11.338  1.2447 -0.1470  1.0199
 9870TIP3   OH253804   6.683   2.627  12.480 -0.1625  0.0579  0.0386
 9870TIP3    H153805   6.653   2.678  12.406  1.0246  1.0059  0.1761
 9870TIP3    H253806   6.747   2.566  12.443 -0.5196 -0.3630  0.0996
 9871TIP3   OH253807   5.997   3.530  11.070 -0.2544 -0.4855 -0.0725
 9871TIP3    H153808   5.904   3.548  11.086  0.2430  1.4194  0.9670
 9871TIP3    H253809   6.019   3.583  10.993  0.4696  0.9717  1.0805
 9872TIP3   OH253810   1.986   2.092  13.143  0.5334 -0.4757  0.2865
 9872TIP3    H153811   1.994   2.002  13.112 -1.6538 -1.5844  2.5429
 9872TIP3    H253812   1.895   2.115  13.125  0.2252  0.1449  2.3740
 9873TIP3   OH253813   3.894   5.394  12.208  0.1588  0.1855  0.1838
 9873TIP3    H153814   3.876   5.389  12.115  0.8346  0.6185  0.0182
 9873TIP3    H253815   3.990   5.391  12.214  0.3000  2.8406  0.6359
 9874TIP3   OH253816   1.550   0.384  10.808 -0.1183 -0.1662  0.3157
 9874TIP3    H153817   1.489   0.423  10.871 -0.2442  1.1034 -0.5637
 9874TIP3    H253818   1.607   0.456  10.782  1.4019 -1.1849  0.6539
 9875TIP3   OH253819   7.166   2.502  10.396 -0.1470 -0.2697  0.5444
 9875TIP3    H153820   7.106   2.526  10.325 -0.0277 -3.1063 -0.6536
 9875TIP3    H253821   7.134   2.417  10.426  1.0704 -0.0887  2.5065
 9876TIP3   OH253822   7.393   4.118  10.824 -0.1854 -0.3713 -0.0354
 9876TIP3    H153823   7.307   4.158  10.810  0.6383  1.5598  0.1215
 9876TIP3    H253824   7.377   4.050  10.890 -1.7139 -0.6088 -0.6060
 9877TIP3   OH253825   1.651   3.370  10.469 -0.1777  0.5388  0.1196
 9877TIP3    H153826   1.690   3.432  10.408 -1.0163  1.0253  0.0555
 9877TIP3    H253827   1.725   3.330  10.514  0.3878  2.5289  1.0739
 9878TIP3   OH253828   4.432   4.733  11.099 -0.1279  0.0325 -0.4599
 9878TIP3    H153829   4.458   4.772  11.183 -2.6234 -1.9771  1.4129
 9878TIP3    H253830   4.406   4.808  11.045  2.1342  1.4244  0.2560
 9879TIP3   OH253831   0.864   6.081  11.226  0.2411 -0.1600 -0.1606
 9879TIP3    H153832   0.807   6.130  11.286  0.3438 -0.5859  0.2909
 9879TIP3    H253833   0.864   5.992  11.261  0.0420 -0.4879 -0.9857
 9880TIP3   OH253834   0.315   4.353  11.017  0.0888 -0.0876 -0.2720
 9880TIP3    H153835   0.282   4.266  10.997 -1.1566  0.1921  0.4608
 9880TIP3    H253836   0.365   4.342  11.098 -0.9658  0.0505  0.4119
 9881TIP3   OH253837   0.553   6.158  12.595  0.8447 -0.0683  0.2250
 9881TIP3    H153838   0.600   6.076  12.610  1.1099  0.2287  1.0813
 9881TIP3    H253839   0.615   6.226  12.620  0.4565  0.3836 -0.0161
 9882TIP3   OH253840   7.274   5.254  12.521  0.2342  0.4357 -0.1421
 9882TIP3    H153841   7.338   5.265  12.451 -0.5405  0.2099 -0.9111
 9882TIP3    H253842   7.192   5.289  12.484 -0.2438  0.0764  0.5544
 9883TIP3   OH253843   2.704   4.613  11.855  0.1353  0.2466 -0.1248
 9883TIP3    H153844   2.635   4.582  11.914 -0.8559  1.8725 -0.3686
 9883TIP3    H253845   2.658   4.668  11.791  1.4833  0.2823 -1.1068
 9884TIP3   OH253846   1.261   3.627  10.631  0.0421 -0.3457 -0.5749
 9884TIP3    H153847   1.301   3.546  10.598 -0.3302 -0.8897  0.2638
 9884TIP3    H253848   1.315   3.649  10.708 -0.4819 -0.3805 -0.1922
 9885TIP3   OH253849   6.277   3.544  12.653 -0.3216 -0.4186  0.8384
 9885TIP3    H153850   6.319   3.465  12.619  0.5279  0.9778 -1.5706
 9885TIP3    H253851   6.346   3.589  12.702  0.9538  1.4754 -2.4450
 9886TIP3   OH253852   3.753   7.166  12.310 -0.2953 -0.0324 -0.1404
 9886TIP3    H153853   3.736   7.245  12.362 -1.0929  1.0403 -1.9397
 9886TIP3    H253854   3.837   7.182  12.268  0.2419 -0.8065  0.5859
 9887TIP3   OH253855   0.682   7.385  10.392 -0.0211 -0.8326  0.1929
 9887TIP3    H153856   0.641   7.344  10.315  0.5204  0.2929 -0.7306
 9887TIP3    H253857   0.611   7.435  10.433 -0.0903 -0.6303 -0.1643
 9888TIP3   OH253858   4.664   3.889  11.383 -0.1359 -0.0660 -0.0249
 9888TIP3    H153859   4.691   3.881  11.474 -0.2074 -0.4076 -0.0333
 9888TIP3    H253860   4.583   3.839  11.377  0.2450 -0.6399 -0.4359
 9889TIP3   OH253861   4.684   5.383  13.162 -0.2352  0.0727  0.0256
 9889TIP3    H153862   4.590   5.391  13.176 -0.0728  0.6722  0.8097
 9889TIP3    H253863   4.698   5.289  13.151 -0.6812 -0.2390  1.7929
 9890TIP3   OH253864   1.471   6.395  12.173 -0.1703 -0.5683  0.3356
 9890TIP3    H153865   1.429   6.363  12.094 -0.5579 -0.4961  0.5142
 9890TIP3    H253866   1.554   6.433  12.142 -1.0076  0.8865 -0.2433
 9891TIP3   OH253867   1.035   3.700  12.102 -0.0462 -0.2702 -0.3180
 9891TIP3    H153868   1.122   3.720  12.135 -0.4316  1.4457 -0.2116
 9891TIP3    H253869   1.029   3.605  12.102  1.9951 -0.4257 -0.8050
 9892TIP3   OH253870   1.480   6.024  12.232 -0.6374  0.1828 -0.3379
 9892TIP3    H153871   1.398   6.018  12.183  0.0087  0.0131 -1.4385
 9892TIP3    H253872   1.526   6.098  12.191 -1.0072  1.4995  1.4925
 9893TIP3   OH253873   4.277   0.848  12.894  0.1528 -0.3608  0.1873
 9893TIP3    H153874   4.344   0.875  12.956  0.6590  0.0177 -0.5110
 9893TIP3    H253875   4.323   0.839  12.811 -0.9883  1.8345 -0.7767
 9894TIP3   OH253876   6.576   6.292  12.344  0.1979 -0.0431 -0.4032
 9894TIP3    H153877   6.495   6.342  12.335 -0.3491 -0.4143  1.9201
 9894TIP3    H253878   6.603   6.305  12.434  3.8538  1.6527 -1.5432
 9895TIP3   OH253879   0.354   6.869  12.385  0.0291  0.2813  0.5911
 9895TIP3    H153880   0.412   6.890  12.311  0.7439 -0.0549  1.0404
 9895TIP3    H253881   0.347   6.774  12.384  2.6636 -0.0659  2.8153
 9896TIP3   OH253882   5.583   7.021  12.274 -0.0511 -0.1058  0.0382
 9896TIP3    H153883   5.529   7.058  12.205 -0.2425 -0.0985  0.1913
 9896TIP3    H253884   5.642   6.961  12.229  1.1138  1.2919 -0.3969
 9897TIP3   OH253885   4.300   7.529  10.674  0.2063  0.1955 -0.3225
 9897TIP3    H153886   4.335   7.441  10.663  1.8081  1.0381 -2.5954
 9897TIP3    H253887   4.206   7.520  10.655  0.4212 -0.9307 -0.9197
 9898TIP3   OH253888   0.332   5.185  10.708  0.0113  0.0532 -0.5603
 9898TIP3    H153889   0.406   5.155  10.655  1.0557  2.7456 -0.8260
 9898TIP3    H253890   0.362   5.174  10.799  0.0372 -0.4822 -0.6353
 9899TIP3   OH253891   1.183   0.457  10.667  0.0609  0.3681  0.2959
 9899TIP3    H153892   1.166   0.434  10.576  0.3814  1.4268 -0.0442
 9899TIP3    H253893   1.230   0.381  10.702 -0.5565 -0.2771 -0.2585
 9900TIP3   OH253894   5.056   1.856  12.680 -0.1363  0.4704 -0.2712
 9900TIP3    H153895   5.028   1.814  12.762  2.0822  0.0581  0.3649
 9900TIP3    H253896   4.999   1.932  12.670 -2.0242 -0.8004  0.3670
 9901TIP3   OH253897   4.722   3.177  10.973 -0.0542 -0.1985  0.1394
 9901TIP3    H153898   4.644   3.129  11.002  0.8057 -1.4621  0.4574
 9901TIP3    H253899   4.713   3.264  11.012 -0.3295 -0.9685  1.8991
 9902TIP3   OH253900   5.992   0.441  11.920  0.3575 -0.4350 -0.0579
 9902TIP3    H153901   5.949   0.472  11.840  1.3258  3.2596  0.6485
 9902TIP3    H253902   6.085   0.462  11.907  1.1153 -2.8859  0.7702
 9903TIP3   OH253903   1.685   1.318  11.665 -0.4277 -0.6753  0.1576
 9903TIP3    H153904   1.620   1.302  11.597 -1.3771  0.1878  0.8310
 9903TIP3    H253905   1.729   1.399  11.637  0.2572 -1.1496 -0.1947
 9904TIP3   OH253906   6.101   7.505  10.436  0.5625 -0.0088 -0.1418
 9904TIP3    H153907   6.047   7.453  10.496  1.1644  0.1658  0.5644
 9904TIP3    H253908   6.138   7.574  10.491  0.8737  0.3462 -0.7861
 9905TIP3   OH253909   6.757   5.262  10.940  0.3638  0.2680 -0.0165
 9905TIP3    H153910   6.839   5.217  10.921  0.4225  0.1453  0.5143
 9905TIP3    H253911   6.739   5.313  10.861  0.2474 -0.7438 -0.6625
 9906TIP3   OH253912   6.047   7.154  12.605  0.6280 -0.1370  0.8940
 9906TIP3    H153913   6.049   7.084  12.540  0.3645  0.0098  0.7234
 9906TIP3    H253914   5.985   7.123  12.671 -0.4771  0.4688  0.1865
 9907TIP3   OH253915   4.824   7.210  12.175  0.3046 -0.4412 -0.2936
 9907TIP3    H153916   4.911   7.179  12.151  0.3103 -0.5166 -0.1720
 9907TIP3    H253917   4.823   7.212  12.270  0.9650  1.8107 -0.2772
 9908TIP3   OH253918   2.878   2.936  11.366 -0.1140  0.0254  0.1161
 9908TIP3    H153919   2.821   2.918  11.441 -0.0835  0.3085  0.2067
 9908TIP3    H253920   2.837   3.009  11.321  0.0943  0.1313  0.0959
 9909TIP3   OH253921   5.884   3.305  12.255 -0.4158 -0.0521 -0.0169
 9909TIP3    H153922   5.834   3.331  12.177 -0.1314  1.2204  0.2030
 9909TIP3    H253923   5.878   3.209  12.256 -2.3535  0.0203 -0.3257
 9910TIP3   OH253924   0.861   0.852  10.198 -0.5034  0.1603 -0.2301
 9910TIP3    H153925   0.953   0.844  10.174 -0.4383  1.6222 -0.5647
 9910TIP3    H253926   0.836   0.764  10.229  0.9283 -0.3055 -0.3360
 9911TIP3   OH253927   4.829   5.886  12.463 -0.6838 -0.6002 -0.3565
 9911TIP3    H153928   4.743   5.928  12.455  0.1531  1.6389  1.2403
 9911TIP3    H253929   4.891   5.959  12.461  1.1399 -2.0765 -0.4847
 9912TIP3   OH253930   5.972   3.487  13.059 -0.3543  0.2086 -0.0084
 9912TIP3    H153931   6.011   3.486  12.972 -0.2715  2.3723 -0.0448
 9912TIP3    H253932   5.978   3.396  13.089  0.8096 -0.3236 -1.7105
 9913TIP3   OH253933   0.075   6.068  12.594  0.0553  0.5839 -0.1329
 9913TIP3    H153934   0.003   6.108  12.644  0.2302  0.3496  0.3178
 9913TIP3    H253935   0.148   6.129  12.606 -0.1104  0.8997 -0.7174
 9914TIP3   OH253936   2.996   2.899  11.106  0.0928 -0.8705 -0.6353
 9914TIP3    H153937   2.960   2.812  11.091  2.3659 -1.7501 -1.4207
 9914TIP3    H253938   2.985   2.914  11.200 -0.7508 -1.7846 -0.5767
 9915TIP3   OH253939   3.783   0.143  12.921  0.1286  0.4384 -0.8495
 9915TIP3    H153940   3.855   0.082  12.932  0.1052  0.1568 -2.1359
 9915TIP3    H253941   3.705   0.087  12.918  0.0968  0.5249 -1.9144
 9916TIP3   OH253942   5.347   7.607  11.170  0.6069 -0.2000  0.6101
 9916TIP3    H153943   5.252   7.598  11.170  0.5192 -0.0588 -1.8774
 9916TIP3    H253944   5.372   7.596  11.261 -2.1359  3.6948  2.1388
 9917TIP3   OH253945   6.115   6.333  11.929  0.2684 -0.3729  0.1536
 9917TIP3    H153946   6.161   6.413  11.954  0.8230 -0.7629  0.3941
 9917TIP3    H253947   6.026   6.362  11.910  0.4821  0.3119  0.1718
 9918TIP3   OH253948   0.428   2.550  11.366 -0.0245  0.0872  0.0178
 9918TIP3    H153949   0.444   2.629  11.315  2.5315 -1.1120 -1.2075
 9918TIP3    H253950   0.351   2.510  11.325 -0.8880  1.5006  0.1833
 9919TIP3   OH253951   1.878   3.768  12.497  1.2191 -0.2460  0.5058
 9919TIP3    H153952   1.907   3.822  12.571  0.2708  0.1260  0.6136
 9919TIP3    H253953   1.828   3.827  12.441 -0.2878 -1.0959  0.8918
 9920TIP3   OH253954   0.284   1.147  10.789  0.3253  0.3670  0.0653
 9920TIP3    H153955   0.325   1.126  10.705 -1.0635  3.1741 -1.4452
 9920TIP3    H253956   0.190   1.139  10.773 -0.0522 -3.4643  2.7529
 9921TIP3   OH253957   0.680   5.409  11.666  0.7017  0.0802 -0.0848
 9921TIP3    H153958   0.756   5.467  11.674 -0.0047  0.7910  1.8150
 9921TIP3    H253959   0.611   5.464  11.631 -0.0279  0.5215  1.9101
 9922TIP3   OH253960   3.992   1.256  11.681 -0.2540 -0.5063 -0.0871
 9922TIP3    H153961   4.010   1.209  11.762  2.1027  0.8402  0.2702
 9922TIP3    H253962   3.962   1.342  11.709  0.3477 -0.1119 -0.6125
 9923TIP3   OH253963   1.698   5.768  10.498 -0.2145  0.5254 -0.0925
 9923TIP3    H153964   1.708   5.690  10.553 -0.9148  0.4012 -0.1287
 9923TIP3    H253965   1.724   5.739  10.411 -2.6311 -0.3435 -0.6029
 9924TIP3   OH253966   0.658   7.476  11.252  0.4618  0.1827 -0.5232
 9924TIP3    H153967   0.736   7.514  11.213 -0.0256  0.9274 -0.7994
 9924TIP3    H253968   0.673   7.381  11.249  1.2955  0.3089 -0.6730
 9925TIP3   OH253969   0.751   3.420  11.312 -0.2467 -0.1272  0.0589
 9925TIP3    H153970   0.709   3.356  11.256 -1.5129  1.1036 -0.4619
 9925TIP3    H253971   0.838   3.385  11.328  0.1627 -0.5292 -2.6636
 9926TIP3   OH253972   6.429   4.883  11.019 -0.4121 -0.8801 -0.5957
 9926TIP3    H153973   6.468   4.929  10.945  0.1116  0.9693  0.7421
 9926TIP3    H253974   6.502   4.872  11.081 -1.4920  0.6638  1.0353
 9927TIP3   OH253975   0.255   1.893  11.675  0.1996 -0.8458  0.0362
 9927TIP3    H153976   0.303   1.974  11.695 -0.4355 -0.2052 -0.9055
 9927TIP3    H253977   0.312   1.823  11.704  0.5255 -0.0439  1.3939
 9928TIP3   OH253978   2.541   5.287  11.076  0.7321 -0.5789 -0.2346
 9928TIP3    H153979   2.587   5.240  11.145 -0.0329  0.4637  1.0312
 9928TIP3    H253980   2.496   5.219  11.026  2.6708 -1.5183 -0.8204
 9929TIP3   OH253981   4.419   5.774  12.098 -0.0257 -0.2889  0.1910
 9929TIP3    H153982   4.510   5.747  12.088  0.2939 -0.1874  2.3896
 9929TIP3    H253983   4.391   5.734  12.180 -1.1607  1.7934  0.8918
 9930TIP3   OH253984   1.526   2.794  10.582  0.2285 -0.8647 -0.3681
 9930TIP3    H153985   1.545   2.872  10.530  2.3248 -1.7908 -1.0946
 9930TIP3    H253986   1.611   2.766  10.616 -0.9682 -0.3806  3.5986
 9931TIP3   OH253987   6.628   0.987  11.754 -0.3773 -0.2931 -0.5665
 9931TIP3    H153988   6.542   1.000  11.715  0.5256  0.1556 -2.5138
 9931TIP3    H253989   6.639   0.892  11.760 -1.3436 -0.3530  0.5458
 9932TIP3   OH253990   7.576   5.136  13.529 -0.0191 -0.2352  0.7663
 9932TIP3    H153991   7.528   5.061  13.496  0.2973 -0.3049  0.4555
 9932TIP3    H253992   7.513   5.208  13.528  0.3141  0.0838 -1.2276
 9933TIP3   OH253993   1.205   6.814  13.711  0.7311  0.1555 -0.2508
 9933TIP3    H153994   1.289   6.793  13.670  0.7695  0.3617 -0.2772
 9933TIP3    H253995   1.188   6.905  13.686  1.0696  0.5010  0.7243
 9934TIP3   OH253996   2.704   5.577  12.208 -0.2559 -0.7381  0.0503
 9934TIP3    H153997   2.628   5.630  12.230 -0.3899 -0.4014 -1.1505
 9934TIP3    H253998   2.746   5.624  12.136  2.1554  0.0783  1.8285
 9935TIP3   OH253999   6.320   3.049  12.463 -0.0400 -0.0054  0.4112
 9935TIP3    H154000   6.309   2.999  12.382  1.9079 -0.1740  0.2176
 9935TIP3    H254001   6.251   3.016  12.520 -1.5967  0.2641 -1.2208
 9936TIP3   OH254002   5.926   1.849  11.962 -0.1789  0.2666 -0.0010
 9936TIP3    H154003   5.909   1.871  12.053  0.7786 -2.5747  0.9543
 9936TIP3    H254004   6.021   1.855  11.952 -0.3261  1.2907 -1.0659
 9937TIP3   OH254005   0.640   6.973  12.531  0.1015  0.2534  0.5519
 9937TIP3    H154006   0.660   6.921  12.453  0.4517 -0.0206  0.8220
 9937TIP3    H254007   0.590   7.048  12.498 -2.0200 -1.1695  0.3444
 9938TIP3   OH254008   6.806   0.879  12.031  0.2171 -0.0240  0.7057
 9938TIP3    H154009   6.751   0.804  12.010 -2.3574  2.2536 -1.3774
 9938TIP3    H254010   6.861   0.892  11.954 -0.7516  1.2958  0.1896
 9939TIP3   OH254011   7.635   6.003  11.440 -0.2416 -0.6952 -0.7825
 9939TIP3    H154012   7.672   5.918  11.415 -1.8056 -1.6334 -0.0417
 9939TIP3    H254013   7.664   6.063  11.371  1.7447 -1.5709 -0.7893
 9940TIP3   OH254014   6.855   3.935  12.206  0.4515  0.3555 -0.1061
 9940TIP3    H154015   6.868   3.998  12.135  0.0315  0.1068 -0.4033
 9940TIP3    H254016   6.766   3.903  12.196  0.8873 -0.8544 -0.4287
 9941TIP3   OH254017   4.415   7.334  11.149 -0.2879  0.1444  0.4896
 9941TIP3    H154018   4.504   7.299  11.152 -0.9993 -1.8194  0.6702
 9941TIP3    H254019   4.404   7.366  11.060  0.0991 -1.1038 -0.0275
 9942TIP3   OH254020   4.341   5.336  10.543 -0.5616 -0.1220 -0.2240
 9942TIP3    H154021   4.284   5.300  10.474 -0.1164  0.6631 -1.0298
 9942TIP3    H254022   4.394   5.402  10.498  0.7373 -0.5733  0.5788
 9943TIP3   OH254023   3.267   3.296  12.674 -0.3164 -0.1541 -0.2193
 9943TIP3    H154024   3.223   3.378  12.693  0.3873  0.3490 -0.7130
 9943TIP3    H254025   3.203   3.228  12.695 -1.5051  0.5668 -1.3844
 9944TIP3   OH254026   1.337   0.985  10.296  0.3791  0.1514  0.5203
 9944TIP3    H154027   1.371   0.904  10.258  2.0364  1.0042  0.1011
 9944TIP3    H254028   1.411   1.024  10.342 -0.7977  0.6809  2.0435
 9945TIP3   OH254029   2.572   2.786  12.054 -0.0053 -0.2613  0.2261
 9945TIP3    H154030   2.518   2.796  12.132 -0.5728 -3.3153  0.3337
 9945TIP3    H254031   2.511   2.798  11.981 -0.0493 -0.1177  0.2862
 9946TIP3   OH254032   7.044   5.448  11.435  0.0231  0.2609  0.1850
 9946TIP3    H154033   7.066   5.419  11.347 -0.8263 -0.0833  0.0737
 9946TIP3    H254034   7.118   5.503  11.462 -0.2013  1.2607 -1.1422
 9947TIP3   OH254035   0.702   7.192  13.688 -0.7942  0.2630  0.3678
 9947TIP3    H154036   0.787   7.158  13.657 -1.8380 -1.7711 -0.4330
 9947TIP3    H254037   0.697   7.280  13.651  2.2658  1.7350  2.9590
 9948TIP3   OH254038   2.346   1.816  11.435 -0.2192  0.0915 -0.4262
 9948TIP3    H154039   2.312   1.863  11.511 -1.8628 -0.5082 -0.7446
 9948TIP3    H254040   2.439   1.836  11.434 -0.2830  0.6452  1.3631
 9949TIP3   OH254041   3.828   4.180  11.618 -0.3945 -0.3117  0.1959
 9949TIP3    H154042   3.922   4.174  11.600 -0.2894 -0.7228  0.8297
 9949TIP3    H254043   3.822   4.237  11.695 -0.7359  0.4116 -0.3583
 9950TIP3   OH254044   2.511   1.953  11.760 -0.2127  0.0618  0.1243
 9950TIP3    H154045   2.532   2.046  11.771 -0.8524  0.3333 -0.8145
 9950TIP3    H254046   2.551   1.930  11.677  3.0352 -1.4730  1.9376
 9951TIP3   OH254047   3.902   5.576  12.844 -0.1373 -0.8227 -0.2306
 9951TIP3    H154048   3.883   5.668  12.866  0.2719 -0.4532 -1.3237
 9951TIP3    H254049   3.957   5.582  12.765  1.3890 -1.9614  0.7026
 9952TIP3   OH254050   1.329   6.003  12.501  0.6523  0.3742 -0.3298
 9952TIP3    H154051   1.359   6.011  12.411 -0.0835 -1.2745 -0.7687
 9952TIP3    H254052   1.352   6.086  12.542  0.6285  1.3270 -2.1438
 9953TIP3   OH254053   7.206   0.645  11.239 -0.1234 -0.1825  0.2229
 9953TIP3    H154054   7.175   0.721  11.287  0.7623 -0.3942  1.1754
 9953TIP3    H254055   7.280   0.613  11.291  1.1821 -0.1522 -1.5139
 9954TIP3   OH254056   6.930   0.078  10.908 -0.4382  0.6416 -0.0924
 9954TIP3    H154057   6.937   0.000  10.965 -0.9181 -0.6385 -1.7097
 9954TIP3    H254058   7.020   0.093  10.878 -0.4529  0.2431 -0.3490
 9955TIP3   OH254059   3.933   3.425  12.998  0.2857 -0.2436 -0.3164
 9955TIP3    H154060   3.911   3.333  12.984  1.7596 -0.6317 -0.2481
 9955TIP3    H254061   4.005   3.442  12.937 -1.1481  1.3959 -1.6597
 9956TIP3   OH254062   7.306   3.975  10.369  0.1187 -0.6451 -0.3108
 9956TIP3    H154063   7.311   4.037  10.296  0.9599 -0.8358 -0.4228
 9956TIP3    H254064   7.282   4.029  10.444 -0.9385 -0.4779 -0.7506
 9957TIP3   OH254065   3.076   1.293  10.331  0.3648 -0.4961  0.5536
 9957TIP3    H154066   3.048   1.351  10.260 -0.0035 -0.5993  0.6104
 9957TIP3    H254067   2.994   1.258  10.367  0.5540 -0.5465  0.9443
 9958TIP3   OH254068   0.138   7.052  13.509 -0.6742 -0.0501  0.3386
 9958TIP3    H154069   0.164   6.996  13.582  0.1286  0.6189  0.5848
 9958TIP3    H254070   0.173   7.009  13.432 -1.9867 -1.0462  0.2578
 9959TIP3   OH254071   2.525   0.961  11.547 -0.3939 -0.1387  0.2098
 9959TIP3    H154072   2.485   0.884  11.587  1.9555 -1.8184 -0.4722
 9959TIP3    H254073   2.619   0.942  11.547  0.1529  2.1689 -1.1937
 9960TIP3   OH254074   4.863   6.906  11.819 -0.1126  0.4164 -0.3539
 9960TIP3    H154075   4.849   6.898  11.724  1.9510  0.5738 -0.7114
 9960TIP3    H254076   4.827   6.993  11.840 -0.1409  0.5963 -1.0883
 9961TIP3   OH254077   5.295   2.919  12.400 -0.5351  0.5072 -0.3969
 9961TIP3    H154078   5.267   2.952  12.314 -0.3657  0.4713 -0.4663
 9961TIP3    H254079   5.236   2.962  12.462 -1.3282 -0.2340 -0.6086
 9962TIP3   OH254080   6.165   1.127  12.121 -0.0859  0.5684  0.2567
 9962TIP3    H154081   6.215   1.208  12.127  2.0702 -0.7887  2.2194
 9962TIP3    H254082   6.078   1.150  12.154 -0.2872  2.5490 -1.4299
 9963TIP3   OH254083   1.156   7.084  12.720  0.6081  0.2986 -0.0443
 9963TIP3    H154084   1.188   6.995  12.735  0.2322  0.3470  1.1603
 9963TIP3    H254085   1.062   7.074  12.707  0.2531  0.6431  1.8689
 9964TIP3   OH254086   0.592   1.037  12.530 -0.5489  0.0242 -0.4339
 9964TIP3    H154087   0.596   1.132  12.519 -1.4634  0.0757 -0.3385
 9964TIP3    H254088   0.644   1.021  12.609  0.6628  0.2984 -1.1372
 9965TIP3   OH254089   7.481   7.369  12.595 -0.3779 -0.0408 -0.4351
 9965TIP3    H154090   7.544   7.322  12.650  0.0585  0.0133 -0.8789
 9965TIP3    H254091   7.487   7.460  12.624  2.1548  0.6094 -2.5882
 9966TIP3   OH254092   5.900   4.196  11.472 -0.1866  0.2305 -0.5545
 9966TIP3    H154093   5.838   4.129  11.502 -0.4051  0.3649 -0.7079
 9966TIP3    H254094   5.962   4.206  11.545 -1.4239  1.4512  0.3806
 9967TIP3   OH254095   4.901   7.391  11.311  0.1414  0.0495  0.2766
 9967TIP3    H154096   4.824   7.379  11.256  0.2614  0.0363  0.1122
 9967TIP3    H254097   4.953   7.312  11.296  0.4453  0.3068 -0.0244
 9968TIP3   OH254098   4.052   5.516  11.248  0.6755 -0.4227  0.1307
 9968TIP3    H154099   4.130   5.465  11.226  1.2468  0.2318  0.6217
 9968TIP3    H254100   4.041   5.504  11.343  0.1823 -0.4991  0.0684
 9969TIP3   OH254101   0.549   3.114  10.631 -0.5294 -0.4675 -0.1024
 9969TIP3    H154102   0.468   3.084  10.672 -0.1741 -0.4600  0.6260
 9969TIP3    H254103   0.524   3.194  10.585 -1.4122 -1.6566 -1.7823
 9970TIP3   OH254104   5.794   7.557  11.607 -0.3719  0.2016 -0.2773
 9970TIP3    H154105   5.803   7.508  11.525  0.2983 -0.4259  0.1657
 9970TIP3    H254106   5.808   7.493  11.676 -2.3111  0.4392  0.3778
 9971TIP3   OH254107   7.458   1.458  11.188 -0.3098 -0.2565 -0.3728
 9971TIP3    H154108   7.402   1.496  11.256 -1.0947 -0.2067 -1.0298
 9971TIP3    H254109   7.418   1.485  11.106  0.7565 -0.1160 -0.8716
 9972TIP3   OH254110   3.044   2.549  13.189  0.3378 -0.4941 -0.2215
 9972TIP3    H154111   3.016   2.636  13.215 -1.0600 -0.5142 -1.5533
 9972TIP3    H254112   2.968   2.493  13.204  0.4737 -1.0508 -1.4706
 9973TIP3   OH254113   7.590   2.283  12.509 -0.4405  0.4416 -0.1427
 9973TIP3    H154114   7.507   2.322  12.539  0.2419  0.0026  2.6585
 9973TIP3    H254115   7.640   2.271  12.590  1.4584 -1.3983 -1.5054
 9974TIP3   OH254116   7.372   5.938  11.114 -0.3105  0.2286  0.3064
 9974TIP3    H154117   7.285   5.977  11.118 -0.3755  0.0164  1.0774
 9974TIP3    H254118   7.427   6.007  11.076 -0.3515  1.2319  1.9558
 9975TIP3   OH254119   7.136   3.850  12.247  0.3097 -0.1334 -0.3624
 9975TIP3    H154120   7.065   3.914  12.252 -0.3100 -0.8997  2.5330
 9975TIP3    H254121   7.092   3.765  12.255  1.3842 -0.7245 -0.5743
 9976TIP3   OH254122   4.652   7.478  11.080  0.1704  0.0087 -0.1024
 9976TIP3    H154123   4.683   7.431  11.003  2.9695  2.5818 -0.7333
 9976TIP3    H254124   4.604   7.553  11.045 -1.6311 -0.6596  0.8055
 9977TIP3   OH254125   4.936   6.016  11.651  0.0579 -0.5425 -0.2665
 9977TIP3    H154126   4.977   6.033  11.735 -0.8334 -0.2762  0.1315
 9977TIP3    H254127   4.982   5.940  11.616  1.6308  0.4228 -0.3715
 9978TIP3   OH254128   5.161   2.586  10.724  0.2736  0.5257  0.1589
 9978TIP3    H154129   5.139   2.676  10.748 -1.0628  0.2474  0.0526
 9978TIP3    H254130   5.243   2.594  10.675  1.0189  1.5036  1.5040
 9979TIP3   OH254131   3.711   0.458  11.380 -0.4873  0.5262  0.8059
 9979TIP3    H154132   3.676   0.451  11.292  0.5474  1.2343  0.3187
 9979TIP3    H254133   3.637   0.437  11.437 -1.5361  1.3897 -0.1888
 9980TIP3   OH254134   5.912   5.562  12.331 -0.0841 -0.6516 -0.2085
 9980TIP3    H154135   5.899   5.571  12.237  1.4704 -2.2454 -0.6125
 9980TIP3    H254136   6.002   5.590  12.346 -0.7778  1.1275  1.0944
 9981TIP3   OH254137   6.319   2.658  10.934 -0.0531  0.0156  0.2342
 9981TIP3    H154138   6.331   2.733  10.992 -0.0121 -0.0711  0.3397
 9981TIP3    H254139   6.244   2.612  10.970 -1.0565  0.8487 -0.7443
 9982TIP3   OH254140   6.950   2.739  10.715  0.3292 -0.0707  0.0391
 9982TIP3    H154141   6.970   2.792  10.792  0.1109  2.1754 -1.3687
 9982TIP3    H254142   7.029   2.743  10.662 -0.5111  0.8785 -1.1797
 9983TIP3   OH254143   6.009   5.562  11.403  0.2239 -0.7616 -0.1800
 9983TIP3    H154144   5.965   5.534  11.484  0.4323 -0.2940  0.0996
 9983TIP3    H254145   6.028   5.481  11.357 -2.0532 -0.9295 -0.9189
 9984TIP3   OH254146   7.624   4.265  11.174 -0.0873 -0.7412 -0.6750
 9984TIP3    H154147   7.576   4.341  11.205  2.0865  0.7803 -0.8378
 9984TIP3    H254148   7.577   4.190  11.211 -0.1247  0.7915  2.7725
 9985TIP3   OH254149   4.066   6.380  12.591 -0.5103 -0.3227  0.3623
 9985TIP3    H154150   4.106   6.319  12.529 -1.4927 -0.9081  0.2947
 9985TIP3    H254151   4.043   6.456  12.538 -0.0727 -0.2355  0.2867
 9986TIP3   OH254152   5.622   5.702  10.487  0.1625  0.5885 -0.3641
 9986TIP3    H154153   5.537   5.662  10.504 -0.2763  0.5040 -2.5094
 9986TIP3    H254154   5.681   5.628  10.473 -0.0434  0.6447 -1.6133
 9987TIP3   OH254155   4.729   1.792  11.358  0.7758  0.6351  0.3661
 9987TIP3    H154156   4.734   1.888  11.360  0.2184  0.6921 -0.5777
 9987TIP3    H254157   4.641   1.772  11.390  0.0578  0.5649 -1.5120
 9988TIP3   OH254158   3.240   0.815  11.613 -0.0482 -0.0932 -0.6192
 9988TIP3    H154159   3.246   0.722  11.631 -0.7851 -0.3236 -1.4835
 9988TIP3    H254160   3.202   0.820  11.525 -2.2729  1.0369  0.3400
 9989TIP3   OH254161   7.563   1.139  11.554 -0.0080 -0.1798  0.1689
 9989TIP3    H154162   7.579   1.195  11.478  0.6851 -0.8231 -0.1701
 9989TIP3    H254163   7.644   1.143  11.604 -1.2842  2.3533  2.3370
 9990TIP3   OH254164   1.728   7.048  12.281 -0.2966 -0.2722  0.4280
 9990TIP3    H154165   1.754   6.967  12.324  0.5359 -0.8489 -1.0833
 9990TIP3    H254166   1.783   7.115  12.320 -0.2559 -0.6150  0.9633
 9991TIP3   OH254167   2.206   4.334  13.304 -0.1263 -0.5233 -0.0415
 9991TIP3    H154168   2.185   4.335  13.210  0.1279  1.7822 -0.1201
 9991TIP3    H254169   2.127   4.300  13.345 -1.9288  2.3594 -0.8238
 9992TIP3   OH254170   7.111   3.540  11.520 -0.1015  0.0221  0.3014
 9992TIP3    H154171   7.040   3.476  11.518  0.0700 -0.3564  2.6712
 9992TIP3    H254172   7.118   3.564  11.613  1.4411  1.6698 -0.1910
 9993TIP3   OH254173   5.723   3.130  12.535  0.2966  0.2246 -0.2127
 9993TIP3    H154174   5.774   3.060  12.494  1.6091 -1.4141  3.7592
 9993TIP3    H254175   5.633   3.116  12.503  0.7324 -2.6062 -0.4270
 9994TIP3   OH254176   7.559   0.668  10.694 -0.4430  0.7823  0.5935
 9994TIP3    H154177   7.625   0.721  10.740 -0.3437  0.4434  0.8472
 9994TIP3    H254178   7.496   0.645  10.762 -0.5782  0.7220  0.4464
 9995TIP3   OH254179   6.273   2.881  11.553 -0.0789 -0.3655 -0.1974
 9995TIP3    H154180   6.318   2.829  11.620  0.0666  0.1207  0.0867
 9995TIP3    H254181   6.239   2.817  11.492 -1.1830 -0.8959  0.9261
 9996TIP3   OH254182   6.844   3.433  10.551 -0.1497  0.3165 -0.0236
 9996TIP3    H154183   6.868   3.344  10.579  0.5510 -0.0671 -1.7191
 9996TIP3    H254184   6.756   3.446  10.587 -0.0990 -0.9115  0.6039
 9997TIP3   OH254185   6.595   1.454  12.080 -0.3683 -0.2419 -0.1466
 9997TIP3    H154186   6.562   1.375  12.124 -1.7027  0.6651  0.5647
 9997TIP3    H254187   6.534   1.467  12.007  0.1825 -0.1787 -0.5978
 9998TIP3   OH254188   4.616   5.862  11.113 -0.8127  0.1130  0.0615
 9998TIP3    H154189   4.660   5.826  11.190 -1.6102  0.6806  0.8069
 9998TIP3    H254190   4.546   5.917  11.149 -0.7677  0.9414 -1.0633
 9999TIP3   OH254191   5.803   3.667  12.161 -0.4790 -0.1245 -0.1332
 9999TIP3    H154192   5.893   3.636  12.148 -0.1734  1.1125 -1.1731
 9999TIP3    H254193   5.769   3.612  12.231  1.1243 -0.5529  0.3552
10000TIP3   OH254194   7.301   3.740  11.851  0.5204 -0.3126  0.4700
10000TIP3    H154195   7.206   3.747  11.845  0.4493  0.1878  1.7447
10000TIP3    H254196   7.319   3.647  11.838 -0.4251 -0.9083  2.8532
10001TIP3   OH254197   2.510   5.164  11.693  0.5468 -0.5347  0.7878
10001TIP3    H154198   2.593   5.209  11.678  0.2130 -0.1575 -0.0075
10001TIP3    H254199   2.452   5.232  11.727 -0.1803 -0.1290 -1.1353
10002TIP3   OH254200   3.301   7.298  10.821  0.1018 -0.3188  0.2558
10002TIP3    H154201   3.226   7.239  10.819  0.0749 -0.3518 -3.1751
10002TIP3    H254202   3.377   7.240  10.831 -0.0888 -0.6783 -0.3610
10003TIP3   OH254203   0.285   1.728  10.251  0.1088  0.4843 -0.5694
10003TIP3    H154204   0.200   1.740  10.210 -0.8328  1.5250  1.5289
10003TIP3    H254205   0.292   1.633  10.265 -1.3251  0.4792  0.3794
10004TIP3   OH254206   1.432   6.874  10.981 -0.2986  0.0458  0.0601
10004TIP3    H154207   1.515   6.867  10.934 -0.8290  1.8393 -1.2584
10004TIP3    H254208   1.381   6.936  10.929 -2.1358 -0.3522  1.3211
10005TIP3   OH254209   5.735   0.528  11.389 -0.0403  0.5446  0.1361
10005TIP3    H154210   5.764   0.619  11.378 -0.7423  0.6028 -1.4581
10005TIP3    H254211   5.656   0.522  11.336 -0.0529 -0.9795  0.3029
10006TIP3   OH254212   7.092   7.268  11.037 -0.7153  0.4777  0.1959
10006TIP3    H154213   7.108   7.310  11.122 -0.7410  1.0022 -0.0538
10006TIP3    H254214   7.098   7.340  10.974  1.3519 -0.2101 -0.4691
10007TIP3   OH254215   5.709   0.767  10.965 -0.4176  0.4027  0.3443
10007TIP3    H154216   5.728   0.677  10.941 -0.4351  0.0249  1.6942
10007TIP3    H254217   5.795   0.809  10.973 -0.3685  0.2397  0.6840
10008TIP3   OH254218   5.047   6.348  10.540  0.0313  0.0927  0.1394
10008TIP3    H154219   5.006   6.387  10.463  1.2398  0.8348 -0.1607
10008TIP3    H254220   5.141   6.362  10.527  0.2817 -0.0438  1.6015
10009TIP3   OH254221   4.356   5.994  10.733  0.1444 -0.2007  0.1524
10009TIP3    H154222   4.410   6.014  10.657  0.7901  0.0713  0.6745
10009TIP3    H254223   4.335   6.079  10.771 -0.4139 -0.3188  0.1229
10010TIP3   OH254224   2.325   1.436  10.923 -0.4031 -0.5654  0.3317
10010TIP3    H154225   2.275   1.432  10.842  0.1825  0.5268 -0.1035
10010TIP3    H254226   2.399   1.377  10.908 -0.7250 -0.9954  0.3980
10011TIP3   OH254227   0.879   4.139  10.761 -0.0208  0.0090  0.1162
10011TIP3    H154228   0.828   4.140  10.680  1.4831  1.8180 -0.8765
10011TIP3    H254229   0.919   4.052  10.763 -1.6805 -0.8054  0.0252
10012TIP3   OH254230   7.559   0.135  10.820 -0.2780 -0.1667 -0.0885
10012TIP3    H154231   7.484   0.159  10.765  0.3744 -0.2314 -1.0408
10012TIP3    H254232   7.559   0.198  10.891  1.1825  2.5978 -2.3179
10013TIP3   OH254233   4.611   6.063  12.145 -0.4445 -0.5628  0.0710
10013TIP3    H154234   4.644   6.031  12.229 -1.4740 -2.0345 -0.0680
10013TIP3    H254235   4.520   6.089  12.163 -0.4961 -0.3563 -0.4638
10014TIP3   OH254236   4.657   4.486  12.885 -0.3333  0.0968  0.0652
10014TIP3    H154237   4.577   4.522  12.924 -0.8997 -0.6902 -0.3263
10014TIP3    H254238   4.632   4.398  12.858  0.6041 -0.0666 -0.2971
10015TIP3   OH254239   5.143   6.162  12.152  0.2454  0.4215  0.4975
10015TIP3    H154240   5.232   6.154  12.119 -0.1807  1.1107 -0.9066
10015TIP3    H254241   5.110   6.243  12.113 -0.8966  0.3555  1.2555
10016TIP3   OH254242   7.562   2.156  11.314 -0.0208  0.2501 -0.4152
10016TIP3    H154243   7.655   2.132  11.314  0.2778  1.2608  1.5607
10016TIP3    H254244   7.525   2.110  11.389 -0.4271  2.1980  0.6402
10017TIP3   OH254245   0.881   6.363  12.352  0.1015  0.0952 -0.4712
10017TIP3    H154246   0.790   6.386  12.333 -0.1267  2.5823  2.8118
10017TIP3    H254247   0.930   6.394  12.277 -1.7001 -1.9147 -2.6418
10018TIP3   OH254248   4.471   0.763  11.608  0.4484  0.1905 -0.4324
10018TIP3    H154249   4.389   0.771  11.657 -0.4940 -1.2427 -1.7020
10018TIP3    H254250   4.512   0.850  11.616  0.0634  0.2331  2.3230
10019TIP3   OH254251   1.112   5.852  12.303 -0.2443 -0.2452 -0.2314
10019TIP3    H154252   1.093   5.943  12.328 -1.4868 -0.2587 -1.0184
10019TIP3    H254253   1.082   5.800  12.378 -0.5177 -0.0622 -0.2102
10020TIP3   OH254254   6.185   1.713  10.471  0.3175  0.2093  0.0576
10020TIP3    H154255   6.131   1.777  10.517  0.7362  1.0446 -0.5773
10020TIP3    H254256   6.150   1.713  10.381 -0.3271 -1.2079  0.2943
10021TIP3   OH254257   4.348   5.967  11.898 -0.1654  0.3223  0.4137
10021TIP3    H154258   4.276   6.020  11.933 -1.0137  0.0367 -0.8475
10021TIP3    H254259   4.358   5.896  11.962 -0.5382  0.7379  0.9499
10022TIP3   OH254260   5.091   4.200  13.391 -0.3255 -0.1362 -0.1238
10022TIP3    H154261   5.040   4.264  13.441 -0.6596 -0.9769  0.6363
10022TIP3    H254262   5.180   4.234  13.392 -0.7566  1.1289 -1.0959
10023TIP3   OH254263   0.036   6.934  13.024  0.1049 -0.0418  0.5110
10023TIP3    H154264  -0.028   6.870  13.055 -0.0223  0.1396  0.6325
10023TIP3    H254265   0.118   6.909  13.066 -0.1288  0.3714  1.2293
10024TIP3   OH254266   4.455   4.469  11.081 -0.0809 -0.1453  0.1547
10024TIP3    H154267   4.424   4.477  11.171 -1.6060 -0.3716 -0.3211
10024TIP3    H254268   4.455   4.559  11.048 -1.3916 -0.2536 -0.1895
10025TIP3   OH254269   7.446   4.898  11.553 -0.5704 -0.0385  0.5035
10025TIP3    H154270   7.443   4.811  11.595  0.9877  0.3489  1.5356
10025TIP3    H254271   7.534   4.902  11.515 -0.2501  1.4471  1.3339
10026TIP3   OH254272   3.332   0.614  10.487 -0.0279  0.0288 -0.0322
10026TIP3    H154273   3.380   0.568  10.419 -0.0496  0.5722 -0.4246
10026TIP3    H254274   3.298   0.692  10.444 -1.3228 -0.3704  0.2175
10027TIP3   OH254275   1.890   1.848  12.042  0.3759  0.3170  0.2148
10027TIP3    H154276   1.839   1.834  12.122  0.4226 -1.0893  0.0254
10027TIP3    H254277   1.981   1.850  12.072  0.3063  1.5273  0.3912
10028TIP3   OH254278   0.424   3.413  11.817  0.8055  0.1690  0.5171
10028TIP3    H154279   0.503   3.450  11.777  0.4475  0.5792  0.1911
10028TIP3    H254280   0.457   3.340  11.870  1.2654 -0.6531 -0.8324
10029TIP3   OH254281   6.595   7.474  11.054 -0.4106  0.5896 -0.1123
10029TIP3    H154282   6.593   7.561  11.093 -1.8700 -0.3933  2.2498
10029TIP3    H254283   6.507   7.440  11.069  0.3695 -1.5924 -0.2069
10030TIP3   OH254284   1.696   2.115  13.093 -0.0164  0.1678  0.4590
10030TIP3    H154285   1.676   2.177  13.023  0.7207 -0.4960 -0.3519
10030TIP3    H254286   1.611   2.082  13.120 -0.2214 -1.0551 -1.5049
10031TIP3   OH254287   4.448   1.503  11.468  0.6906 -0.5485 -0.3295
10031TIP3    H154288   4.428   1.509  11.561  0.7494 -0.6969 -0.3071
10031TIP3    H254289   4.387   1.564  11.426 -1.6375 -2.8076 -0.5358
10032TIP3   OH254290   1.686   1.389  10.863  0.3673 -0.0774 -0.5573
10032TIP3    H154291   1.715   1.305  10.899 -0.3114 -0.5066 -0.9929
10032TIP3    H254292   1.619   1.366  10.798  1.6794  0.6565 -2.2485
10033TIP3   OH254293   1.140   5.846  11.085  0.1374  0.3702 -0.0690
10033TIP3    H154294   1.208   5.911  11.100  1.6485 -0.7873 -1.5848
10033TIP3    H254295   1.101   5.832  11.172  2.6086  0.2502  1.0874
10034TIP3   OH254296   3.270   7.662  11.648 -0.4160 -0.0598 -0.4701
10034TIP3    H154297   3.329   7.658  11.724 -0.3129 -0.1118 -0.5536
10034TIP3    H254298   3.224   7.745  11.658 -1.2861 -0.6064  0.3152
10035TIP3   OH254299   3.013   1.129  12.009 -0.7284 -0.0155  1.0383
10035TIP3    H154300   3.089   1.118  11.952 -1.8758  2.7528 -1.2822
10035TIP3    H254301   3.046   1.175  12.086 -0.0450  1.5994 -0.1633
10036TIP3   OH254302   1.194   5.254  10.503  0.2534 -0.2456 -0.6909
10036TIP3    H154303   1.200   5.233  10.596 -0.4870  0.2797 -0.5104
10036TIP3    H254304   1.115   5.209  10.473 -0.0655  0.3902 -0.8259
10037TIP3   OH254305   0.409   0.278  10.909 -0.3473 -0.1540  0.1809
10037TIP3    H154306   0.426   0.265  10.816 -0.2017  0.4170  0.1275
10037TIP3    H254307   0.475   0.341  10.937 -0.0259 -0.7415  0.7992
10038TIP3   OH254308   1.525   6.411  11.057 -0.5056  0.2064  0.0747
10038TIP3    H154309   1.588   6.427  10.986 -1.4490 -1.1969 -1.1249
10038TIP3    H254310   1.460   6.480  11.047  0.2298  1.0170  0.6554
10039TIP3   OH254311   7.383   0.946  11.475  0.3825  0.1317 -0.9093
10039TIP3    H154312   7.307   0.938  11.533  1.1923 -1.9857 -0.0196
10039TIP3    H254313   7.440   1.010  11.518 -0.6580  1.3879 -1.3473
10040TIP3   OH254314   5.661   1.328  11.285  0.9177 -0.2024  0.7454
10040TIP3    H154315   5.665   1.409  11.335  0.1884  0.2131  0.1464
10040TIP3    H254316   5.568   1.317  11.264  1.1155 -0.7607  0.1238
10041TIP3   OH254317   1.624   1.223  12.102  0.6937 -0.1179  0.3662
10041TIP3    H154318   1.667   1.138  12.093 -1.9406 -1.5515  0.2253
10041TIP3    H254319   1.573   1.216  12.183  0.7573  1.5081  0.5875
10042TIP3   OH254320   6.516   7.032  11.614 -0.0503  0.3820 -0.2865
10042TIP3    H154321   6.557   7.094  11.552 -0.2160 -0.6214 -1.4399
10042TIP3    H254322   6.427   7.022  11.582 -0.6513  1.0634  1.0865
10043TIP3   OH254323   0.203   3.606  11.930  0.9359 -0.2274  0.2145
10043TIP3    H154324   0.154   3.548  11.988  0.3198  0.6237  0.5732
10043TIP3    H254325   0.268   3.550  11.889 -0.7257 -1.5586 -0.7594
10044TIP3   OH254326   0.600   0.761  12.313 -0.3764  0.0058  0.4689
10044TIP3    H154327   0.684   0.733  12.349 -0.2232 -0.6688 -0.3731
10044TIP3    H254328   0.551   0.794  12.388  1.6152  3.0163  0.6595
10045TIP3   OH254329   6.154   0.446  10.961  0.1126 -0.5707  0.4592
10045TIP3    H154330   6.059   0.443  10.961  0.0453  0.7791 -0.0376
10045TIP3    H254331   6.176   0.510  11.029  0.5976 -0.0264 -0.1883
10046TIP3   OH254332   0.470   1.982  12.453 -0.8190 -0.4131 -0.5234
10046TIP3    H154333   0.522   2.045  12.503  1.1479 -0.7459 -2.0144
10046TIP3    H254334   0.381   2.017  12.456 -0.3234  0.8542  1.1164
10047TIP3   OH254335   6.575   1.455  10.374 -0.3768 -0.2785  0.0628
10047TIP3    H154336   6.625   1.506  10.438 -0.9893  0.4879 -0.0490
10047TIP3    H254337   6.564   1.515  10.300  0.0763 -1.0539 -0.6431
10048TIP3   OH254338   3.269   6.429  12.500  0.4201  0.0197  0.2585
10048TIP3    H154339   3.304   6.374  12.571  0.8116 -2.3287 -1.6076
10048TIP3    H254340   3.264   6.517  12.538 -0.1962 -1.2350  3.4343
10049TIP3   OH254341   2.485   7.154  11.565  0.4856 -0.2450  0.1130
10049TIP3    H154342   2.481   7.228  11.626  1.9673 -0.1842  0.1728
10049TIP3    H254343   2.455   7.079  11.616 -2.3477  0.4592 -0.3102
10050TIP3   OH254344   2.470   1.375  12.118 -0.1760  0.8339 -0.2471
10050TIP3    H154345   2.432   1.327  12.191 -1.8554  0.5429 -1.2534
10050TIP3    H254346   2.420   1.345  12.042  2.1318  0.4026 -1.6818
10051TIP3   OH254347   5.617   2.576  12.202  0.4595  0.1312 -0.1206
10051TIP3    H154348   5.645   2.488  12.228  1.8701  0.6835  0.3600
10051TIP3    H254349   5.574   2.612  12.279 -2.8289 -1.1160 -1.1910
10052TIP3   OH254350   1.491   1.082  10.677 -0.0358 -0.2862 -0.0627
10052TIP3    H154351   1.431   1.152  10.652  0.4995 -0.1324 -0.9500
10052TIP3    H254352   1.569   1.097  10.625  1.2386  0.1829  1.8843
10053TIP3   OH254353   1.239   1.910  12.184 -0.5325  0.0090 -0.3502
10053TIP3    H154354   1.191   1.958  12.116 -0.3393 -0.5444 -0.8894
10053TIP3    H254355   1.305   1.860  12.136 -0.2467 -0.2214  0.2686
10054TIP3   OH254356   5.115   6.464  12.134 -0.1307  0.2960 -0.1319
10054TIP3    H154357   5.170   6.435  12.207  0.7296  0.4560 -0.6894
10054TIP3    H254358   5.138   6.557  12.123  1.0421 -0.1316 -1.6662
10055TIP3   OH254359   6.337   4.580  10.445 -0.1750 -0.3532  0.4171
10055TIP3    H154360   6.256   4.560  10.398 -0.3014  1.1128 -0.0248
10055TIP3    H254361   6.347   4.508  10.507 -1.3930 -0.9648 -0.0714
10056TIP3   OH254362   3.816   2.354  13.074 -0.0721  0.7469 -0.2565
10056TIP3    H154363   3.740   2.296  13.071  0.3898  0.1619 -0.8657
10056TIP3    H254364   3.780   2.442  13.061 -0.8811  0.7194  1.5699
10057TIP3   OH254365   3.889   1.140  12.393 -0.0542  0.0009  0.0321
10057TIP3    H154366   3.819   1.135  12.329 -2.7418  0.6199  2.7292
10057TIP3    H254367   3.962   1.181  12.345 -1.2523 -1.1446 -3.0269
10058TIP3   OH254368   4.671   0.524  10.550  0.0020 -0.3256 -0.6158
10058TIP3    H154369   4.752   0.478  10.572 -0.1165  0.7069  2.4911
10058TIP3    H254370   4.612   0.455  10.519  1.1544 -1.5679 -0.1528
10059TIP3   OH254371   5.865   5.508  13.081  0.2029 -0.1510  0.3060
10059TIP3    H154372   5.864   5.478  13.172 -0.5618 -1.8130 -0.2197
10059TIP3    H254373   5.772   5.518  13.058  0.2690 -2.0051 -0.9651
10060TIP3   OH254374   6.263   6.341  11.384  0.3776  0.5623 -1.0440
10060TIP3    H154375   6.351   6.350  11.422  0.7226  0.2135 -1.7372
10060TIP3    H254376   6.206   6.386  11.446  0.9757  0.3515 -0.3125
10061TIP3   OH254377   2.802   0.387  11.435 -0.3978 -0.7222 -0.3555
10061TIP3    H154378   2.816   0.396  11.530 -1.0676  0.2531 -0.3431
10061TIP3    H254379   2.860   0.452  11.396  1.2641 -2.3468 -0.7479
10062TIP3   OH254380   1.454   5.345  10.561 -0.1884 -0.3127 -0.1321
10062TIP3    H154381   1.361   5.332  10.541 -0.0258 -1.2188 -0.3609
10062TIP3    H254382   1.500   5.303  10.488  0.3997 -0.0791  0.1000
10063TIP3   OH254383   3.350   2.859  11.277  0.1433  0.2658 -0.0509
10063TIP3    H154384   3.280   2.793  11.274  0.3432 -0.0093  0.9800
10063TIP3    H254385   3.431   2.808  11.266  0.2910  0.3389  0.6397
10064TIP3   OH254386   5.997   4.112  11.767 -0.1585 -0.8402  0.0669
10064TIP3    H154387   5.910   4.133  11.800 -0.4985 -1.1202 -0.6523
10064TIP3    H254388   6.055   4.135  11.840 -0.6339  1.0988 -0.1007
10065TIP3   OH254389   5.732   0.038  13.183 -0.0645 -0.5258  0.0061
10065TIP3    H154390   5.651  -0.012  13.190 -0.4995  0.2224  0.4037
10065TIP3    H254391   5.708   0.118  13.138  0.7765 -0.9557 -1.2878
10066TIP3   OH254392   1.049   3.861  11.740  0.2924 -0.5452 -0.1511
10066TIP3    H154393   1.143   3.879  11.744  0.3926 -1.0334 -0.3083
10066TIP3    H254394   1.042   3.772  11.706 -0.2295 -0.5010 -0.1761
10067TIP3   OH254395   7.129   4.154  10.543 -0.3367  0.4204  0.2528
10067TIP3    H154396   7.139   4.180  10.635 -0.1028  0.7528  0.1379
10067TIP3    H254397   7.053   4.097  10.542 -0.1225  0.1235  0.7130
10068TIP3   OH254398   6.716   6.047  10.488 -0.0249 -0.1079  0.6164
10068TIP3    H154399   6.765   6.046  10.570  1.4952 -1.2064 -0.2481
10068TIP3    H254400   6.751   6.123  10.441 -0.0566 -0.1494  0.5245
10069TIP3   OH254401   1.954   5.101  12.612  0.1490 -0.2544  0.3249
10069TIP3    H154402   1.927   5.168  12.549 -0.9135 -1.2550 -0.3252
10069TIP3    H254403   2.016   5.046  12.563 -0.1094 -0.5967  0.3752
10070TIP3   OH254404   4.354   4.945  10.942  0.0457 -0.1333 -0.4174
10070TIP3    H154405   4.404   4.985  11.012  0.2336 -0.6666 -0.2405
10070TIP3    H254406   4.355   5.009  10.871 -1.0569  0.8835  0.4365
10071TIP3   OH254407   4.760   5.629  11.041 -0.4400 -0.3727 -0.5378
10071TIP3    H154408   4.708   5.707  11.020 -1.5712 -0.8600  0.3266
10071TIP3    H254409   4.804   5.607  10.959  0.0623  1.2707 -0.7549
10072TIP3   OH254410   3.312   3.303  12.158 -0.0881 -0.0224  0.1039
10072TIP3    H154411   3.326   3.213  12.130 -0.2227 -0.4990  1.4594
10072TIP3    H254412   3.255   3.341  12.091  0.2903 -0.8249 -0.6855
10073TIP3   OH254413   3.634   2.841  12.144  0.0922  0.1000 -0.3120
10073TIP3    H154414   3.552   2.796  12.164 -0.8611  2.1699  0.7653
10073TIP3    H254415   3.666   2.871  12.229 -0.7830  3.7384 -1.0940
10074TIP3   OH254416   6.941   1.023  11.812  0.1299 -0.3172  0.1348
10074TIP3    H154417   6.921   1.044  11.720  1.0083 -0.8557 -0.1871
10074TIP3    H254418   6.930   1.106  11.858  1.5514  0.4243 -0.7800
10075TIP3   OH254419   2.789   3.799  12.937  0.0487 -0.1207  0.5340
10075TIP3    H154420   2.869   3.849  12.952 -0.9632  1.7756 -0.0111
10075TIP3    H254421   2.819   3.716  12.902  1.7926  0.3691  0.7363
10076TIP3   OH254422   1.007   7.150  12.435  0.5419  0.0931  0.1194
10076TIP3    H154423   1.066   7.218  12.468  0.9385 -0.0926 -0.1922
10076TIP3    H254424   1.058   7.106  12.366  0.1329 -0.2389  0.0260
10077TIP3   OH254425   5.659   6.586  11.999  0.0946  0.5079  0.2164
10077TIP3    H154426   5.638   6.579  11.906  1.2610  0.9841 -0.0996
10077TIP3    H254427   5.618   6.668  12.027 -0.3649  0.2994  0.1526
10078TIP3   OH254428   7.212   6.968  10.754 -0.1928 -0.2065  0.8248
10078TIP3    H154429   7.155   6.912  10.700  1.4827 -1.7823  0.6001
10078TIP3    H254430   7.168   7.053  10.754 -1.3222 -0.7110 -1.3238
10079TIP3   OH254431   6.332   3.190  11.837 -0.4696  0.4813 -0.0394
10079TIP3    H154432   6.366   3.144  11.914  1.6983 -0.0416 -1.2168
10079TIP3    H254433   6.401   3.253  11.815 -2.3600  2.8002  0.1729
10080TIP3   OH254434   2.271   1.544  11.413 -0.3319  0.3717 -0.1916
10080TIP3    H154435   2.289   1.500  11.330 -0.0314  0.9730 -0.4495
10080TIP3    H254436   2.335   1.615  11.418 -0.8738  0.8531  0.1639
10081TIP3   OH254437   0.108   0.843  10.834 -0.4065 -0.8852  0.4402
10081TIP3    H154438   0.089   0.879  10.747 -0.4978 -1.5758  0.1743
10081TIP3    H254439   0.201   0.823  10.832 -0.0974  0.3926  0.9820
10082TIP3   OH254440   7.305   3.005  11.273  0.1796 -1.0696  0.2099
10082TIP3    H154441   7.237   3.007  11.340  1.6445 -0.9426  1.7534
10082TIP3    H254442   7.343   2.917  11.279  0.0252 -1.2286 -0.8132
10083TIP3   OH254443   5.853   5.514  11.143 -0.0579 -0.5302  0.2401
10083TIP3    H154444   5.925   5.498  11.082 -0.1745 -2.6465  0.5714
10083TIP3    H254445   5.838   5.429  11.185 -1.6355  0.2668  1.4021
10084TIP3   OH254446   2.624   3.129  11.873 -0.2541  0.1753  0.4050
10084TIP3    H154447   2.577   3.101  11.951 -0.6941  1.0740  0.4750
10084TIP3    H254448   2.714   3.143  11.902  0.0476 -1.4157  0.3043
10085TIP3   OH254449   4.337   3.090  10.523  0.4855  0.2865  0.2490
10085TIP3    H154450   4.381   3.175  10.515  0.1890  0.4009 -0.1921
10085TIP3    H254451   4.257   3.110  10.571  0.7596  0.1317  0.7753
10086TIP3   OH254452   0.583   7.570  10.965 -0.3914  0.1560 -0.5680
10086TIP3    H154453   0.645   7.521  11.018 -0.4373  0.1009 -0.5657
10086TIP3    H254454   0.588   7.659  10.999 -1.3764 -0.1393  0.4045
10087TIP3   OH254455   1.536   1.015  11.738 -0.0682 -0.3781 -0.0299
10087TIP3    H154456   1.466   1.000  11.674 -0.2348  1.2116 -0.2496
10087TIP3    H254457   1.518   1.102  11.774  1.5329 -0.1249  0.2421
10088TIP3   OH254458   3.538   5.608  12.699 -0.3507 -1.1838  0.2151
10088TIP3    H154459   3.523   5.634  12.608  1.4077 -1.3200 -0.1358
10088TIP3    H254460   3.453   5.621  12.741 -0.8734  0.1259 -1.1427
10089TIP3   OH254461   5.303   0.340  10.820 -0.7762 -0.0002 -0.2391
10089TIP3    H154462   5.320   0.246  10.814 -1.7770 -0.1615 -0.6817
10089TIP3    H254463   5.387   0.380  10.797 -0.4628 -0.7779 -0.5161
10090TIP3   OH254464   4.165   5.098  11.300  0.2665  0.3570 -0.5117
10090TIP3    H154465   4.106   5.087  11.225  0.9375  1.3820 -1.2099
10090TIP3    H254466   4.220   5.172  11.277 -0.1123  1.3069  1.3949
10091TIP3   OH254467   1.047   0.644  11.407  0.2043  0.0578 -0.2549
10091TIP3    H154468   1.095   0.716  11.448  0.3574 -0.8708  1.2799
10091TIP3    H254469   1.094   0.626  11.326  0.7526  1.0235 -0.1570
10092TIP3   OH254470   0.410   6.607  12.230  0.2635 -0.4300 -0.5075
10092TIP3    H154471   0.359   6.571  12.157  0.2802  1.0932 -1.3255
10092TIP3    H254472   0.430   6.696  12.202  2.1793 -0.5379  0.4211
10093TIP3   OH254473   7.188   1.498  11.692  0.1907  0.1403 -0.6752
10093TIP3    H154474   7.248   1.570  11.679 -0.9491  1.1669 -0.4211
10093TIP3    H254475   7.244   1.423  11.712  1.3427  1.3259  0.7607
10094TIP3   OH254476   5.689   6.019  10.740  0.1476  0.0575 -0.1605
10094TIP3    H154477   5.658   6.032  10.830  1.4129  1.3516  0.1385
10094TIP3    H254478   5.784   6.026  10.747  0.4263 -1.9979 -1.3019
10095TIP3   OH254479   0.400   4.138  12.059  0.3240  0.2033 -0.1832
10095TIP3    H154480   0.334   4.192  12.014  1.1746  2.4556  1.0911
10095TIP3    H254481   0.400   4.055  12.011 -1.3830  1.1594 -1.9947
10096TIP3   OH254482   1.129   1.075  12.343  0.1524 -0.5725  0.8593
10096TIP3    H154483   1.203   1.084  12.403  0.0897 -0.4150  0.9162
10096TIP3    H254484   1.067   1.019  12.389  0.7890 -1.7917  0.2668
10097TIP3   OH254485   6.621   6.704  11.009  0.2395  0.0572 -0.1609
10097TIP3    H154486   6.714   6.719  11.027  0.4706  2.1214 -2.4795
10097TIP3    H254487   6.595   6.779  10.955 -3.1904  0.3250  1.6102
10098TIP3   OH254488   2.288   4.513  11.638 -0.3666  0.0124  0.2574
10098TIP3    H154489   2.269   4.574  11.710  0.2292 -0.0406  0.4682
10098TIP3    H254490   2.273   4.426  11.675 -1.6943  0.0267 -0.1867
10099TIP3   OH254491   3.536   2.776  12.797  0.0381 -0.1402 -0.6473
10099TIP3    H154492   3.518   2.684  12.813  0.1198 -0.0789 -0.1798
10099TIP3    H254493   3.455   2.810  12.757 -0.1252 -0.3295 -0.4768
10100TIP3   OH254494   4.250   1.922  10.586 -0.1744  0.1778 -0.1074
10100TIP3    H154495   4.225   1.974  10.663 -1.3156  0.5529 -0.7205
10100TIP3    H254496   4.342   1.945  10.572 -0.0466  0.3811  0.9235
10101TIP3   OH254497   6.972   0.041  11.318  0.2859  0.0360  0.1118
10101TIP3    H154498   7.063   0.069  11.312  0.6027 -1.0893 -0.7000
10101TIP3    H254499   6.972  -0.025  11.388  0.4312 -1.1009 -0.9148
10102TIP3   OH254500   5.559   5.985  10.981 -0.8113  0.0053 -0.3782
10102TIP3    H154501   5.637   5.974  11.035 -0.2199  0.2130 -1.1770
10102TIP3    H254502   5.518   5.898  10.979 -0.6020 -0.1023  0.0509
10103TIP3   OH254503   2.028   6.926  12.114 -0.2605  0.4974  0.2652
10103TIP3    H154504   2.072   6.970  12.187  2.4204 -1.7584  0.1553
10103TIP3    H254505   1.970   6.863  12.155  1.3505 -0.8685  0.5416
10104TIP3   OH254506   7.264   0.524  10.996 -0.0926  0.1428 -0.2979
10104TIP3    H154507   7.232   0.580  10.926 -0.5192  0.6263  0.2755
10104TIP3    H254508   7.234   0.566  11.077  0.9970 -0.0227  0.2088
10105TIP3   OH254509   3.899   3.062  12.051  0.1364 -0.2619 -0.3557
10105TIP3    H154510   3.963   3.041  12.119 -0.5881 -1.9217 -0.1442
10105TIP3    H254511   3.866   3.149  12.075 -0.2456 -0.8789  1.5500
10106TIP3   OH254512   2.245   3.732  13.118  0.2837  0.0592 -0.0367
10106TIP3    H154513   2.257   3.703  13.028  1.9018  1.2237 -0.2287
10106TIP3    H254514   2.189   3.665  13.157  0.7344 -1.2342 -1.5025
10107TIP3   OH254515   6.165   1.975  11.449 -0.5675 -0.5812 -0.5286
10107TIP3    H154516   6.184   1.885  11.475 -0.3991 -0.6468 -0.8643
10107TIP3    H254517   6.173   1.974  11.353  1.2829  0.2010 -0.4183
10108TIP3   OH254518   2.949   1.463  12.220  0.2104  0.0598  0.1710
10108TIP3    H154519   2.886   1.492  12.153  1.0292  0.5109 -0.4184
10108TIP3    H254520   2.900   1.398  12.271 -0.4561 -0.2744 -0.8394
10109TIP3   OH254521   5.356   4.295  13.331  0.5952  0.1321  0.6649
10109TIP3    H154522   5.429   4.300  13.394  1.2433 -1.1326  0.0469
10109TIP3    H254523   5.384   4.229  13.268 -0.9424 -0.0942  0.1983
10110TIP3   OH254524   6.785   7.089  10.471 -0.0866 -0.4124 -0.1612
10110TIP3    H154525   6.729   7.166  10.466  0.3986  0.0730  1.3086
10110TIP3    H254526   6.867   7.115  10.429 -0.6081 -0.8019 -1.4437
10111TIP3   OH254527   7.244   2.292  11.031 -0.0609  0.2436 -0.3795
10111TIP3    H154528   7.178   2.259  11.093  1.2842 -0.7240  0.6129
10111TIP3    H254529   7.208   2.374  10.999 -1.7688 -0.2785  0.0865
10112TIP3   OH254530   6.580   5.166  11.146  0.2160 -0.3069  0.0149
10112TIP3    H154531   6.650   5.181  11.083  1.8797 -0.4398  1.7554
10112TIP3    H254532   6.624   5.133  11.224 -1.8697 -1.0485  0.9555
10113TIP3   OH254533   0.333   0.071  10.518 -0.5474 -0.1319  0.3023
10113TIP3    H154534   0.391  -0.004  10.515 -0.1390  0.1673  0.6500
10113TIP3    H254535   0.271   0.051  10.589  0.5032  0.5281  1.4430
10114TIP3   OH254536   7.538   2.598  10.877  0.4259 -0.0598  0.3938
10114TIP3    H154537   7.605   2.666  10.883 -0.7087  0.9886  2.3119
10114TIP3    H254538   7.457   2.646  10.860 -0.4956 -0.7906  2.3252
10115TIP3   OH254539   7.341   1.273  11.646 -0.1179  0.0656  0.3769
10115TIP3    H154540   7.323   1.273  11.552 -0.2552 -3.6181  0.2649
10115TIP3    H254541   7.433   1.247  11.653 -0.3990 -0.7626  1.2353
10116TIP3   OH254542   2.845   0.426  11.708  0.1001  0.1127  0.0373
10116TIP3    H154543   2.819   0.507  11.751  0.4092  0.5032 -0.4947
10116TIP3    H254544   2.931   0.406  11.744 -0.8021 -1.0807  1.6614
10117TIP3   OH254545   1.640   6.495  13.135  0.5099  0.0056  0.1166
10117TIP3    H154546   1.685   6.579  13.128  0.7912 -0.0691  0.9430
10117TIP3    H254547   1.703   6.431  13.100  0.1712  0.1659 -0.8174
10118TIP3   OH254548   0.484   5.375  11.119 -0.2769  0.4944 -0.5031
10118TIP3    H154549   0.519   5.406  11.036  1.0319 -2.3259 -1.1307
10118TIP3    H254550   0.407   5.429  11.134  1.7650  3.9703 -1.3374
10119TIP3   OH254551   5.045   5.370  11.561 -0.1749  0.8429  0.2412
10119TIP3    H154552   4.985   5.297  11.571 -1.2979  1.6965 -0.1586
10119TIP3    H254553   5.063   5.375  11.467 -0.7969  1.6168  0.1564
10120TIP3   OH254554   2.137   5.075  11.717  0.6143 -0.3888 -0.1398
10120TIP3    H154555   2.165   5.139  11.651 -2.2220  0.0506 -1.0957
10120TIP3    H254556   2.125   4.994  11.667 -2.5453  0.1938 -0.5871
10121TIP3   OH254557   2.145   3.583  11.575  0.0062 -0.3570 -0.2533
10121TIP3    H154558   2.237   3.555  11.576  0.7386  1.8687 -0.6716
10121TIP3    H254559   2.146   3.669  11.534 -2.1770  0.1244  0.5602
10122TIP3   OH254560   7.622   6.248  12.040  0.2447  0.0142  0.4035
10122TIP3    H154561   7.605   6.154  12.046  0.3989  0.0664  2.4386
10122TIP3    H254562   7.701   6.255  11.987  0.9231 -1.0930  1.2389
10123TIP3   OH254563   3.657   4.968  12.517  0.5795 -0.1109 -0.1781
10123TIP3    H154564   3.624   5.057  12.517 -2.2581 -1.0089  2.3907
10123TIP3    H254565   3.603   4.922  12.452  1.8398 -0.1100 -1.2889
10124TIP3   OH254566   3.663   1.511  11.301  0.2716 -0.7929  0.6303
10124TIP3    H154567   3.739   1.511  11.360  0.7502  0.0492  0.0287
10124TIP3    H254568   3.588   1.518  11.360  0.7600  0.4434  1.1375
10125TIP3   OH254569   7.263   0.641  12.079 -0.1656 -0.4634 -0.0489
10125TIP3    H154570   7.230   0.656  12.168 -0.9034 -1.6337 -0.1117
10125TIP3    H254571   7.199   0.684  12.022 -1.2864 -2.1754 -0.1380
10126TIP3   OH254572   0.454   7.090  12.928  0.6935  0.3414  0.4570
10126TIP3    H154573   0.518   7.105  12.997  2.8122  0.0362 -1.3398
10126TIP3    H254574   0.445   7.174  12.883 -1.0150  0.6597  1.2993
10127TIP3   OH254575   3.203   5.643  10.735  0.1871 -0.6189  0.2666
10127TIP3    H154576   3.291   5.618  10.762  1.0012 -1.8912 -3.0017
10127TIP3    H254577   3.217   5.704  10.662 -1.6793  0.1556  0.4950
10128TIP3   OH254578   4.782   1.638  11.134  0.2240  0.4004 -0.0292
10128TIP3    H154579   4.746   1.707  11.079 -0.4478  0.0466 -0.0421
10128TIP3    H254580   4.768   1.668  11.223 -0.0811  0.2783 -0.0345
10129TIP3   OH254581   6.686   0.250  13.018  0.4256 -0.0171  0.2593
10129TIP3    H154582   6.620   0.318  13.003  0.2142  0.1248  1.6280
10129TIP3    H254583   6.635   0.169  13.028  0.5770 -0.1583 -0.1086
10130TIP3   OH254584   6.682   5.323  12.513 -0.5057 -1.2717 -0.6074
10130TIP3    H154585   6.737   5.254  12.550 -0.1400  0.3652  2.1680
10130TIP3    H254586   6.609   5.331  12.575 -2.4344 -1.4636 -2.7227
10131TIP3   OH254587   6.064   6.312  11.058  0.3134  0.3680  0.5702
10131TIP3    H154588   6.098   6.229  11.092  2.1280  0.2790 -1.2957
10131TIP3    H254589   6.014   6.288  10.980  0.9721  1.0180 -0.0673
10132TIP3   OH254590   2.994   7.266  12.630  0.8705  0.2492 -0.2934
10132TIP3    H154591   3.043   7.344  12.657  1.2090 -0.7116  2.1506
10132TIP3    H254592   2.982   7.216  12.711 -1.6120 -0.9912 -1.2977
10133TIP3   OH254593   6.766   7.402  11.549  0.2054 -0.1789  0.2242
10133TIP3    H154594   6.706   7.471  11.520  0.0893 -0.0657  0.7259
10133TIP3    H254595   6.722   7.321  11.524  0.4781 -0.0693 -0.6321
10134TIP3   OH254596   4.036   6.506  11.490 -0.1000 -0.0959 -0.6212
10134TIP3    H154597   3.964   6.467  11.441 -0.0593  0.3487 -1.0443
10134TIP3    H254598   4.029   6.600  11.473  1.6503 -0.1802 -2.2019
10135TIP3   OH254599   3.645   3.461  10.966 -0.0168  0.1926  0.0952
10135TIP3    H154600   3.601   3.497  10.888 -1.0887 -1.0720  0.0759
10135TIP3    H254601   3.587   3.390  10.995  1.4323 -0.7484  0.7982
10136TIP3   OH254602   3.878   5.970  11.189 -0.0977 -0.5610 -0.6354
10136TIP3    H154603   3.956   6.006  11.147  0.4451  0.8235  1.4053
10136TIP3    H254604   3.811   6.036  11.174 -0.7588 -1.4657 -1.8499
10137TIP3   OH254605   7.470   1.313  12.427 -0.0057  0.0517 -0.1626
10137TIP3    H154606   7.487   1.236  12.481 -0.4230  1.2856  1.8148
10137TIP3    H254607   7.556   1.352  12.413 -0.0298  0.5400  0.9282
10138TIP3   OH254608   3.401   0.963  11.061  0.1755 -0.1365  0.2556
10138TIP3    H154609   3.453   1.014  11.000  1.5318 -1.9736 -0.2031
10138TIP3    H254610   3.463   0.936  11.129 -1.2872  1.9411  2.6441
10139TIP3   OH254611   0.316   4.356  12.388  0.2912  0.1747  0.5446
10139TIP3    H154612   0.279   4.416  12.323 -0.2850 -0.1273  0.5896
10139TIP3    H254613   0.383   4.307  12.340 -1.8162 -1.8237 -0.5503
10140TIP3   OH254614   1.022   7.182  10.787  0.1322  0.3189 -0.5637
10140TIP3    H154615   1.092   7.194  10.852  0.8308  0.5661 -1.3457
10140TIP3    H254616   1.029   7.091  10.760 -0.3523  0.1345 -0.0834
10141TIP3   OH254617   4.413   4.163  13.227  0.2667 -0.0664  0.2451
10141TIP3    H154618   4.452   4.101  13.288 -1.7717 -1.9118 -0.1781
10141TIP3    H254619   4.396   4.112  13.148 -1.5161  0.9872 -0.1298
10142TIP3   OH254620   0.672   1.646  10.440 -0.2951 -0.2442 -0.0380
10142TIP3    H154621   0.595   1.594  10.462  0.2853 -0.9673  0.3273
10142TIP3    H254622   0.716   1.661  10.524  0.7864 -1.1757 -0.4063
10143TIP3   OH254623   4.512   7.508  11.421  0.2917  0.2540  0.3888
10143TIP3    H154624   4.513   7.413  11.407 -1.6799  0.1167  0.8394
10143TIP3    H254625   4.421   7.533  11.404  1.1038  2.3535 -1.4046
10144TIP3   OH254626   5.409   5.560  10.515 -0.2903 -0.2707  1.1495
10144TIP3    H154627   5.350   5.485  10.517 -0.7961  0.1173  1.6084
10144TIP3    H254628   5.350   5.636  10.521  0.0656  0.2588 -1.1052
10145TIP3   OH254629   0.856   6.578  12.505 -0.0473 -0.3563 -0.0678
10145TIP3    H154630   0.883   6.500  12.457 -0.4927 -0.2372 -0.5278
10145TIP3    H254631   0.892   6.566  12.593 -0.3056 -1.1820 -0.0670
10146TIP3   OH254632   4.748   1.861  11.713 -0.1310  0.0626  0.3127
10146TIP3    H154633   4.665   1.861  11.665 -0.3807 -0.5844  0.7362
10146TIP3    H254634   4.774   1.954  11.716 -0.2413  0.1356 -0.8349
10147TIP3   OH254635   0.265   2.063  12.854 -0.8003  0.2943 -0.4230
10147TIP3    H154636   0.217   2.020  12.924  0.2285 -3.6034 -1.8881
10147TIP3    H254637   0.354   2.074  12.888 -0.9570  0.9729 -0.2063
10148TIP3   OH254638   6.849   2.409  11.328 -0.4531  0.0279 -0.3284
10148TIP3    H154639   6.844   2.355  11.407 -0.3806 -1.6386 -1.4183
10148TIP3    H254640   6.902   2.358  11.267 -1.2814  0.8385 -1.7968
10149TIP3   OH254641   2.548   0.291  11.379 -0.1045 -0.2319  0.1803
10149TIP3    H154642   2.639   0.313  11.400  0.4158 -1.3362 -0.8149
10149TIP3    H254643   2.496   0.361  11.421  1.2722  1.1626 -0.3433
10150TIP3   OH254644   5.303   3.791  12.762  0.2957 -0.0995 -0.0031
10150TIP3    H154645   5.367   3.798  12.833 -0.8832  2.5526  0.9267
10150TIP3    H254646   5.226   3.752  12.803  0.7344 -1.9130 -0.7752
10151TIP3   OH254647   2.778   3.995  13.162  0.1702  0.0001 -0.4583
10151TIP3    H154648   2.724   4.058  13.114  0.5512 -0.5815 -1.6817
10151TIP3    H254649   2.783   3.919  13.105  0.3524 -0.8557  0.6761
10152TIP3   OH254650   3.689   6.838  12.747  0.4089 -0.3851 -0.0716
10152TIP3    H154651   3.612   6.815  12.800  0.4898 -1.6581 -0.4758
10152TIP3    H254652   3.762   6.831  12.808  0.2020  1.2621  0.4308
10153TIP3   OH254653   6.505   6.318  11.546  0.1469  0.8367  0.4011
10153TIP3    H154654   6.575   6.355  11.599 -0.9628  0.8468  1.9018
10153TIP3    H254655   6.512   6.224  11.557 -0.7168  0.8722  1.4566
10154TIP3   OH254656   0.416   3.896  11.016 -0.1668  0.1846  0.2400
10154TIP3    H154657   0.359   3.825  11.045 -2.1166  1.8419  0.6798
10154TIP3    H254658   0.500   3.879  11.059 -1.2007 -0.7350  2.0010
10155TIP3   OH254659   2.925   1.795  12.480  0.4324  0.1275 -0.5226
10155TIP3    H154660   2.970   1.858  12.423  1.2046 -2.3089 -2.7750
10155TIP3    H254661   2.969   1.712  12.464 -1.1280 -1.2205  1.6597
10156TIP3   OH254662   4.892   2.576  11.631 -0.0341 -0.8803  0.5430
10156TIP3    H154663   4.984   2.554  11.648  0.5540  0.5187 -0.6314
10156TIP3    H254664   4.896   2.650  11.571 -1.9476 -0.4050  0.9476
10157TIP3   OH254665   5.071   1.242  12.558 -0.0065  0.2028 -0.1240
10157TIP3    H154666   5.144   1.184  12.580 -0.1316  0.3530  0.7200
10157TIP3    H254667   5.003   1.183  12.526  0.4916  0.0677 -0.9697
10158TIP3   OH254668   0.207   3.394  11.082 -0.0257  0.1419 -0.3143
10158TIP3    H154669   0.267   3.356  11.146 -1.7976 -1.3975  0.5061
10158TIP3    H254670   0.121   3.389  11.123 -0.9065  1.2388 -1.9138
10159TIP3   OH254671   1.710   0.734  11.383  0.2261  0.3985 -0.0220
10159TIP3    H154672   1.766   0.682  11.442  1.6981  0.5104 -1.2564
10159TIP3    H254673   1.715   0.689  11.299 -1.0050  0.8175 -0.3335
10160TIP3   OH254674   0.923   4.971  12.077 -0.3705  0.0640  0.6098
10160TIP3    H154675   0.847   5.026  12.061  0.6047  1.6578  1.1915
10160TIP3    H254676   0.893   4.882  12.058 -2.1462  0.7236  0.1301
10161TIP3   OH254677   1.234   0.328  11.756 -0.2564  0.0266 -0.6503
10161TIP3    H154678   1.297   0.349  11.824 -1.0301  0.8220 -0.1528
10161TIP3    H254679   1.275   0.359  11.675  0.7917 -1.1882 -0.6117
10162TIP3   OH254680   0.907   0.380  11.810 -0.0056  0.4139 -0.1632
10162TIP3    H154681   0.881   0.313  11.874 -0.6733  0.4117 -0.4239
10162TIP3    H254682   0.900   0.463  11.858 -2.1549  0.5950 -0.6457
10163TIP3   OH254683   1.682   7.056  11.107 -0.7852  0.2809  0.2065
10163TIP3    H154684   1.725   7.119  11.165 -1.2161 -0.1048  0.9461
10163TIP3    H254685   1.618   7.108  11.059  0.5455  0.8897 -0.9912
10164TIP3   OH254686   0.954   1.308  11.751 -0.2220 -0.2771  0.1349
10164TIP3    H154687   0.885   1.358  11.707  1.8973  2.1393 -0.6635
10164TIP3    H254688   0.972   1.357  11.831  0.6930 -0.7582  0.2372
10165TIP3   OH254689   4.162   2.202  12.472 -0.3101 -0.1875  0.2287
10165TIP3    H154690   4.254   2.212  12.448 -0.7302  2.9570 -0.5008
10165TIP3    H254691   4.114   2.247  12.402 -2.6325 -3.3408 -0.4485
10166TIP3   OH254692   2.256   6.571  10.508  1.0881  0.4379 -0.4485
10166TIP3    H154693   2.233   6.479  10.495  0.9743  0.4616 -0.4130
10166TIP3    H254694   2.331   6.568  10.568 -0.2589  0.4428  1.3212
10167TIP3   OH254695   1.313   6.760  13.202 -0.1781  0.2163 -0.3912
10167TIP3    H154696   1.345   6.697  13.138  1.6555  1.6150 -0.9274
10167TIP3    H254697   1.389   6.780  13.257 -0.9818  1.1639  0.4220
10168TIP3   OH254698   4.358   0.752  13.218 -0.0377 -0.2368 -0.7663
10168TIP3    H154699   4.378   0.829  13.164  0.8305 -1.3951 -2.1873
10168TIP3    H254700   4.443   0.711  13.232 -0.2533 -0.0421  1.4733
10169TIP3   OH254701   6.750   2.963  10.615 -0.3653 -0.2291 -0.3716
10169TIP3    H154702   6.815   2.984  10.547 -1.3944  1.1381 -0.9806
10169TIP3    H254703   6.767   2.872  10.637  1.2174 -0.1548 -1.1100
10170TIP3   OH254704   0.102   6.586  13.039  0.1455 -0.5483 -0.2724
10170TIP3    H154705   0.044   6.662  13.042 -0.0154 -0.6042 -1.4706
10170TIP3    H254706   0.055   6.517  13.087  0.5738  0.2607  1.3861
10171TIP3   OH254707   0.648   0.575  11.661  0.4810 -0.2823 -0.1608
10171TIP3    H154708   0.646   0.489  11.701  1.6116 -0.4264 -0.3621
10171TIP3    H254709   0.589   0.628  11.714 -0.2464 -1.1814 -0.0554
10172TIP3   OH254710   7.610   2.620  11.341 -0.3111 -0.6642 -0.7559
10172TIP3    H154711   7.685   2.601  11.284  1.0032 -0.0359  0.6701
10172TIP3    H254712   7.584   2.709  11.318  0.5509 -0.2155 -0.0647
10173TIP3   OH254713   0.874   1.274  10.408 -0.1691  0.0673 -0.1199
10173TIP3    H154714   0.816   1.200  10.392 -0.4255  0.1949  0.2073
10173TIP3    H254715   0.857   1.334  10.335 -1.7446  0.9034  0.8859
10174TIP3   OH254716   1.928   1.643  10.612  0.0414  0.1471 -0.1537
10174TIP3    H154717   1.881   1.625  10.694 -0.5228  0.1613 -0.4699
10174TIP3    H254718   1.919   1.737  10.599 -0.0469  0.1132 -0.3388
10175TIP3   OH254719   0.503   2.678  12.854  0.0001  0.0191 -0.3248
10175TIP3    H154720   0.442   2.753  12.851 -0.1556  0.0098  1.4002
10175TIP3    H254721   0.585   2.715  12.887 -0.0657 -0.5423  0.5046
10176TIP3   OH254722   1.172   0.442  13.497 -0.0802  0.3723 -0.1384
10176TIP3    H154723   1.188   0.390  13.576  1.4437 -0.7051 -1.1084
10176TIP3    H254724   1.238   0.412  13.435 -1.3860  1.0343 -1.9145
10177TIP3   OH254725   4.710   4.323  13.366 -0.0237 -0.2778  0.4810
10177TIP3    H154726   4.624   4.290  13.338 -0.3741  0.3129  0.8442
10177TIP3    H254727   4.746   4.364  13.288  0.1548 -0.9676  0.1885
10178TIP3   OH254728   2.230   4.834  12.214  0.3816 -0.3988 -0.4280
10178TIP3    H154729   2.284   4.868  12.143  0.6265  0.3931  0.1291
10178TIP3    H254730   2.293   4.801  12.278  0.1892 -0.0002 -0.0358
10179TIP3   OH254731   3.943   0.577  11.504 -0.0011 -0.2482  0.6302
10179TIP3    H154732   3.969   0.490  11.533  2.7276  0.1768 -0.2764
10179TIP3    H254733   3.867   0.563  11.448  0.7400 -2.1129  0.0443
10180TIP3   OH254734   0.828   1.915  11.333  0.1242  0.1117 -0.1766
10180TIP3    H154735   0.808   1.928  11.240 -0.7770  0.5652  0.0674
10180TIP3    H254736   0.767   1.847  11.361  1.0792 -0.7345 -0.1461
10181TIP3   OH254737   6.038   0.075  11.364  0.2391  0.1955 -0.2784
10181TIP3    H154738   6.115   0.126  11.340  1.3554 -1.2315  0.0718
10181TIP3    H254739   5.981   0.137  11.409  1.2412  1.2718 -0.4391
10182TIP3   OH254740   6.114   4.181  12.021  0.0371  0.3107  0.3205
10182TIP3    H154741   6.039   4.205  12.075  0.5474  0.8828  0.7790
10182TIP3    H254742   6.188   4.182  12.081  0.6970  1.4567 -0.4802
10183TIP3   OH254743   0.474   7.131  11.914 -1.2403  0.2195 -0.2855
10183TIP3    H154744   0.400   7.172  11.958 -1.8016 -0.9294 -0.1121
10183TIP3    H254745   0.551   7.170  11.954 -1.7509  0.7368  0.2074
10184TIP3   OH254746   2.288   1.087  11.522  0.6155 -0.7201 -0.7407
10184TIP3    H154747   2.379   1.058  11.521  0.7425 -0.3200 -1.2516
10184TIP3    H254748   2.264   1.087  11.615  1.2562 -0.4611 -0.5658
10185TIP3   OH254749   0.351   2.895  12.812  0.1848 -0.4575  0.0905
10185TIP3    H154750   0.334   2.912  12.720 -1.0627 -0.0846  0.3620
10185TIP3    H254751   0.381   2.980  12.847 -0.8990 -0.1655  0.3457
10186TIP3   OH254752   0.314   5.215  11.787  0.5278 -0.2039 -0.1453
10186TIP3    H154753   0.275   5.288  11.739  0.5563 -1.0087 -1.4415
10186TIP3    H254754   0.243   5.180  11.841  0.3191  0.3206 -0.0847
10187TIP3   OH254755   3.997   1.853  11.933  0.0713  0.4503  0.4502
10187TIP3    H154756   3.960   1.773  11.969 -1.1039  0.5535 -0.4964
10187TIP3    H254757   3.928   1.890  11.877  1.1334  1.3184 -0.3445
10188TIP3   OH254758   3.818   1.876  10.478 -0.8599  0.2767  0.5688
10188TIP3    H154759   3.786   1.803  10.531 -1.6502  0.7412  0.7403
10188TIP3    H254760   3.905   1.848  10.449 -0.0405  0.3505  2.7959
10189TIP3   OH254761   6.134   0.687  11.684  0.0519 -0.1708  0.3457
10189TIP3    H154762   6.050   0.643  11.676  0.1741 -0.1151 -1.6586
10189TIP3    H254763   6.128   0.763  11.625  1.8610 -0.8011 -0.7443
10190TIP3   OH254764   7.185   3.035  12.280  0.1372 -0.0477  0.4010
10190TIP3    H154765   7.236   3.116  12.270 -0.6589  0.3490 -0.5468
10190TIP3    H254766   7.239   2.980  12.336  1.4630  0.5021 -0.2885
10191TIP3   OH254767   0.374   1.126  11.955  0.1748 -0.2580  0.4854
10191TIP3    H154768   0.466   1.150  11.945  0.3127 -1.4110 -1.5579
10191TIP3    H254769   0.361   1.119  12.050  0.9618  4.2850  1.1508
10192TIP3   OH254770   1.949   0.339  10.737 -0.5491 -0.0889  0.3460
10192TIP3    H154771   2.015   0.394  10.777 -0.1525 -0.5048  0.2771
10192TIP3    H254772   1.877   0.398  10.716  0.0681  0.4958 -0.1854
10193TIP3   OH254773   2.761   2.884  11.753  0.0133 -0.2261  0.1370
10193TIP3    H154774   2.687   2.849  11.802  0.3094 -1.3414 -0.1770
10193TIP3    H254775   2.730   2.886  11.662 -0.0288  0.4090  0.1658
10194TIP3   OH254776   2.737   0.378  12.903 -0.3462 -0.1296  0.3033
10194TIP3    H154777   2.682   0.396  12.827 -0.2043 -0.3840  0.1409
10194TIP3    H254778   2.724   0.454  12.960 -0.5080  0.0280  0.0594
10195TIP3   OH254779   4.657   5.594  12.773 -0.0200  0.4323  0.2577
10195TIP3    H154780   4.727   5.607  12.708 -0.3750 -1.3844 -0.5510
10195TIP3    H254781   4.693   5.631  12.854  1.3639  0.6749 -0.4261
10196TIP3   OH254782   5.396   4.938  12.122  0.0278  0.3903 -0.2369
10196TIP3    H154783   5.471   4.951  12.181 -0.2309  0.5624  0.0569
10196TIP3    H254784   5.423   4.866  12.065  1.1308  1.5717 -1.2911
10197TIP3   OH254785   1.430   7.314  12.424 -0.4644  0.1332  0.3988
10197TIP3    H154786   1.433   7.228  12.381  0.9112 -0.2031  1.1127
10197TIP3    H254787   1.507   7.315  12.481 -0.2684  1.9686  0.1609
10198TIP3   OH254788   4.076   0.698  13.185  0.0729 -0.4898  0.5952
10198TIP3    H154789   4.031   0.775  13.220  0.0995  0.1082 -0.6172
10198TIP3    H254790   4.168   0.722  13.185  0.0764 -0.5003  0.1734
10199TIP3   OH254791   6.484   1.240  12.231  0.5592 -0.1736 -0.0998
10199TIP3    H154792   6.509   1.271  12.318  0.0440 -0.2994  0.0960
10199TIP3    H254793   6.528   1.156  12.222  0.2534 -0.3687  0.2193
10200TIP3   OH254794   5.839   0.691  10.559 -0.1688  0.1502 -0.1036
10200TIP3    H154795   5.880   0.701  10.473 -0.8651  1.0271 -0.3524
10200TIP3    H254796   5.908   0.713  10.622 -0.0490  0.8843 -0.4882
10201TIP3   OH254797   5.746   1.734  10.608 -0.1499 -0.0729 -0.4708
10201TIP3    H154798   5.749   1.645  10.575  1.5691 -0.1139 -0.2780
10201TIP3    H254799   5.721   1.725  10.700 -1.8523 -0.1804 -0.9042
10202TIP3   OH254800   3.799   1.654  12.012  0.1762 -0.1448 -0.0080
10202TIP3    H154801   3.716   1.701  12.015  0.0373 -0.3663 -0.3335
10202TIP3    H254802   3.787   1.588  11.943 -0.0177 -1.3938  1.1842
10203TIP3   OH254803   4.546   7.409  12.735  0.3951 -0.4886  0.0213
10203TIP3    H154804   4.528   7.316  12.723  1.3636 -0.7765  0.7212
10203TIP3    H254805   4.461   7.452  12.721  0.0559 -1.4069 -0.8671
10204TIP3   OH254806   2.115   2.709  10.748 -0.3145  0.1935 -0.6808
10204TIP3    H154807   2.027   2.671  10.736 -0.2102  0.0104 -0.8586
10204TIP3    H254808   2.172   2.655  10.694  0.0755 -0.3436  0.2452
10205TIP3   OH254809   6.967   6.953  13.134  0.6190  0.0283 -0.5529
10205TIP3    H154810   6.876   6.982  13.122  0.5523  0.4576  0.8474
10205TIP3    H254811   6.975   6.936  13.228  2.2147  0.8064 -0.5094
10206TIP3   OH254812   3.077   2.506  11.824  0.4929 -0.3351  0.2806
10206TIP3    H154813   3.025   2.581  11.853  1.4671  0.4560  0.0542
10206TIP3    H254814   3.166   2.541  11.816  0.9619 -1.5224  0.1636
10207TIP3   OH254815   3.692   1.104  11.539 -0.1310 -0.1370  0.0618
10207TIP3    H154816   3.676   1.010  11.529 -0.7712 -0.0139 -0.1418
10207TIP3    H254817   3.782   1.116  11.510  0.0816 -0.7445  0.4456
10208TIP3   OH254818   0.257   1.616  11.904  0.4889  0.4140  0.2560
10208TIP3    H154819   0.233   1.692  11.956  0.7951  1.3523 -0.9199
10208TIP3    H254820   0.352   1.613  11.909  0.5268  0.5652 -0.3048
10209TIP3   OH254821   3.374   6.092  12.593  0.3300 -0.0828  0.7927
10209TIP3    H154822   3.406   6.027  12.655  0.9026  1.5899  2.3378
10209TIP3    H254823   3.452   6.123  12.548  0.1317 -0.0356  0.4763
10210TIP3   OH254824   5.005   3.877  12.205 -0.3243  0.3533 -0.4709
10210TIP3    H154825   4.930   3.818  12.217  0.4383 -1.0213 -2.1637
10210TIP3    H254826   5.031   3.865  12.114  0.3104  2.8383 -0.7008
10211TIP3   OH254827   4.756   0.891  11.742  0.5966  0.1651  0.7883
10211TIP3    H154828   4.730   0.913  11.652  0.5052 -1.0581  0.4965
10211TIP3    H254829   4.803   0.968  11.773 -0.4026  1.0685  0.1126
10212TIP3   OH254830   5.921   1.919  10.451 -0.6253  0.2896  0.0571
10212TIP3    H154831   5.937   2.007  10.484 -0.5520 -0.2897  1.6533
10212TIP3    H254832   5.873   1.875  10.521 -1.8923 -0.5372 -1.2798
10213TIP3   OH254833   5.883   2.510  11.214  0.1031  0.2478 -0.2024
10213TIP3    H154834   5.855   2.600  11.232 -0.8882 -0.0985  0.0533
10213TIP3    H254835   5.925   2.481  11.295  0.2918  0.4215 -0.2355
10214TIP3   OH254836   5.839   2.109  11.620 -0.6524  0.3476 -0.0607
10214TIP3    H154837   5.847   2.025  11.666  1.2896 -0.7962 -2.2815
10214TIP3    H254838   5.803   2.086  11.535 -0.4141  1.8196 -0.5848
10215TIP3   OH254839   3.258   2.674  10.995 -0.1845 -0.2555  0.3213
10215TIP3    H154840   3.205   2.646  11.070  0.7608  0.7766  1.4030
10215TIP3    H254841   3.348   2.667  11.025  0.1973  0.6400 -0.5519
10216TIP3   OH254842   7.540   5.315  10.781 -0.1146 -0.0620 -0.1104
10216TIP3    H154843   7.506   5.392  10.827  0.3942 -0.5937  1.2190
10216TIP3    H254844   7.594   5.351  10.711  0.7974  0.8120  1.0083
10217TIP3   OH254845   7.006   5.694  10.699  0.3246 -0.5418 -0.4773
10217TIP3    H154846   6.974   5.700  10.609  2.2285 -1.3505 -1.2758
10217TIP3    H254847   6.935   5.652  10.747 -0.0622 -1.7586 -2.0250
10218TIP3   OH254848   7.418   3.186  10.511 -0.4037 -0.3126  0.4713
10218TIP3    H154849   7.475   3.158  10.582  0.7842 -0.1285 -0.3751
10218TIP3    H254850   7.420   3.113  10.449 -1.0356 -0.2688  0.3900
10219TIP3   OH254851   7.642   4.325  10.898 -0.3348 -0.8048  0.5957
10219TIP3    H154852   7.548   4.339  10.903 -0.1832  0.2805  0.5029
10219TIP3    H254853   7.665   4.286  10.982 -0.7154 -0.1718  1.0008
10220TIP3   OH254854   1.381   4.383  11.114  0.0403 -0.5850 -0.1854
10220TIP3    H154855   1.448   4.443  11.147 -0.1766  0.9468 -2.3384
10220TIP3    H254856   1.430   4.314  11.069  0.2265 -0.8835  0.4635
10221TIP3   OH254857   2.783   2.236  11.618  0.1209 -0.1957  0.2370
10221TIP3    H154858   2.848   2.300  11.592  1.5243 -2.4649 -2.3090
10221TIP3    H254859   2.708   2.253  11.562 -0.2022  0.2919  0.8051
10222TIP3   OH254860   3.954   7.290  12.131  0.4046 -0.0669 -0.0909
10222TIP3    H154861   4.007   7.338  12.068  0.2360 -1.7845 -1.6456
10222TIP3    H254862   3.957   7.343  12.211  2.1786  1.2456 -0.9559
10223TIP3   OH254863   3.734   5.484  13.040  0.5916 -0.5549 -0.1585
10223TIP3    H154864   3.758   5.566  13.084 -1.2576  1.3335 -2.4066
10223TIP3    H254865   3.798   5.476  12.970  0.4232 -0.7155 -0.2932
10224TIP3   OH254866   6.180   0.105  11.667 -0.1133 -0.2199  0.4323
10224TIP3    H154867   6.238   0.071  11.599 -1.5537 -1.0889 -0.4122
10224TIP3    H254868   6.234   0.107  11.746  1.2946 -0.1861 -0.4842
10225TIP3   OH254869   2.886   1.846  11.611  0.1218  0.6443  0.0299
10225TIP3    H154870   2.808   1.887  11.574  0.0814 -0.1485 -0.8007
10225TIP3    H254871   2.925   1.799  11.538  0.2908 -0.6059  0.9002
10226TIP3   OH254872   2.856   3.530  12.838  0.0730 -0.2688 -0.6681
10226TIP3    H154873   2.922   3.516  12.906 -2.9962 -0.8680  2.5287
10226TIP3    H254874   2.847   3.446  12.795  0.5044 -0.5403 -0.2397
10227TIP3   OH254875   4.974   1.438  12.768 -0.1490 -0.4327 -0.2794
10227TIP3    H154876   4.935   1.363  12.813  1.8599 -0.8261  0.9498
10227TIP3    H254877   5.014   1.401  12.690 -0.0430 -0.4782 -0.2048
10228TIP3   OH254878   1.027   1.000  12.074  0.5351 -0.1522 -0.2163
10228TIP3    H154879   1.046   1.093  12.064 -0.6026  0.1046 -0.0749
10228TIP3    H254880   1.098   0.967  12.130  1.5698  0.3758 -1.1886
10229TIP3   OH254881   7.659   0.861  10.266  0.1049 -0.1879  0.0586
10229TIP3    H154882   7.647   0.770  10.238  1.1943 -0.2559 -0.2317
10229TIP3    H254883   7.739   0.860  10.317  0.6355  0.7594 -0.7157
10230TIP3   OH254884   1.130   5.666  12.110  0.0351 -0.2520 -0.2448
10230TIP3    H154885   1.135   5.742  12.167  0.9496  0.2781 -1.0000
10230TIP3    H254886   1.163   5.697  12.025 -0.3520 -1.2704 -0.7947
10231TIP3   OH254887   1.832   5.317  12.790  0.7645  0.0008  0.1397
10231TIP3    H154888   1.894   5.280  12.727 -0.1870 -0.9675 -0.2700
10231TIP3    H254889   1.753   5.264  12.779 -0.4747  1.8168 -0.0585
10232TIP3   OH254890   3.196   1.363  10.793  0.2317 -0.4494 -0.1199
10232TIP3    H154891   3.279   1.318  10.778  0.7572 -0.2197  1.9124
10232TIP3    H254892   3.220   1.454  10.811 -0.7331  0.4453 -2.7572
10233TIP3   OH254893   2.353   2.427  12.454 -0.2799 -0.2978  0.8060
10233TIP3    H154894   2.400   2.363  12.402 -0.4913 -1.1579  1.6357
10233TIP3    H254895   2.261   2.403  12.444 -0.4867  0.7860 -0.0479
10234TIP3   OH254896   2.166   5.233  11.088 -0.4471  0.4221 -0.4381
10234TIP3    H154897   2.186   5.279  11.007  1.5466  0.6207  0.1129
10234TIP3    H254898   2.235   5.167  11.097 -0.6778  0.3336  1.0379
10235TIP3   OH254899   1.250   3.797  11.237 -0.3517 -0.6002 -0.2886
10235TIP3    H154900   1.237   3.882  11.194 -0.6000 -0.4956 -0.0096
10235TIP3    H254901   1.343   3.777  11.224 -0.0851  0.1303  0.3992
10236TIP3   OH254902   6.994   6.386  12.351 -0.0824 -0.6416 -0.6505
10236TIP3    H154903   6.984   6.453  12.420 -0.6638  0.8462 -2.1078
10236TIP3    H254904   7.088   6.374  12.343 -0.0086 -1.3185  0.8113
10237TIP3   OH254905   0.743   6.888  10.450  0.4727 -0.1264 -0.2873
10237TIP3    H154906   0.809   6.820  10.461 -0.6811 -0.9285  2.2346
10237TIP3    H254907   0.666   6.842  10.417  0.2125  0.2665 -0.2347
10238TIP3   OH254908   5.168   5.085  13.175 -0.1005 -0.3759 -0.1250
10238TIP3    H154909   5.108   5.046  13.111 -1.6692 -1.1181  1.6954
10238TIP3    H254910   5.243   5.026  13.176 -1.0780 -1.6647  0.3517
10239TIP3   OH254911   4.543   3.039  11.506 -0.6841  0.3918  0.4509
10239TIP3    H154912   4.473   3.074  11.451 -0.2981  1.9035  0.8864
10239TIP3    H254913   4.621   3.089  11.481  0.4016 -1.5480 -0.3416
10240TIP3   OH254914   0.794   1.397  12.122 -0.4264  0.8228 -0.2550
10240TIP3    H154915   0.774   1.343  12.045 -0.9351  0.2378  0.2759
10240TIP3    H254916   0.867   1.351  12.164 -2.2773 -0.7662  1.4293
10241TIP3   OH254917   5.221   4.056  12.920  0.1504  0.2521 -0.2331
10241TIP3    H154918   5.258   4.015  12.842  0.7589  0.2434  0.0501
10241TIP3    H254919   5.127   4.056  12.905  0.2981  0.9356 -1.3103
10242TIP3   OH254920   4.811   4.942  12.302 -0.9318 -0.7259 -0.0656
10242TIP3    H154921   4.755   5.017  12.323 -3.4017 -2.1124 -1.3051
10242TIP3    H254922   4.879   4.944  12.369 -3.3161  0.2012  2.5306
10243TIP3   OH254923   6.481   4.226  10.307  0.2938  0.3666 -0.1897
10243TIP3    H154924   6.487   4.281  10.228  0.4051  1.1442  0.3516
10243TIP3    H254925   6.537   4.269  10.371  0.2995 -0.3306  0.2863
10244TIP3   OH254926   3.882   5.907  11.775 -0.1112 -0.2132 -0.0354
10244TIP3    H154927   3.799   5.905  11.727 -0.1577  1.6702 -0.1308
10244TIP3    H254928   3.869   5.975  11.841  1.4421  0.3690 -0.2732
10245TIP3   OH254929   2.902   7.529  10.831  0.3801  0.0428  0.9847
10245TIP3    H154930   2.967   7.500  10.896  0.3660  0.6402  1.2670
10245TIP3    H254931   2.954   7.576  10.766  0.3816 -0.4780  0.5986
10246TIP3   OH254932   7.194   0.934  12.000 -0.5653 -0.2182  0.3559
10246TIP3    H154933   7.108   0.945  12.041 -0.1634 -1.4769  1.5955
10246TIP3    H254934   7.216   1.022  11.968 -2.0788  0.2300  0.4590
10247TIP3   OH254935   0.641   3.535  10.602  0.3290  0.0010  0.4287
10247TIP3    H154936   0.644   3.630  10.588  0.3740  0.3560  2.6022
10247TIP3    H254937   0.716   3.502  10.553 -0.6834  0.8248 -1.8390
10248TIP3   OH254938   5.450   5.053  13.410  0.1546 -0.8440  0.0294
10248TIP3    H154939   5.537   5.067  13.374 -0.1893 -1.5893 -1.1501
10248TIP3    H254940   5.415   4.979  13.360 -0.9297 -0.9383  0.8856
10249TIP3   OH254941   0.039   5.423  13.234  0.2185 -0.2120  0.2091
10249TIP3    H154942  -0.006   5.495  13.278 -0.6431 -0.0493 -0.8837
10249TIP3    H254943   0.099   5.467  13.173  0.3441 -0.4243  0.1810
10250TIP3   OH254944   1.341   2.490  10.520  0.3439  0.0061 -0.0695
10250TIP3    H154945   1.335   2.560  10.585 -1.4102 -1.2164  1.1515
10250TIP3    H254946   1.348   2.537  10.436  1.8252  1.6065  0.8649
10251TIP3   OH254947   4.352   7.254  10.746 -0.0382  0.3778 -0.7537
10251TIP3    H154948   4.384   7.189  10.810 -2.1481  0.6165  0.6453
10251TIP3    H254949   4.258   7.258  10.762 -0.1823  2.6562 -1.8898
10252TIP3   OH254950   3.363   3.676  11.617 -0.7683 -0.1583  0.1153
10252TIP3    H154951   3.458   3.675  11.631 -0.6819  1.0681 -0.2666
10252TIP3    H254952   3.337   3.767  11.632 -2.2295 -0.8586  2.3130
10253TIP3   OH254953   5.610   3.694  11.525 -0.6044 -0.6100 -0.0160
10253TIP3    H154954   5.549   3.661  11.459 -1.3064  1.4090 -0.4548
10253TIP3    H254955   5.569   3.673  11.609 -2.2907  1.2469 -0.3026
10254TIP3   OH254956   6.824   5.518  11.614  0.0696 -0.2539 -0.0953
10254TIP3    H154957   6.799   5.589  11.555  2.0727 -1.0466 -2.0336
10254TIP3    H254958   6.913   5.496  11.588  0.0356 -2.4917  1.4531
10255TIP3   OH254959   4.579   4.114  12.451  0.4025  0.4998 -0.1641
10255TIP3    H154960   4.625   4.056  12.511 -0.7962 -0.0369  0.2842
10255TIP3    H254961   4.493   4.073  12.440  0.6599  0.4491 -2.4640
10256TIP3   OH254962   2.578   5.147  12.628  0.4628 -0.2496  0.5501
10256TIP3    H154963   2.544   5.088  12.560 -1.1402  1.1301  0.0956
10256TIP3    H254964   2.574   5.234  12.589 -0.5559  0.5893  2.3892
10257TIP3   OH254965   5.799   2.425  10.326  0.3261 -0.1213  0.3454
10257TIP3    H154966   5.843   2.508  10.347  1.7522 -0.3039 -1.6228
10257TIP3    H254967   5.816   2.412  10.233 -1.1572 -1.9039  0.2596
10258TIP3   OH254968   5.107   0.092  11.526 -0.1280 -0.7814 -0.3911
10258TIP3    H154969   5.041   0.024  11.511  1.9289 -2.3961 -2.8917
10258TIP3    H254970   5.175   0.049  11.577 -0.7620  0.8021  1.9627
10259TIP3   OH254971   4.206   2.978  10.814 -0.4010  0.4845 -0.5181
10259TIP3    H154972   4.290   3.021  10.797  0.0744  0.5156  1.5766
10259TIP3    H254973   4.226   2.884  10.807 -0.1370  0.4873  0.1357
10260TIP3   OH254974   2.170   6.946  11.769 -0.2752 -0.0315 -0.0982
10260TIP3    H154975   2.173   6.980  11.680 -1.0290 -0.5771 -0.3466
10260TIP3    H254976   2.089   6.895  11.772 -0.3634  0.1518  0.9638
10261TIP3   OH254977   5.463   5.300  12.391  0.9751  0.2391 -0.3647
10261TIP3    H154978   5.484   5.252  12.311  3.0257 -2.0684  1.3982
10261TIP3    H254979   5.543   5.349  12.412  0.9796 -0.3015  0.9741
10262TIP3   OH254980   2.066   1.906  12.942 -0.5711 -0.1252 -0.6464
10262TIP3    H154981   2.102   1.818  12.951 -0.5558 -0.2007 -1.4234
10262TIP3    H254982   2.038   1.912  12.851 -1.9657  0.1441 -0.2281
10263TIP3   OH254983   7.658   3.221  12.217  0.4384 -0.2397 -0.3682
10263TIP3    H154984   7.626   3.220  12.308 -0.1825 -0.7114 -0.5868
10263TIP3    H254985   7.641   3.133  12.185 -0.7502  0.3451 -1.4229
10264TIP3   OH254986   5.772   3.512  12.406  0.0536 -0.4668  0.3834
10264TIP3    H154987   5.809   3.438  12.359  1.3416 -0.3213  1.1240
10264TIP3    H254988   5.770   3.485  12.498 -1.4214 -0.3448  0.4122
10265TIP3   OH254989   3.982   0.967  12.646  0.2303  0.1011 -0.1224
10265TIP3    H154990   4.014   0.919  12.570 -1.7175  0.6354 -1.3507
10265TIP3    H254991   3.990   0.906  12.719  1.7167 -0.5810 -0.8272
10266TIP3   OH254992   7.602   5.756  13.168 -0.9217 -0.5469  0.6881
10266TIP3    H154993   7.541   5.698  13.214  0.3944 -0.3476  2.8551
10266TIP3    H254994   7.638   5.812  13.237  2.7105 -1.5736 -0.1534
10267TIP3   OH254995   4.158   4.667  11.087  0.0706  0.0730  0.4047
10267TIP3    H154996   4.252   4.674  11.100  0.2844 -1.5133 -0.0122
10267TIP3    H254997   4.138   4.576  11.108 -1.6677  0.7812  2.1373
10268TIP3   OH254998   1.602   2.142  10.825 -0.5107 -0.0951  0.5846
10268TIP3    H154999   1.595   2.183  10.739 -0.9063 -0.0635  0.6274
10268TIP3    H255000   1.620   2.050  10.806  1.0649  0.2142  0.5023
10269TIP3   OH255001   1.393   4.815  11.899  0.0991 -0.1280 -0.5455
10269TIP3    H155002   1.466   4.871  11.875 -0.4142  0.0685 -1.7450
10269TIP3    H255003   1.315   4.867  11.879 -0.4144 -1.5135 -2.5005
10270TIP3   OH255004   5.688   2.016  12.625 -0.3599 -0.3829 -0.1789
10270TIP3    H155005   5.719   1.989  12.711  0.2758 -1.2137 -0.6487
10270TIP3    H255006   5.765   2.013  12.569 -0.4841  1.4243 -0.5131
10271TIP3   OH255007   2.020   3.163  13.042  0.0916 -0.1791  0.5197
10271TIP3    H155008   2.108   3.190  13.071  0.2153  1.2188 -0.9985
10271TIP3    H255009   1.961   3.201  13.107  0.4761  1.1313  0.1398
10272TIP3   OH255010   1.234   7.504  12.412 -0.2270 -0.2535  0.0776
10272TIP3    H155011   1.283   7.426  12.437  1.1528  0.3446 -0.6453
10272TIP3    H255012   1.177   7.475  12.341 -0.1572 -0.7238  0.2105
10273TIP3   OH255013   3.657   3.736  13.198 -0.2594 -0.1238  0.3643
10273TIP3    H155014   3.639   3.645  13.174 -0.1500 -0.3829  1.2120
10273TIP3    H255015   3.753   3.743  13.194 -0.2521 -0.1199  0.5551
10274TIP3   OH255016   7.167   4.310  11.570  0.4046  0.3743  0.1652
10274TIP3    H155017   7.145   4.364  11.646  1.2548  1.4409 -0.3120
10274TIP3    H255018   7.095   4.325  11.509  0.5919  0.9095  0.0693
10275TIP3   OH255019   7.005   1.942  12.925  0.5042 -0.3696  0.0607
10275TIP3    H155020   7.090   1.975  12.895  0.4228 -0.1853  0.0308
10275TIP3    H255021   6.941   1.999  12.881  0.3926  0.2855  1.0584
10276TIP3   OH255022   7.024   6.551  12.010 -0.1026 -0.0145  0.4109
10276TIP3    H155023   7.116   6.565  12.032  0.3590  0.1570 -1.4955
10276TIP3    H255024   7.018   6.570  11.917 -2.0259 -0.2983  0.4356
10277TIP3   OH255025   1.499   4.980  10.915  0.0545 -0.5065 -0.0457
10277TIP3    H155026   1.439   4.911  10.886  0.4496 -1.2680  0.8663
10277TIP3    H255027   1.479   4.990  11.008  0.0176  0.6068 -0.1665
10278TIP3   OH255028   1.537   3.886  10.810 -0.1501 -0.1841  0.4717
10278TIP3    H155029   1.442   3.890  10.818 -0.6044  0.5437 -3.3070
10278TIP3    H255030   1.558   3.793  10.816 -1.6392 -0.7639 -1.8903
10279TIP3   OH255031   0.361   2.772  11.231 -0.0651 -0.4738 -0.9819
10279TIP3    H155032   0.283   2.816  11.198 -0.8311 -1.2090 -0.2017
10279TIP3    H255033   0.433   2.807  11.178 -0.7035  1.3197 -0.7322
10280TIP3   OH255034   3.023   6.006  11.587 -0.1063  0.0961 -0.0468
10280TIP3    H155035   3.027   6.069  11.516  0.4146  1.2535  0.9820
10280TIP3    H255036   2.991   5.925  11.546 -0.1039  0.8189 -1.5141
10281TIP3   OH255037   5.032   0.111  12.802 -0.5105 -0.9106 -0.3218
10281TIP3    H155038   4.957   0.165  12.825 -0.7680 -1.4263  0.0770
10281TIP3    H255039   5.106   0.171  12.802 -0.3451 -0.9813  2.6452
10282TIP3   OH255040   0.602   5.680  10.356 -0.2583  0.2639 -0.1727
10282TIP3    H155041   0.675   5.637  10.401 -0.6314 -2.9628 -2.3043
10282TIP3    H255042   0.523   5.640  10.394 -0.7964  1.3079 -0.1490
10283TIP3   OH255043   4.869   5.979  10.996 -0.3923 -0.1603  1.1106
10283TIP3    H155044   4.821   5.958  11.075 -1.5937 -1.7056  0.0168
10283TIP3    H255045   4.890   5.895  10.956 -0.2881  0.5779 -0.4908
10284TIP3   OH255046   2.135   0.267  10.515  0.0089 -0.2738 -0.7661
10284TIP3    H155047   2.117   0.244  10.606 -0.0610  0.7362 -0.5059
10284TIP3    H255048   2.068   0.221  10.465 -0.3662 -0.3086 -0.2444
10285TIP3   OH255049   1.681   7.535  11.805  0.6591 -0.0608  0.1144
10285TIP3    H155050   1.755   7.474  11.801  0.1805 -1.1018  3.5803
10285TIP3    H255051   1.605   7.482  11.781  0.7413  0.5526 -1.6781
10286TIP3   OH255052   4.325   2.840  10.414 -0.0541 -0.4724 -0.8014
10286TIP3    H155053   4.316   2.936  10.410  1.4828 -0.3036 -5.4716
10286TIP3    H255054   4.407   2.826  10.461 -0.8596  0.3409  0.9598
10287TIP3   OH255055   0.686   7.193  11.289 -0.1519 -0.0363 -0.2573
10287TIP3    H155056   0.777   7.173  11.267  0.0388  0.6827 -0.1484
10287TIP3    H255057   0.660   7.123  11.349  0.2649 -0.3610 -0.4511
10288TIP3   OH255058   1.654   1.551  11.893 -0.5450  0.2248  0.1412
10288TIP3    H155059   1.586   1.561  11.826 -0.9059  0.1394  0.4916
10288TIP3    H255060   1.606   1.546  11.976 -0.0443  1.3916  0.5246
10289TIP3   OH255061   0.008   5.588  12.645  0.1873 -0.3269  0.1028
10289TIP3    H155062  -0.058   5.521  12.632  0.5656 -0.4456 -1.4318
10289TIP3    H255063  -0.041   5.665  12.675 -0.4363 -0.8594  0.4637
10290TIP3   OH255064   7.517   6.300  11.461 -0.4052  0.0242 -0.4334
10290TIP3    H155065   7.493   6.371  11.520 -0.6693  0.2199 -0.7748
10290TIP3    H255066   7.463   6.314  11.383 -0.1073 -0.2718 -0.6943
10291TIP3   OH255067   4.103   2.335  11.021  0.0036  0.0730  0.2311
10291TIP3    H155068   4.079   2.409  11.077  0.6556  0.2184  0.3287
10291TIP3    H255069   4.099   2.369  10.932  1.8784  0.7313  0.3404
10292TIP3   OH255070   7.375   0.676  11.666 -0.0888  0.0249 -0.4785
10292TIP3    H155071   7.331   0.594  11.643  0.6651 -0.6647  0.4533
10292TIP3    H255072   7.304   0.736  11.690 -0.7358  0.0655 -2.3427
10293TIP3   OH255073   0.862   3.737  10.553  0.6104  0.0926 -0.4989
10293TIP3    H155074   0.894   3.669  10.494  0.9593 -0.3697  0.2103
10293TIP3    H255075   0.937   3.758  10.609 -0.2045 -0.7765  0.9716
10294TIP3   OH255076   2.531   1.251  11.351 -0.1291 -0.0134  0.2897
10294TIP3    H155077   2.448   1.266  11.307  0.4004 -1.9225 -1.5341
10294TIP3    H255078   2.554   1.161  11.328  2.5221  0.5088  0.6127
10295TIP3   OH255079   3.693   0.614  10.930 -0.7087  0.0889 -0.3169
10295TIP3    H155080   3.637   0.603  10.853  0.3547  0.3565 -1.1558
10295TIP3    H255081   3.765   0.668  10.899  1.2572 -2.1352  0.0764
10296TIP3   OH255082   3.266   6.675  12.620  0.2251 -0.6455  0.7447
10296TIP3    H155083   3.190   6.734  12.621  0.6448 -0.0908  2.3950
10296TIP3    H255084   3.319   6.703  12.694  1.7677 -1.4115 -0.0250
10297TIP3   OH255085   5.109   4.410  11.621 -0.4602  0.1309  0.3151
10297TIP3    H155086   5.105   4.374  11.709 -1.4224  0.8975  0.6101
10297TIP3    H255087   5.020   4.440  11.603 -0.2150  0.2413 -0.8093
10298TIP3   OH255088   2.138   2.517  11.929 -0.0440  0.2157 -0.2228
10298TIP3    H155089   2.098   2.578  11.867 -1.4326 -1.7087 -1.3443
10298TIP3    H255090   2.231   2.518  11.908 -0.3535  0.3803 -1.6852
10299TIP3   OH255091   7.387   4.724  11.136 -0.0377  0.5275  0.0199
10299TIP3    H155092   7.452   4.775  11.088 -1.2239  0.8299 -1.3299
10299TIP3    H255093   7.333   4.790  11.180 -0.0121  0.3262  0.3501
10300TIP3   OH255094   7.268   3.475  11.790  0.3718 -0.0872  0.0940
10300TIP3    H155095   7.342   3.438  11.837  0.1352 -2.8346 -1.4635
10300TIP3    H255096   7.196   3.413  11.806 -0.5232  0.5215 -1.3663
10301TIP3   OH255097   6.255   5.526  12.071  0.2213 -0.5041  0.0398
10301TIP3    H155098   6.211   5.495  12.150 -0.7407 -1.0764 -0.6989
10301TIP3    H255099   6.209   5.483  11.999  1.5369 -0.5563 -0.8069
10302TIP3   OH255100   0.787   0.711  12.497  0.4829 -0.2559 -0.0989
10302TIP3    H155101   0.872   0.752  12.512  0.3914  0.0838 -0.4781
10302TIP3    H255102   0.743   0.714  12.582  0.2378  0.9994 -0.2537
10303TIP3   OH255103   5.405   3.629  11.320  0.3322  0.3431 -0.2345
10303TIP3    H155104   5.397   3.609  11.227  0.0311  0.6998 -0.2860
10303TIP3    H255105   5.318   3.658  11.346  0.1717 -0.6587  0.3789
10304TIP3   OH255106   6.769   2.105  11.020 -0.4413  0.4126 -0.3043
10304TIP3    H155107   6.780   2.100  10.925 -0.1613  0.1557 -0.2603
10304TIP3    H255108   6.698   2.168  11.033 -1.6645 -0.8222 -0.7517
10305TIP3   OH255109   2.939   4.059  10.752  0.0981 -0.0540  0.0509
10305TIP3    H155110   3.022   4.034  10.792  0.3607  1.7175  0.6656
10305TIP3    H255111   2.945   4.153  10.739 -0.8554 -0.2295 -2.1821
10306TIP3   OH255112   2.483   3.900  12.952 -0.0626 -0.5971  0.6159
10306TIP3    H155113   2.520   3.823  12.995  0.9207 -0.4206  0.0949
10306TIP3    H255114   2.524   3.974  12.996  2.9015 -0.3853 -2.1471
10307TIP3   OH255115   0.159   1.827  12.055  0.6160 -0.8737 -0.3814
10307TIP3    H155116   0.091   1.775  12.098  0.2230  0.4488  0.6461
10307TIP3    H255117   0.166   1.906  12.108  0.6941  0.4586 -2.2982
10308TIP3   OH255118   4.062   5.142  10.718  0.3760 -0.6645 -0.0304
10308TIP3    H155119   4.042   5.206  10.786  1.3930 -1.6488  1.2654
10308TIP3    H255120   4.025   5.179  10.638 -1.7068  0.1029  1.1994
10309TIP3   OH255121   6.191   3.435  12.253  0.1741 -0.2501 -0.6678
10309TIP3    H155122   6.237   3.516  12.275  0.5097 -0.2845 -1.2275
10309TIP3    H255123   6.174   3.394  12.338 -0.3092  0.5689 -0.3556
10310TIP3   OH255124   4.041   1.177  11.947  0.4043  0.2102  0.0217
10310TIP3    H155125   3.989   1.113  11.996  1.2158 -2.0948 -1.9296
10310TIP3    H255126   4.131   1.164  11.979  0.7181 -0.3304 -1.0391
10311TIP3   OH255127   1.527   5.301  12.450 -0.2318  0.1076  0.2493
10311TIP3    H155128   1.439   5.322  12.420  0.3407  1.0122 -0.8428
10311TIP3    H255129   1.557   5.233  12.391  0.8695  1.8425 -1.2877
10312TIP3   OH255130   2.196   0.519  11.212  0.4087 -0.3546  0.1035
10312TIP3    H155131   2.273   0.565  11.247 -0.0705 -0.2955  1.1090
10312TIP3    H255132   2.189   0.441  11.267  0.1590 -0.7213 -0.4469
10313TIP3   OH255133   5.523   2.231  13.202 -0.2257  0.4552  0.0127
10313TIP3    H155134   5.611   2.219  13.168  0.3111  0.2212  1.4106
10313TIP3    H255135   5.495   2.315  13.166  0.2091  0.1298 -1.1423
10314TIP3   OH255136   1.718   0.375  11.076 -0.1805  0.1037  0.2206
10314TIP3    H155137   1.726   0.299  11.018 -1.1899 -0.4434  0.7803
10314TIP3    H255138   1.624   0.388  11.085 -0.0185  1.2078  0.4294
10315TIP3   OH255139   6.086   2.906  11.120  0.1341  0.5067 -0.2801
10315TIP3    H155140   6.094   2.893  11.025  0.8942  1.2033 -0.3241
10315TIP3    H255141   6.032   2.985  11.128 -1.6980 -0.7056 -0.0766
10316TIP3   OH255142   3.374   1.024  12.367  0.5075  0.4368  0.3269
10316TIP3    H155143   3.323   0.962  12.315 -1.2527  1.4596  0.7773
10316TIP3    H255144   3.457   1.032  12.320 -0.8241  0.9610 -2.0853
10317TIP3   OH255145   4.213   3.252  11.507  0.2220 -0.6461 -0.3295
10317TIP3    H155146   4.150   3.323  11.519  0.2936 -0.9696  2.5277
10317TIP3    H255147   4.296   3.287  11.541  1.0404 -1.0749 -1.7754
10318TIP3   OH255148   2.325   6.704  12.306 -0.1812  0.0349  0.3138
10318TIP3    H155149   2.340   6.782  12.253  1.6958  0.0795  0.8139
10318TIP3    H255150   2.253   6.728  12.365  0.0986  1.2489  0.1901
10319TIP3   OH255151   3.127   2.605  12.514  0.1646 -0.0886  0.1949
10319TIP3    H155152   3.087   2.609  12.427  1.0283 -1.9525 -0.3402
10319TIP3    H255153   3.075   2.542  12.563 -0.3549  1.0007  1.0744
10320TIP3   OH255154   7.443   2.618  10.474  0.2436 -0.1642 -0.1697
10320TIP3    H155155   7.479   2.563  10.543 -0.6196  1.2945  1.5257
10320TIP3    H255156   7.349   2.602  10.476 -0.0113  1.2352  0.2855
10321TIP3   OH255157   2.385   1.668  12.196 -0.4587  0.2857  0.2313
10321TIP3    H155158   2.338   1.615  12.260  0.9540  0.1319  1.1644
10321TIP3    H255159   2.390   1.612  12.118 -1.4890  0.1755  0.2283
10322TIP3   OH255160   7.360   1.911  10.507 -1.2577  0.5726 -0.5203
10322TIP3    H155161   7.373   1.816  10.500  0.2302  0.5683  1.4247
10322TIP3    H255162   7.342   1.925  10.600 -0.8974  2.2670 -0.6888
10323TIP3   OH255163   7.338   4.458  13.179 -0.4448  0.3275  1.1219
10323TIP3    H155164   7.269   4.516  13.210 -0.3227  0.0117  1.9975
10323TIP3    H255165   7.409   4.517  13.153 -0.0914  0.5550  2.5601
10324TIP3   OH255166   2.588   0.847  12.505  0.1103  0.0002  0.1563
10324TIP3    H155167   2.512   0.820  12.454  0.5059 -0.3901 -0.2299
10324TIP3    H255168   2.568   0.821  12.595 -0.4183  0.3362  0.1383
10325TIP3   OH255169   4.932   0.808  12.662 -0.4585  0.0236  0.1761
10325TIP3    H155170   4.958   0.785  12.751 -1.2477  0.6996  0.5916
10325TIP3    H255171   4.883   0.890  12.671  2.2572  1.9840 -1.2186
10326TIP3   OH255172   6.174   6.355  12.760  0.7324 -0.0775  0.0358
10326TIP3    H155173   6.222   6.437  12.767 -1.1686  1.0971  0.1197
10326TIP3    H255174   6.130   6.360  12.674  0.5739 -0.9938  0.0508
10327TIP3   OH255175   0.966   5.893  10.422 -0.0969  0.2143  0.1498
10327TIP3    H155176   0.908   5.930  10.356 -3.2187 -0.9220  2.0317
10327TIP3    H255177   0.956   5.950  10.498  2.4874  0.8131  0.1383
10328TIP3   OH255178   6.540   5.684  11.843 -0.1440 -0.1191  0.2517
10328TIP3    H155179   6.526   5.662  11.935  1.4098 -0.5790  0.4085
10328TIP3    H255180   6.522   5.602  11.796 -0.8907  0.1030  0.1258
10329TIP3   OH255181   1.475   2.969  10.958 -1.2173  0.5474 -0.2490
10329TIP3    H155182   1.401   2.989  11.015 -2.0397  1.5915 -1.6201
10329TIP3    H255183   1.479   2.873  10.959 -1.7768  0.5092  0.8334
10330TIP3   OH255184   1.263   6.464  12.534  0.1193  0.7607  0.6251
10330TIP3    H155185   1.356   6.475  12.555  0.4550 -2.0069  0.9853
10330TIP3    H255186   1.248   6.521  12.459  2.3022  0.7549  0.1139
10331TIP3   OH255187   5.620   3.927  11.182 -1.1218  0.0591 -0.2878
10331TIP3    H155188   5.664   3.906  11.100 -1.4936 -1.7171 -0.0829
10331TIP3    H255189   5.535   3.885  11.175 -1.9081  1.5032  0.2554
10332TIP3   OH255190   5.039   1.700  11.107 -0.6960  0.2154  0.2604
10332TIP3    H155191   4.950   1.664  11.104 -0.8478  0.6244 -0.1834
10332TIP3    H255192   5.031   1.788  11.070 -0.0808  0.2045  0.0924
10333TIP3   OH255193   3.583   5.648  11.377 -0.0772 -0.4767  0.1482
10333TIP3    H155194   3.585   5.605  11.292  1.1958 -0.6190  0.2369
10333TIP3    H255195   3.508   5.609  11.422 -0.1291 -1.1486 -0.5137
10334TIP3   OH255196   5.310   4.783  11.724 -0.1844 -0.5905  0.0042
10334TIP3    H155197   5.351   4.788  11.810 -1.3300 -1.8936  0.6659
10334TIP3    H255198   5.344   4.858  11.677 -1.2287  1.5140  2.3522
10335TIP3   OH255199   4.768   3.943  12.571 -0.0876 -0.0031  0.0135
10335TIP3    H155200   4.857   3.924  12.600  0.2046 -0.1358 -0.9533
10335TIP3    H255201   4.719   3.956  12.652  0.9336  0.6394  0.5471
10336TIP3   OH255202   2.492   0.290  11.831  0.2618 -0.4123  0.0442
10336TIP3    H155203   2.541   0.266  11.752 -0.3033  0.0420 -0.4521
10336TIP3    H255204   2.426   0.222  11.840 -0.6878  0.3620 -0.7875
10337TIP3   OH255205   0.456   6.549  12.658 -0.1567  0.6397  0.7740
10337TIP3    H155206   0.525   6.536  12.723  0.8784  1.9532 -0.0161
10337TIP3    H255207   0.498   6.599  12.588 -1.5577  0.2798 -0.3657
10338TIP3   OH255208   4.397   0.677  13.548 -0.0332 -0.2469 -0.2076
10338TIP3    H155209   4.410   0.708  13.458  1.3457 -0.4502 -0.1003
10338TIP3    H255210   4.475   0.625  13.566 -0.3625 -0.3175  1.0700
10339TIP3   OH255211   1.604   4.981  11.771  0.3509 -0.0261 -0.0762
10339TIP3    H155212   1.686   4.980  11.721  0.5781  1.4694  0.2127
10339TIP3    H255213   1.565   5.065  11.749 -0.4141 -0.1202  0.8971
10340TIP3   OH255214   1.328   5.046  12.177 -0.4727  0.1533 -0.0284
10340TIP3    H155215   1.295   5.051  12.267 -0.8405  0.3167 -0.1662
10340TIP3    H255216   1.384   4.969  12.176  0.8925  1.0870  0.7762
10341TIP3   OH255217   0.010   6.032  10.704 -0.2931  0.1161 -0.0589
10341TIP3    H155218  -0.021   6.002  10.790  2.5912 -0.0776  1.0303
10341TIP3    H255219  -0.026   6.120  10.695 -0.2829  0.3189  1.5832
10342TIP3   OH255220   0.379   5.206  11.508  0.3211  0.4691  0.2347
10342TIP3    H155221   0.356   5.126  11.459  1.7503 -0.2859  0.7364
10342TIP3    H255222   0.348   5.190  11.597  1.2118  0.1641  0.5014
10343TIP3   OH255223   6.374   2.558  11.314  0.1103  0.3601 -0.1678
10343TIP3    H155224   6.395   2.499  11.242 -0.8777 -0.8200  0.4758
10343TIP3    H255225   6.355   2.642  11.271 -0.8802 -0.4201 -1.3327
10344TIP3   OH255226   3.760   7.121  12.011 -0.4825 -0.0100  0.4843
10344TIP3    H155227   3.817   7.175  12.066 -0.3464 -2.0076  2.4477
10344TIP3    H255228   3.673   7.130  12.050 -0.4598 -1.1586  0.8146
10345TIP3   OH255229   6.698   0.994  10.699 -0.2711 -0.3487  0.0958
10345TIP3    H155230   6.743   1.026  10.621  0.7839  1.6741  1.4437
10345TIP3    H255231   6.704   0.899  10.692  0.3652 -0.2091 -1.9496
10346TIP3   OH255232   3.449   3.532  10.752 -0.4120 -0.3973  0.3142
10346TIP3    H155233   3.372   3.570  10.709  0.1504 -0.0667 -0.4221
10346TIP3    H255234   3.424   3.442  10.771 -0.9914 -0.2846  0.1060
10347TIP3   OH255235   3.358   4.904  12.084 -0.1982  0.4459 -0.3836
10347TIP3    H155236   3.396   4.976  12.034 -0.3461  1.2560  0.6548
10347TIP3    H255237   3.401   4.826  12.048  2.0396  1.2676  0.3303
10348TIP3   OH255238   7.053   5.250  11.605 -0.3001 -0.0091  0.3366
10348TIP3    H155239   7.044   5.329  11.552 -1.9270 -0.8379 -0.6982
10348TIP3    H255240   7.102   5.189  11.551 -0.3424 -0.2151  0.5258
10349TIP3   OH255241   2.770   0.057  11.943  0.5936  0.5347  0.1783
10349TIP3    H155242   2.837   0.099  11.997  0.5880  0.3530  0.3222
10349TIP3    H255243   2.732   0.130  11.893  0.3494  0.7546  0.6780
10350TIP3   OH255244   7.483   3.402  12.431 -0.3289  0.2716 -0.5505
10350TIP3    H155245   7.462   3.375  12.520  0.3627 -0.3303 -0.5603
10350TIP3    H255246   7.485   3.498  12.434 -0.5020  0.2573  0.0323
10351TIP3   OH255247   1.641   3.253  12.676  0.4505  0.3970  0.2171
10351TIP3    H155248   1.719   3.243  12.731  0.1226  2.1415  1.0962
10351TIP3    H255249   1.593   3.325  12.717 -1.0002  0.1884 -1.0378
10352TIP3   OH255250   5.712   4.409  11.117 -0.4192  0.0630 -0.2363
10352TIP3    H155251   5.662   4.336  11.152  0.0053  0.5270  1.4687
10352TIP3    H255252   5.804   4.385  11.131 -0.2518  0.5244 -0.4905
10353TIP3   OH255253   6.159   7.361  11.083 -0.2895  0.0040 -0.7548
10353TIP3    H155254   6.123   7.449  11.075 -1.4401 -0.5251 -1.7056
10353TIP3    H255255   6.142   7.321  10.998  2.1356 -0.4592 -1.0865
10354TIP3   OH255256   2.205   0.531  11.663  0.1713 -0.0732 -1.4055
10354TIP3    H155257   2.148   0.601  11.694 -0.6930 -0.9698 -0.9248
10354TIP3    H255258   2.283   0.538  11.718 -0.7299 -0.7082  0.0199
10355TIP3   OH255259   1.081   3.574  10.398 -0.5243 -0.0237 -0.6471
10355TIP3    H155260   1.122   3.595  10.482 -0.8577  0.0231 -0.4944
10355TIP3    H255261   1.117   3.638  10.337 -1.1186  0.6573 -0.3011
10356TIP3   OH255262   2.325   2.365  11.602  0.3074 -0.2222  0.0321
10356TIP3    H155263   2.359   2.346  11.689 -0.2384  1.6382  0.7191
10356TIP3    H255264   2.234   2.334  11.604  0.0778  0.4485  0.3963
10357TIP3   OH255265   5.590   1.059  12.439  0.3026 -0.0089 -0.3067
10357TIP3    H155266   5.583   1.141  12.390 -4.0597  0.8517  1.2286
10357TIP3    H255267   5.647   1.079  12.513  0.1780  1.3058 -0.5465
10358TIP3   OH255268   5.072   6.852  10.685  0.3636  0.0672  0.1890
10358TIP3    H155269   5.080   6.884  10.595  0.7953  2.2894  0.9563
10358TIP3    H255270   5.154   6.806  10.701  1.0340  1.1506 -0.0209
10359TIP3   OH255271   4.152   6.747  12.428 -0.4064 -0.1569 -0.1592
10359TIP3    H155272   4.080   6.689  12.453 -0.3606 -0.1704 -0.0617
10359TIP3    H255273   4.109   6.830  12.408 -0.3198  0.2020  1.0816
10360TIP3   OH255274   6.085   3.275  12.061  1.0058 -0.3349 -0.1935
10360TIP3    H155275   6.061   3.339  12.127  0.3396  0.1450 -0.8882
10360TIP3    H255276   6.120   3.326  11.989 -0.2275 -0.6582 -1.0638
10361TIP3   OH255277   5.760   0.819  13.081  0.3631  0.6685  0.3943
10361TIP3    H155278   5.702   0.806  13.007  1.6574 -0.8539 -0.4170
10361TIP3    H255279   5.748   0.911  13.105 -0.4719  1.0570 -1.3572
10362TIP3   OH255280   6.348   1.504  12.588 -0.7279 -0.3819  0.2214
10362TIP3    H155281   6.284   1.549  12.533 -0.5894  0.1558  0.4942
10362TIP3    H255282   6.320   1.413  12.589 -1.0593 -0.2864 -0.2721
10363TIP3   OH255283   3.218   4.051  12.312 -0.0622  0.5311  0.1570
10363TIP3    H155284   3.168   4.117  12.359 -0.7147 -0.1169  0.3883
10363TIP3    H255285   3.295   4.036  12.366 -0.8295 -0.2401  1.0477
10364TIP3   OH255286   6.205   3.961  10.748  0.6144 -0.1815 -0.2238
10364TIP3    H155287   6.238   3.961  10.658 -0.7926 -2.3856 -0.8170
10364TIP3    H255288   6.131   4.022  10.747 -0.0383 -0.9481 -0.8791
10365TIP3   OH255289   5.006   5.323  12.569  0.2947  0.0074 -0.0731
10365TIP3    H155290   5.058   5.402  12.553 -1.0843  0.8256 -0.6873
10365TIP3    H255291   4.988   5.287  12.482 -0.5643  0.0087  0.0962
10366TIP3   OH255292   4.400   0.388  12.430  0.3957 -0.3647  0.0025
10366TIP3    H155293   4.399   0.306  12.379 -0.6856  0.1562 -0.8528
10366TIP3    H255294   4.432   0.362  12.516  0.4357 -1.6325 -0.3739
10367TIP3   OH255295   7.382   0.234  10.626  0.1728  0.4058  0.2347
10367TIP3    H155296   7.359   0.183  10.548  0.1279 -0.3535  0.7319
10367TIP3    H255297   7.412   0.318  10.592 -0.8091  0.4554 -0.5495
10368TIP3   OH255298   4.501   0.207  10.932 -0.0250 -0.2453  0.1586
10368TIP3    H155299   4.446   0.187  11.008 -0.2620  0.0869  0.0783
10368TIP3    H255300   4.459   0.283  10.892  0.3324 -0.1661 -0.0690
10369TIP3   OH255301   7.076   1.401  11.262  0.3154  0.2170 -0.5322
10369TIP3    H155302   7.097   1.494  11.263  1.1979  0.0377 -0.8164
10369TIP3    H255303   7.039   1.385  11.175 -0.5747  0.4465 -0.2011
10370TIP3   OH255304   0.820   2.021  13.001  0.1121  0.2759  0.1650
10370TIP3    H155305   0.811   2.019  12.906 -0.3788  0.0582  0.2134
10370TIP3    H255306   0.899   1.969  13.018 -0.9328 -1.4578 -0.0037
10371TIP3   OH255307   2.235   3.107  11.068  0.6833 -0.1544  0.1685
10371TIP3    H155308   2.189   3.024  11.062 -0.1784  0.4285 -3.1622
10371TIP3    H255309   2.174   3.165  11.114  0.5464 -0.8911  0.9285
10372TIP3   OH255310   4.533   4.706  11.764 -0.1773 -0.4416  0.3495
10372TIP3    H155311   4.470   4.727  11.833 -0.5686  1.1635 -0.4691
10372TIP3    H255312   4.497   4.629  11.721 -1.4044  0.2493  0.1170
10373TIP3   OH255313   3.416   0.192  12.193 -0.3175  0.6037  0.1553
10373TIP3    H155314   3.426   0.225  12.282  3.3438  1.9554 -0.5862
10373TIP3    H255315   3.479   0.119  12.186 -1.2317 -0.1243 -1.0749
10374TIP3   OH255316   2.862   0.268  12.510 -0.1373  0.2763  0.2862
10374TIP3    H155317   2.841   0.275  12.603 -0.9005 -1.7436  0.3132
10374TIP3    H255318   2.806   0.333  12.467 -1.5821 -0.4445  1.0231
10375TIP3   OH255319   4.681   0.928  11.484  0.7598  0.0666 -0.2559
10375TIP3    H155320   4.766   0.947  11.443 -0.5256  0.2834 -3.0916
10375TIP3    H255321   4.617   0.972  11.427 -1.3576 -1.2203  0.9864
10376TIP3   OH255322   5.510   1.434  12.820  0.1009  0.3072 -0.1842
10376TIP3    H155323   5.499   1.356  12.766 -1.6478  1.0007 -0.9466
10376TIP3    H255324   5.604   1.446  12.827  0.3887 -1.1599 -1.0941
10377TIP3   OH255325   3.789   1.121  12.859 -0.0684 -0.4878 -0.3306
10377TIP3    H155326   3.829   1.056  12.917 -1.6729 -1.1230  0.1131
10377TIP3    H255327   3.768   1.194  12.917 -2.6715 -1.5575  0.1919
10378TIP3   OH255328   4.443   3.394  12.198  0.0026  0.0399  0.1823
10378TIP3    H155329   4.373   3.444  12.240  1.3085  1.4007  0.8168
10378TIP3    H255330   4.467   3.445  12.121  0.0028 -0.6682 -0.3039
10379TIP3   OH255331   4.011   7.242  10.609 -0.2141  0.0536 -0.3012
10379TIP3    H155332   4.026   7.215  10.700  3.9656 -0.0504 -0.8208
10379TIP3    H255333   3.998   7.337  10.614 -0.3640  0.0028  0.4307
10380TIP3   OH255334   5.143   0.980  11.994 -0.3704 -0.2946 -0.7056
10380TIP3    H155335   5.232   1.009  11.976  0.2962 -1.7364  0.0946
10380TIP3    H255336   5.111   1.040  12.061  0.3831 -0.3794 -0.2566
10381TIP3   OH255337   0.079   3.332  12.541  0.4140 -0.2562  0.2411
10381TIP3    H155338   0.027   3.255  12.565  1.0488 -0.2506  1.7440
10381TIP3    H255339   0.038   3.405  12.587  1.6326 -0.2355  1.3612
10382TIP3   OH255340   6.551   6.079  11.252  0.3474  0.1857 -0.2144
10382TIP3    H155341   6.498   6.108  11.328  0.7756  0.3070  0.0401
10382TIP3    H255342   6.641   6.084  11.283  0.4451 -1.6747 -0.0823
10383TIP3   OH255343   0.651   3.309  12.178 -0.2340 -0.2409 -0.4158
10383TIP3    H155344   0.596   3.235  12.152 -0.0006 -0.7853  0.5996
10383TIP3    H255345   0.733   3.270  12.208 -0.4284  0.3588  0.9687
10384TIP3   OH255346   0.827   5.529  10.448  0.2886  0.2717 -0.4879
10384TIP3    H155347   0.842   5.555  10.539 -1.6686 -0.3153  0.0557
10384TIP3    H255348   0.909   5.549  10.403  0.9546  1.5267  1.1907
10385TIP3   OH255349   3.634   4.689  11.063  0.1122  0.4379  0.1510
10385TIP3    H155350   3.728   4.708  11.054  0.3840 -0.7176  0.3696
10385TIP3    H255351   3.623   4.664  11.155  0.5277 -3.8920 -0.7328
10386TIP3   OH255352   2.636   6.656  12.436 -0.1168 -0.4856  0.9505
10386TIP3    H155353   2.541   6.654  12.424 -0.3094 -1.6401  2.3361
10386TIP3    H255354   2.658   6.749  12.434 -1.0121 -0.2651 -1.0479
10387TIP3   OH255355   6.669   2.076  12.105 -0.5368 -0.3233  0.7201
10387TIP3    H155356   6.735   2.056  12.171  0.0205  0.7745  0.5085
10387TIP3    H255357   6.693   2.022  12.030  0.3496  0.3440  0.5126
10388TIP3   OH255358   4.678   5.765  11.708 -0.3594  0.2077  0.3607
10388TIP3    H155359   4.653   5.834  11.647 -0.8801 -0.4854 -0.2265
10388TIP3    H255360   4.652   5.797  11.794 -0.0930  0.9722  0.1625
10389TIP3   OH255361   4.348   0.123  10.569 -0.1345  0.2327  0.5282
10389TIP3    H155362   4.320   0.141  10.659  0.6232 -0.7264  0.9724
10389TIP3    H255363   4.369   0.030  10.568 -2.5536 -0.4064 -1.3147
10390TIP3   OH255364   0.909   1.890  10.262 -0.1167 -0.2912  0.2971
10390TIP3    H155365   0.887   1.797  10.253  0.0738 -0.1938 -1.6218
10390TIP3    H255366   0.980   1.892  10.326 -1.7458 -1.1824  2.2504
10391TIP3   OH255367   1.654   5.669  11.951 -0.2454 -0.3681  0.6982
10391TIP3    H155368   1.696   5.624  11.878 -0.2100 -0.3927  0.7336
10391TIP3    H255369   1.600   5.602  11.992  1.4668 -1.0021  2.0713
10392TIP3   OH255370   7.081   6.945  12.119 -0.1287 -0.4900  0.1110
10392TIP3    H155371   7.029   7.022  12.139 -0.1351 -0.7144  1.0061
10392TIP3    H255372   7.113   6.960  12.030 -0.4825  0.3410  0.1147
10393TIP3   OH255373   7.436   7.095  10.584 -0.2678 -0.2914 -0.0563
10393TIP3    H155374   7.420   7.056  10.498 -0.9849  0.3033 -0.2033
10393TIP3    H255375   7.364   7.063  10.638 -0.1921 -0.1189  0.1449
10394TIP3   OH255376   1.841   7.591  12.461  0.6059  0.2090 -0.0402
10394TIP3    H155377   1.897   7.588  12.383  0.2616 -1.7329 -0.2667
10394TIP3    H255378   1.903   7.586  12.534  0.8213 -2.5693 -0.2919
10395TIP3   OH255379   4.050   0.137  12.662 -0.5448 -0.5859 -0.0976
10395TIP3    H155380   4.051   0.215  12.606 -1.3569 -0.0201  0.6495
10395TIP3    H255381   3.985   0.079  12.621 -0.4606 -0.5652 -0.2594
10396TIP3   OH255382   0.512   3.823  10.777  0.0643  0.3350  0.0232
10396TIP3    H155383   0.470   3.863  10.701 -1.6061  0.5618  0.9997
10396TIP3    H255384   0.449   3.835  10.848  0.8309 -1.3372  1.0647
10397TIP3   OH255385   1.478   4.152  12.080 -0.3077 -0.7293  0.0137
10397TIP3    H155386   1.541   4.172  12.149 -0.4926 -1.1232  0.2986
10397TIP3    H255387   1.508   4.068  12.045  0.1722 -0.2235 -0.8336
10398TIP3   OH255388   7.116   5.617  11.649  0.0192  0.0331 -1.1342
10398TIP3    H155389   7.165   5.556  11.704 -1.2104 -0.2613 -0.3204
10398TIP3    H255390   7.148   5.703  11.673  0.7500 -0.2012 -1.2495
10399TIP3   OH255391   0.049   6.481  10.883 -0.3378  0.4063 -0.2750
10399TIP3    H155392   0.087   6.568  10.896 -1.6366  0.9941 -0.1471
10399TIP3    H255393   0.005   6.461  10.966  0.4518 -0.6501 -0.0980
10400TIP3   OH255394   6.442   0.640  10.376 -0.7050 -0.6687  0.7245
10400TIP3    H155395   6.392   0.613  10.299  0.3530 -0.5845 -0.0211
10400TIP3    H255396   6.502   0.568  10.393  0.5326  0.1774  0.1448
10401TIP3   OH255397   0.578   0.147  12.916  0.8615 -0.3643 -0.2235
10401TIP3    H155398   0.637   0.138  12.990  0.9887  0.2570 -0.2389
10401TIP3    H255399   0.528   0.066  12.914  1.2359 -0.6053  0.2112
10402TIP3   OH255400   1.443   0.359  11.100 -1.0133 -0.1963  0.3483
10402TIP3    H155401   1.383   0.348  11.173  0.1827 -1.2317  1.2067
10402TIP3    H255402   1.429   0.282  11.045 -0.7601 -0.2345  0.3359
10403TIP3   OH255403   7.626   5.859  12.503  0.5676 -0.0921 -0.1851
10403TIP3    H155404   7.574   5.842  12.581  1.1287  0.0485  0.2220
10403TIP3    H255405   7.681   5.934  12.526  2.5517 -1.5750  0.1797
10404TIP3   OH255406   0.076   6.995  11.649  0.0613  0.1255  0.4432
10404TIP3    H155407   0.128   7.008  11.729 -0.6996  1.7693  0.7127
10404TIP3    H255408   0.105   7.064  11.590  0.4401 -0.9299 -0.6469
10405TIP3   OH255409   7.112   5.482  10.906  0.0603  0.0278 -0.4283
10405TIP3    H155410   7.034   5.536  10.914  0.3527  0.2885  0.8789
10405TIP3    H255411   7.184   5.545  10.903  0.4119 -0.2379  1.2111
10406TIP3   OH255412   2.647   5.083  11.240  0.0244  0.0129  0.0395
10406TIP3    H155413   2.621   5.029  11.314 -0.7066  0.5812  0.2088
10406TIP3    H255414   2.706   5.027  11.189 -0.5353 -0.8569  0.3300
10407TIP3   OH255415   5.033   6.335  12.651 -0.3602 -0.3188  0.1574
10407TIP3    H155416   4.939   6.351  12.658 -0.0570  1.2911  0.7945
10407TIP3    H255417   5.071   6.377  12.727  1.0505  0.5073 -0.9442
10408TIP3   OH255418   0.666   1.918  12.206 -0.3206 -0.3550 -0.3282
10408TIP3    H155419   0.604   1.956  12.268  1.4770  0.6467  0.9358
10408TIP3    H255420   0.684   1.830  12.241  0.1031 -0.0802  0.1547
10409TIP3   OH255421   2.138   0.779  11.982  0.0765  0.8818  0.4377
10409TIP3    H155422   2.143   0.708  12.047 -1.8658  0.5098  0.2489
10409TIP3    H255423   2.223   0.776  11.937  0.4133 -0.6925  1.0940
10410TIP3   OH255424   6.163   5.603  12.417 -0.3569 -0.1302  0.4029
10410TIP3    H155425   6.221   5.612  12.493  0.0793  2.5220 -0.1326
10410TIP3    H255426   6.210   5.543  12.359  1.4234  1.1196  0.4398
10411TIP3   OH255427   4.974   1.048  12.416  0.4851 -0.0656 -0.5944
10411TIP3    H155428   5.021   0.975  12.457 -0.1944 -1.2051 -1.7630
10411TIP3    H255429   4.916   1.006  12.353 -0.4788  1.4570 -0.7645
10412TIP3   OH255430   5.719   2.058  12.025  0.4605 -0.6736  0.0651
10412TIP3    H155431   5.765   2.025  12.102 -1.7250 -1.4384  1.1195
10412TIP3    H255432   5.688   1.979  11.980  0.0268 -0.1870 -0.5038
10413TIP3   OH255433   7.360   5.531  11.238  0.3102  0.0619  0.2661
10413TIP3    H155434   7.427   5.600  11.238  0.2373  0.1824 -1.7140
10413TIP3    H255435   7.280   5.575  11.212 -0.9253  0.1480  3.6748
10414TIP3   OH255436   6.120   1.068  10.599 -0.2033 -0.7684  0.2629
10414TIP3    H155437   6.139   1.121  10.676 -0.1081 -0.1761 -0.1633
10414TIP3    H255438   6.204   1.027  10.577 -0.0435 -0.2995 -0.0036
10415TIP3   OH255439   6.602   4.594  10.366  0.2029 -0.5016  0.2836
10415TIP3    H155440   6.514   4.589  10.403 -0.0010 -0.4666 -0.1891
10415TIP3    H255441   6.600   4.533  10.293 -0.4657  1.8614 -1.8147
10416TIP3   OH255442   6.319   7.244  12.150  0.2264  0.0428  0.1242
10416TIP3    H155443   6.309   7.191  12.071 -2.8167  1.1562 -0.3803
10416TIP3    H255444   6.242   7.223  12.203  2.0110 -0.4141  2.6981
10417TIP3   OH255445   5.813   6.964  10.351 -0.0469 -0.0878 -0.0826
10417TIP3    H155446   5.792   7.056  10.367 -0.2894 -0.2184  0.3720
10417TIP3    H255447   5.728   6.919  10.356  0.0506 -0.3107 -0.4580
10418TIP3   OH255448   4.638   3.440  11.085 -0.1592  0.0223  0.3476
10418TIP3    H155449   4.714   3.496  11.097 -0.8221  1.2638 -0.9093
10418TIP3    H255450   4.563   3.497  11.103 -0.8334 -0.6930 -0.1189
10419TIP3   OH255451   3.757   5.599  10.943  0.1812  0.3940  0.2614
10419TIP3    H155452   3.747   5.675  10.887  1.6148 -0.0144 -0.6077
10419TIP3    H255453   3.837   5.616  10.993  0.4002 -0.4291  0.2169
10420TIP3   OH255454   1.082   5.652  12.513 -0.1933  0.1501  0.4133
10420TIP3    H155455   1.023   5.715  12.554 -1.1243 -2.7867  4.2281
10420TIP3    H255456   1.026   5.598  12.458  0.2291  1.2373 -1.1515
10421TIP3   OH255457   0.352   6.979  10.824 -0.1768 -0.2439  0.2464
10421TIP3    H155458   0.351   6.936  10.910  1.9415 -2.3930 -0.6999
10421TIP3    H255459   0.408   7.056  10.836 -0.7082  0.0403  1.0002
10422TIP3   OH255460   1.864   2.602  10.964  0.1954  0.5456  0.4012
10422TIP3    H155461   1.924   2.596  11.038  1.2803 -1.7231 -0.5572
10422TIP3    H255462   1.827   2.515  10.955 -1.3888  1.2631 -0.5838
10423TIP3   OH255463   2.539   6.095  11.901  0.9530 -0.0239 -0.3291
10423TIP3    H155464   2.592   6.174  11.908 -1.2138  1.3798  1.7545
10423TIP3    H255465   2.537   6.059  11.990 -0.8127 -0.5215 -0.5298
10424TIP3   OH255466   3.934   6.628  12.537 -0.1093 -0.4978 -0.2168
10424TIP3    H155467   3.859   6.577  12.568 -0.5091  0.5069  0.5205
10424TIP3    H255468   3.971   6.666  12.617 -0.1991  0.8565 -0.7964
10425TIP3   OH255469   7.084   2.241  10.478  0.3046 -0.3729  0.1073
10425TIP3    H155470   7.014   2.176  10.485 -1.0460  1.0526  0.4962
10425TIP3    H255471   7.055   2.314  10.532  2.4049  0.0419  0.7732
10426TIP3   OH255472   7.053   2.837  12.128  0.0233 -0.0891  0.0864
10426TIP3    H155473   7.089   2.917  12.167 -0.2830 -1.0112  2.4234
10426TIP3    H255474   7.127   2.778  12.121 -0.2743 -0.6042  1.1494
10427TIP3   OH255475   1.128   0.001  11.312 -0.5832  0.4930 -0.6352
10427TIP3    H155476   1.172   0.062  11.253 -0.7985 -0.8267 -2.2402
10427TIP3    H255477   1.162   0.022  11.399  1.0589  1.3610 -1.4551
10428TIP3   OH255478   1.881   5.225  11.449  0.2163  0.5654  0.1922
10428TIP3    H155479   1.839   5.240  11.364  0.1998 -0.4154  0.0186
10428TIP3    H255480   1.871   5.131  11.465  1.5271  0.4682  0.5864
10429TIP3   OH255481   4.936   1.962  11.046  0.1203  0.4313  0.2076
10429TIP3    H155482   4.927   2.048  11.006  1.2869  0.8742  0.8459
10429TIP3    H255483   4.992   1.976  11.122 -2.4847 -0.2503  2.4290
10430TIP3   OH255484   6.442   0.399  13.046  0.3168 -0.1685 -0.3316
10430TIP3    H155485   6.358   0.353  13.049 -0.1358  0.6557 -0.1692
10430TIP3    H255486   6.425   0.477  12.994  1.0518 -0.1282 -0.5137
10431TIP3   OH255487   6.206   6.898  10.771  1.0535 -0.2776 -0.3090
10431TIP3    H155488   6.231   6.923  10.682  0.2685 -0.3416 -0.5568
10431TIP3    H255489   6.267   6.946  10.827  1.4772 -0.1388 -0.8728
10432TIP3   OH255490   2.450   5.757  11.967  0.1451 -0.0080  0.1097
10432TIP3    H155491   2.492   5.754  11.881 -0.6657 -0.5467 -0.2808
10432TIP3    H255492   2.390   5.832  11.961  0.5907  0.3749  0.4445
10433TIP3   OH255493   2.779   0.973  12.089  0.2519  0.2480 -0.3125
10433TIP3    H155494   2.844   1.043  12.093 -0.1966  0.6603 -0.0787
10433TIP3    H255495   2.768   0.955  11.996  0.5080  0.3555 -0.3636
10434TIP3   OH255496   6.641   6.682  10.474  0.3051  0.1086  0.2178
10434TIP3    H155497   6.700   6.614  10.443  1.7954  0.4149  2.1754
10434TIP3    H255498   6.563   6.635  10.502 -0.7173 -0.2568 -2.8945
10435TIP3   OH255499   6.445   6.782  12.175  0.1196  0.5080 -0.0642
10435TIP3    H155500   6.374   6.821  12.125  0.0797  0.4514 -0.0511
10435TIP3    H255501   6.509   6.853  12.185  0.6174  0.2352 -1.1222
10436TIP3   OH255502   6.258   0.529  11.268  0.6086  1.2834  0.2508
10436TIP3    H155503   6.312   0.592  11.220  1.2507 -1.4944 -3.0707
10436TIP3    H255504   6.169   0.544  11.236  1.0014 -0.4097 -1.8290
10437TIP3   OH255505   4.447   0.911  11.089  0.1095  0.5511 -0.6978
10437TIP3    H155506   4.488   0.976  11.145  0.5535  0.5269 -0.9906
10437TIP3    H255507   4.446   0.950  11.002 -0.2460  0.4431 -0.7442
10438TIP3   OH255508   2.057   6.576  12.074  0.1429 -0.2453 -0.1602
10438TIP3    H155509   2.131   6.614  12.027  0.1777  2.0038  1.5446
10438TIP3    H255510   2.002   6.651  12.097 -1.0377 -1.5060  1.3428
10439TIP3   OH255511   5.060   6.469  11.381 -0.1734 -0.3412 -0.7774
10439TIP3    H155512   5.087   6.540  11.439 -0.2418  0.3332 -1.5513
10439TIP3    H255513   5.028   6.400  11.439  1.8537 -0.5937  0.1077
   7.68049   7.68049  30.00000
